Title t= 466.00000 step= 233000
44434
    1GLY      N    1   4.077   3.491   5.519
    1GLY    HT1    2   4.036   3.404   5.480
    1GLY    HT2    3   4.030   3.565   5.462
    1GLY    HT3    4   4.040   3.505   5.615
    1GLY     CA    5   4.225   3.506   5.506
    1GLY    HA1    6   4.246   3.433   5.429
    1GLY    HA2    7   4.261   3.478   5.604
    1GLY      C    8   4.270   3.648   5.475
    1GLY      O    9   4.182   3.735   5.485
    2PRO      N   10   4.395   3.662   5.428
    2PRO     CD   11   4.487   3.552   5.409
    2PRO    HD1   12   4.455   3.481   5.330
    2PRO    HD2   13   4.509   3.489   5.498
    2PRO     CA   14   4.438   3.785   5.360
    2PRO     HA   15   4.447   3.857   5.440
    2PRO     CB   16   4.568   3.739   5.281
    2PRO    HB1   17   4.644   3.819   5.291
    2PRO    HB2   18   4.535   3.720   5.177
    2PRO     CG   19   4.612   3.620   5.360
    2PRO    HG1   20   4.673   3.555   5.293
    2PRO    HG2   21   4.680   3.655   5.442
    2PRO      C   22   4.336   3.837   5.254
    2PRO      O   23   4.295   3.752   5.174
    3GLY      N   24   4.312   3.972   5.251
    3GLY     HN   25   4.385   4.028   5.291
    3GLY     CA   26   4.242   4.042   5.139
    3GLY    HA1   27   4.249   4.146   5.167
    3GLY    HA2   28   4.145   3.994   5.134
    3GLY      C   29   4.299   4.019   4.996
    3GLY      O   30   4.409   3.976   4.982
    4ASP      N   31   4.226   4.047   4.887
    4ASP     HN   32   4.128   4.058   4.900
    4ASP     CA   33   4.277   4.047   4.751
    4ASP     HA   34   4.327   3.952   4.745
    4ASP     CB   35   4.165   4.012   4.642
    4ASP    HB1   36   4.208   3.995   4.541
    4ASP    HB2   37   4.096   4.099   4.634
    4ASP     CG   38   4.084   3.880   4.672
    4ASP    OD1   39   4.121   3.800   4.761
    4ASP    OD2   40   3.985   3.856   4.599
    4ASP      C   41   4.387   4.161   4.724
    4ASP      O   42   4.358   4.274   4.769
    5PRO      N   43   4.503   4.139   4.670
    5PRO     CD   44   4.537   4.010   4.599
    5PRO    HD1   45   4.447   3.976   4.543
    5PRO    HD2   46   4.551   3.934   4.678
    5PRO     CA   47   4.611   4.232   4.660
    5PRO     HA   48   4.630   4.272   4.759
    5PRO     CB   49   4.727   4.155   4.599
    5PRO    HB1   50   4.789   4.117   4.683
    5PRO    HB2   51   4.789   4.218   4.531
    5PRO     CG   52   4.660   4.041   4.514
    5PRO    HG1   53   4.633   4.086   4.416
    5PRO    HG2   54   4.730   3.957   4.492
    5PRO      C   55   4.579   4.365   4.589
    5PRO      O   56   4.494   4.371   4.498
    6GLY      N   57   4.632   4.479   4.642
    6GLY     HN   58   4.695   4.462   4.717
    6GLY     CA   59   4.610   4.620   4.601
    6GLY    HA1   60   4.679   4.676   4.663
    6GLY    HA2   61   4.505   4.643   4.610
    6GLY      C   62   4.648   4.637   4.456
    6GLY      O   63   4.721   4.560   4.405
    7SER      N   64   4.615   4.751   4.398
    7SER     HN   65   4.547   4.803   4.449
    7SER     CA   66   4.670   4.797   4.278
    7SER     HA   67   4.651   4.723   4.202
    7SER     CB   68   4.604   4.929   4.233
    7SER    HB1   69   4.644   4.946   4.131
    7SER    HB2   70   4.627   5.022   4.291
    7SER     OG   71   4.461   4.912   4.228
    7SER    HG1   72   4.435   4.971   4.158
    7SER      C   73   4.824   4.811   4.267
    7SER      O   74   4.892   4.844   4.362
    8GLY      N   75   4.880   4.784   4.154
    8GLY     HN   76   4.821   4.761   4.077
    8GLY     CA   77   5.026   4.785   4.126
    8GLY    HA1   78   5.052   4.704   4.060
    8GLY    HA2   79   5.080   4.774   4.218
    8GLY      C   80   5.071   4.915   4.043
    8GLY      O   81   4.989   4.992   4.004
    9ASN      N   82   5.199   4.926   4.014
    9ASN     HN   83   5.274   4.866   4.040
    9ASN     CA   84   5.255   5.035   3.932
    9ASN     HA   85   5.198   5.123   3.953
    9ASN     CB   86   5.400   5.065   3.982
    9ASN    HB1   87   5.464   4.990   3.932
    9ASN    HB2   88   5.415   5.050   4.091
    9ASN     CG   89   5.444   5.194   3.932
    9ASN    OD1   90   5.379   5.269   3.857
    9ASN    ND2   91   5.558   5.237   3.987
    9ASN   HD21   92   5.605   5.321   3.959
    9ASN   HD22   93   5.590   5.186   4.067
    9ASN      C   94   5.257   4.994   3.777
    9ASN      O   95   5.324   4.892   3.745
   10PRO      N   96   5.168   5.049   3.693
   10PRO     CD   97   5.077   5.159   3.735
   10PRO    HD1   98   5.140   5.250   3.751
   10PRO    HD2   99   5.020   5.151   3.831
   10PRO     CA  100   5.155   5.028   3.546
   10PRO     HA  101   5.093   4.940   3.545
   10PRO     CB  102   5.062   5.143   3.492
   10PRO    HB1  103   4.990   5.109   3.416
   10PRO    HB2  104   5.132   5.225   3.464
   10PRO     CG  105   4.983   5.191   3.616
   10PRO    HG1  106   4.950   5.297   3.617
   10PRO    HG2  107   4.887   5.135   3.625
   10PRO      C  108   5.274   4.995   3.458
   10PRO      O  109   5.359   5.078   3.455
   11GLY      N  110   5.271   4.874   3.390
   11GLY     HN  111   5.183   4.827   3.394
   11GLY     CA  112   5.373   4.807   3.321
   11GLY    HA1  113   5.347   4.714   3.273
   11GLY    HA2  114   5.452   4.802   3.395
   11GLY      C  115   5.432   4.894   3.213
   11GLY      O  116   5.362   4.976   3.147
   12SER      N  117   5.565   4.880   3.189
   12SER     HN  118   5.630   4.827   3.242
   12SER     CA  119   5.629   4.967   3.089
   12SER     HA  120   5.559   5.031   3.038
   12SER     CB  121   5.732   5.066   3.155
   12SER    HB1  122   5.777   5.127   3.074
   12SER    HB2  123   5.811   5.020   3.218
   12SER     OG  124   5.660   5.152   3.237
   12SER    HG1  125   5.663   5.126   3.329
   12SER      C  126   5.688   4.887   2.978
   12SER      O  127   5.735   4.776   3.001
   13GLY      N  128   5.673   4.940   2.859
   13GLY     HN  129   5.616   5.021   2.848
   13GLY     CA  130   5.734   4.873   2.743
   13GLY    HA1  131   5.735   4.948   2.666
   13GLY    HA2  132   5.686   4.778   2.726
   13GLY      C  133   5.879   4.843   2.743
   13GLY      O  134   5.962   4.903   2.812
   14ASP      N  135   5.917   4.743   2.657
   14ASP     HN  136   5.843   4.714   2.597
   14ASP     CA  137   6.051   4.694   2.636
   14ASP     HA  138   6.082   4.650   2.730
   14ASP     CB  139   6.045   4.583   2.529
   14ASP    HB1  140   6.147   4.544   2.511
   14ASP    HB2  141   6.006   4.615   2.431
   14ASP     CG  142   5.977   4.462   2.592
   14ASP    OD1  143   5.956   4.358   2.518
   14ASP    OD2  144   5.934   4.464   2.709
   14ASP      C  145   6.147   4.799   2.590
   14ASP      O  146   6.110   4.876   2.502
   15PRO      N  147   6.268   4.807   2.639
   15PRO     CD  148   6.314   4.762   2.778
   15PRO    HD1  149   6.307   4.652   2.793
   15PRO    HD2  150   6.266   4.818   2.861
   15PRO     CA  151   6.359   4.909   2.593
   15PRO     HA  152   6.300   4.999   2.579
   15PRO     CB  153   6.457   4.934   2.707
   15PRO    HB1  154   6.407   5.008   2.773
   15PRO    HB2  155   6.548   4.980   2.662
   15PRO     CG  156   6.468   4.798   2.772
   15PRO    HG1  157   6.527   4.718   2.722
   15PRO    HG2  158   6.501   4.801   2.878
   15PRO      C  159   6.426   4.876   2.459
   15PRO    OT1  160   6.472   4.763   2.436
   15PRO    OT2  161   6.439   4.971   2.378
   16LIT    LIT  162   3.984   3.684   4.670
   17LIT    LIT  163   5.243   3.339   2.828
   18LIT    LIT  164   5.721   2.878   0.662
   19LIT    LIT  165   2.651   4.402   5.398
   20LIT    LIT  166   5.808   4.317   3.940
   21LIT    LIT  167   2.162   7.436   1.194
   22LIT    LIT  168   4.033   6.157   0.160
   23LIT    LIT  169   6.106   1.036   2.361
   24LIT    LIT  170   7.167   5.248   4.494
   25LIT    LIT  171   7.767   0.427   4.153
   26LIT    LIT  172   2.354   3.433   4.021
   27LIT    LIT  173   7.849   6.684   3.895
   28LIT    LIT  174   6.731   3.061   1.936
   29LIT    LIT  175   7.621   1.501   2.214
   30LIT    LIT  176   4.868   7.701   5.057
   31LIT    LIT  177   7.386   7.616   0.546
   32LIT    LIT  178   2.515   3.429   5.095
   33LIT    LIT  179   2.162   7.608   2.089
   34LIT    LIT  180   0.234   6.025   1.826
   35LIT    LIT  181   1.999   1.811   6.501
   36LIT    LIT  182   5.797   5.188   1.455
   37LIT    LIT  183   1.021   4.769   3.584
   38LIT    LIT  184   2.974   0.303   0.760
   39LIT    LIT  185   2.196   0.700   5.412
   40LIT    LIT  186   6.405   5.581   3.804
   41LIT    LIT  187   6.471   4.829   2.245
   42LIT    LIT  188   3.091   2.210   6.657
   43LIT    LIT  189   0.400   1.123   1.268
   44LIT    LIT  190   6.254   6.500   2.467
   45LIT    LIT  191   8.194   2.119   2.053
   46LIT    LIT  192   6.746   7.584   6.328
   47LIT    LIT  193   3.036   1.872   0.513
   48LIT    LIT  194   7.146   5.255   5.093
   49LIT    LIT  195   5.971   4.447   2.889
   50LIT    LIT  196   5.407   1.896   2.870
   51LIT    LIT  197   6.907   3.887   6.512
   52LIT    LIT  198   8.002   2.577   5.383
   53LIT    LIT  199   2.903   4.889   3.964
   54LIT    LIT  200   0.254   7.069   3.125
   55LIT    LIT  201   1.315   1.474   5.327
   56LIT    LIT  202   8.103   7.630   2.537
   57LIT    LIT  203   6.458   1.088   1.685
   58LIT    LIT  204   7.053   4.786   0.429
   59LIT    LIT  205   5.159   4.841   1.813
   60CLA    CLA  206   2.088   1.425   4.761
   61CLA    CLA  207   6.607   4.576   5.609
   62CLA    CLA  208   6.158   4.745   1.931
   63CLA    CLA  209   2.371   3.499   2.175
   64CLA    CLA  210   0.405   0.149   5.830
   65CLA    CLA  211   2.815   7.424   1.620
   66CLA    CLA  212   4.862   1.526   5.598
   67CLA    CLA  213   1.939   6.680   2.271
   68CLA    CLA  214   7.575   0.775   2.910
   69CLA    CLA  215   7.568   2.342   3.974
   70CLA    CLA  216   5.154   5.825   0.231
   71CLA    CLA  217   1.441   1.903   6.661
   72CLA    CLA  218   5.418   3.303   3.745
   73CLA    CLA  219   3.523   3.773   5.580
   74CLA    CLA  220   4.523   4.942   1.826
   75CLA    CLA  221   2.615   7.601   5.182
   76CLA    CLA  222   1.465   4.774   4.630
   77CLA    CLA  223   4.522   2.452   5.944
   78CLA    CLA  224   2.693   6.434   6.241
   79CLA    CLA  225   7.459   6.941   2.329
   80CLA    CLA  226   0.422   6.393   6.612
   81CLA    CLA  227   6.435   1.167   1.889
   82CLA    CLA  228   0.117   0.473   6.047
   83CLA    CLA  229   0.808   3.947   3.931
   84CLA    CLA  230   6.626   1.450   4.924
   85CLA    CLA  231   7.778   4.271   6.201
   86CLA    CLA  232   6.205   3.965   2.590
   87CLA    CLA  233   7.416   5.649   2.933
   88CLA    CLA  234   8.245   4.245   3.363
   89CLA    CLA  235   2.805   0.963   0.117
   90CLA    CLA  236   7.210   6.377   2.708
   91CLA    CLA  237   2.239   5.363   5.895
   92CLA    CLA  238   0.697   0.056   0.430
   93CLA    CLA  239   3.239   0.622   2.535
   94CLA    CLA  240   2.173   2.001   0.253
   95CLA    CLA  241   6.888   4.653   0.521
   96CLA    CLA  242   7.934   0.487   4.303
   97CLA    CLA  243   6.448   5.908   4.619
   98CLA    CLA  244   2.445   2.804   5.450
   99CLA    CLA  245   6.095   7.347   5.491
  100CLA    CLA  246   3.341   2.876   2.236
  101CLA    CLA  247   0.203   0.577   0.901
  102TIP3   OH2  248   2.450   1.090   4.145
  102TIP3    H1  249   2.416   1.146   4.076
  102TIP3    H2  250   2.497   1.020   4.098
  103TIP3   OH2  251   3.934   6.671   6.395
  103TIP3    H1  252   3.915   6.657   6.302
  103TIP3    H2  253   3.851   6.658   6.439
  104TIP3   OH2  254   5.438   5.504   1.107
  104TIP3    H1  255   5.420   5.595   1.131
  104TIP3    H2  256   5.522   5.484   1.149
  105TIP3   OH2  257   4.487   6.154   0.911
  105TIP3    H1  258   4.523   6.233   0.871
  105TIP3    H2  259   4.482   6.174   1.004
  106TIP3   OH2  260   3.323   1.273   6.467
  106TIP3    H1  261   3.390   1.332   6.504
  106TIP3    H2  262   3.326   1.196   6.523
  107TIP3   OH2  263   2.327   1.029   5.472
  107TIP3    H1  264   2.256   1.083   5.507
  107TIP3    H2  265   2.384   1.091   5.427
  108TIP3   OH2  266   4.274   5.568   5.900
  108TIP3    H1  267   4.356   5.607   5.932
  108TIP3    H2  268   4.234   5.530   5.978
  109TIP3   OH2  269   5.259   0.867   1.385
  109TIP3    H1  270   5.315   0.800   1.347
  109TIP3    H2  271   5.289   0.875   1.476
  110TIP3   OH2  272   5.356   2.144   1.133
  110TIP3    H1  273   5.345   2.049   1.129
  110TIP3    H2  274   5.449   2.157   1.116
  111TIP3   OH2  275   2.910   6.943   0.361
  111TIP3    H1  276   2.904   7.017   0.422
  111TIP3    H2  277   2.829   6.946   0.311
  112TIP3   OH2  278   6.740   7.142   0.298
  112TIP3    H1  279   6.695   7.081   0.358
  112TIP3    H2  280   6.732   7.101   0.212
  113TIP3   OH2  281   3.143   1.726   6.632
  113TIP3    H1  282   3.155   1.719   6.727
  113TIP3    H2  283   3.050   1.707   6.619
  114TIP3   OH2  284   0.763   1.817   2.109
  114TIP3    H1  285   0.797   1.887   2.053
  114TIP3    H2  286   0.793   1.840   2.197
  115TIP3   OH2  287   7.160   4.500   1.625
  115TIP3    H1  288   7.249   4.528   1.603
  115TIP3    H2  289   7.104   4.556   1.571
  116TIP3   OH2  290   2.010   0.457   2.177
  116TIP3    H1  291   1.967   0.542   2.182
  116TIP3    H2  292   1.961   0.401   2.236
  117TIP3   OH2  293   1.368   5.415   5.060
  117TIP3    H1  294   1.277   5.385   5.064
  117TIP3    H2  295   1.419   5.338   5.086
  118TIP3   OH2  296   2.419   0.747   5.899
  118TIP3    H1  297   2.337   0.775   5.941
  118TIP3    H2  298   2.456   0.827   5.862
  119TIP3   OH2  299   2.347   5.828   1.634
  119TIP3    H1  300   2.391   5.816   1.550
  119TIP3    H2  301   2.316   5.918   1.633
  120TIP3   OH2  302   1.146   4.103   3.286
  120TIP3    H1  303   1.058   4.117   3.252
  120TIP3    H2  304   1.153   4.008   3.297
  121TIP3   OH2  305   7.329   1.729   0.460
  121TIP3    H1  306   7.305   1.820   0.476
  121TIP3    H2  307   7.425   1.731   0.451
  122TIP3   OH2  308   6.832   4.825   0.019
  122TIP3    H1  309   6.744   4.844  -0.013
  122TIP3    H2  310   6.830   4.732   0.044
  123TIP3   OH2  311   4.868   6.806   1.561
  123TIP3    H1  312   4.913   6.890   1.554
  123TIP3    H2  313   4.888   6.775   1.649
  124TIP3   OH2  314   0.291   0.090   0.293
  124TIP3    H1  315   0.203   0.087   0.256
  124TIP3    H2  316   0.345   0.041   0.231
  125TIP3   OH2  317   5.746   7.033   2.945
  125TIP3    H1  318   5.802   7.069   2.876
  125TIP3    H2  319   5.668   7.002   2.898
  126TIP3   OH2  320   1.947   5.290   6.300
  126TIP3    H1  321   1.892   5.224   6.341
  126TIP3    H2  322   1.885   5.356   6.269
  127TIP3   OH2  323   7.632   1.368   3.616
  127TIP3    H1  324   7.596   1.369   3.527
  127TIP3    H2  325   7.577   1.305   3.663
  128TIP3   OH2  326   1.859   0.936   4.657
  128TIP3    H1  327   1.908   0.907   4.734
  128TIP3    H2  328   1.923   0.982   4.603
  129TIP3   OH2  329   5.519   1.964   6.058
  129TIP3    H1  330   5.477   1.952   5.973
  129TIP3    H2  331   5.584   1.894   6.063
  130TIP3   OH2  332   1.755   7.717   4.819
  130TIP3    H1  333   1.688   7.677   4.764
  130TIP3    H2  334   1.780   7.797   4.773
  131TIP3   OH2  335   7.308   1.174   4.438
  131TIP3    H1  336   7.219   1.140   4.429
  131TIP3    H2  337   7.331   1.159   4.529
  132TIP3   OH2  338   1.506   1.783   2.462
  132TIP3    H1  339   1.512   1.714   2.396
  132TIP3    H2  340   1.594   1.822   2.463
  133TIP3   OH2  341   7.841   1.665   5.582
  133TIP3    H1  342   7.798   1.664   5.667
  133TIP3    H2  343   7.853   1.758   5.563
  134TIP3   OH2  344   3.485   1.923   5.625
  134TIP3    H1  345   3.533   1.987   5.573
  134TIP3    H2  346   3.530   1.921   5.709
  135TIP3   OH2  347   2.549   7.335   0.995
  135TIP3    H1  348   2.642   7.342   0.974
  135TIP3    H2  349   2.541   7.253   1.043
  136TIP3   OH2  350   1.135   5.509   3.836
  136TIP3    H1  351   1.174   5.592   3.810
  136TIP3    H2  352   1.064   5.495   3.773
  137TIP3   OH2  353   8.004   3.364   3.995
  137TIP3    H1  354   7.961   3.305   3.933
  137TIP3    H2  355   8.031   3.439   3.943
  138TIP3   OH2  356   0.255   6.034   4.056
  138TIP3    H1  357   0.228   6.039   3.965
  138TIP3    H2  358   0.294   6.119   4.074
  139TIP3   OH2  359   6.514   3.278   4.988
  139TIP3    H1  360   6.490   3.273   4.895
  139TIP3    H2  361   6.430   3.288   5.033
  140TIP3   OH2  362   1.086   5.939   5.273
  140TIP3    H1  363   1.041   5.925   5.357
  140TIP3    H2  364   1.047   6.019   5.239
  141TIP3   OH2  365   3.514   6.821   2.461
  141TIP3    H1  366   3.594   6.814   2.409
  141TIP3    H2  367   3.486   6.731   2.476
  142TIP3   OH2  368   3.058   2.742   2.511
  142TIP3    H1  369   3.125   2.684   2.474
  142TIP3    H2  370   3.103   2.824   2.527
  143TIP3   OH2  371   1.745   7.334   2.102
  143TIP3    H1  372   1.714   7.318   2.013
  143TIP3    H2  373   1.749   7.248   2.142
  144TIP3   OH2  374   6.988   4.458   5.032
  144TIP3    H1  375   7.032   4.389   5.081
  144TIP3    H2  376   7.012   4.539   5.077
  145TIP3   OH2  377   3.659   7.062   1.570
  145TIP3    H1  378   3.569   7.089   1.551
  145TIP3    H2  379   3.690   7.021   1.489
  146TIP3   OH2  380   1.072   5.995   2.348
  146TIP3    H1  381   0.992   5.993   2.295
  146TIP3    H2  382   1.130   5.930   2.307
  147TIP3   OH2  383   3.528   0.800   3.739
  147TIP3    H1  384   3.449   0.785   3.686
  147TIP3    H2  385   3.501   0.778   3.828
  148TIP3   OH2  386   5.527   7.750   5.098
  148TIP3    H1  387   5.589   7.738   5.026
  148TIP3    H2  388   5.466   7.677   5.090
  149TIP3   OH2  389   5.113   4.162   4.344
  149TIP3    H1  390   5.027   4.184   4.307
  149TIP3    H2  391   5.093   4.114   4.424
  150TIP3   OH2  392   1.604   2.715   3.506
  150TIP3    H1  393   1.679   2.775   3.507
  150TIP3    H2  394   1.631   2.644   3.447
  151TIP3   OH2  395   8.212   0.376   0.140
  151TIP3    H1  396   8.256   0.433   0.077
  151TIP3    H2  397   8.254   0.291   0.128
  152TIP3   OH2  398   7.238   4.150   6.312
  152TIP3    H1  399   7.321   4.152   6.264
  152TIP3    H2  400   7.229   4.238   6.348
  153TIP3   OH2  401   3.822   1.207   1.834
  153TIP3    H1  402   3.815   1.171   1.922
  153TIP3    H2  403   3.796   1.135   1.776
  154TIP3   OH2  404   7.576   4.995   1.278
  154TIP3    H1  405   7.537   4.907   1.276
  154TIP3    H2  406   7.645   4.989   1.343
  155TIP3   OH2  407   2.341   5.171   4.149
  155TIP3    H1  408   2.266   5.193   4.205
  155TIP3    H2  409   2.334   5.232   4.075
  156TIP3   OH2  410  -0.002   3.988   0.646
  156TIP3    H1  411   0.061   3.937   0.697
  156TIP3    H2  412  -0.068   4.014   0.710
  157TIP3   OH2  413   0.062   1.649   3.477
  157TIP3    H1  414   0.141   1.606   3.443
  157TIP3    H2  415   0.006   1.576   3.504
  158TIP3   OH2  416   2.787   7.687   4.246
  158TIP3    H1  417   2.694   7.662   4.245
  158TIP3    H2  418   2.821   7.655   4.163
  159TIP3   OH2  419   8.266   0.657   2.193
  159TIP3    H1  420   8.320   0.604   2.251
  159TIP3    H2  421   8.210   0.708   2.251
  160TIP3   OH2  422   5.914   0.225   2.710
  160TIP3    H1  423   5.851   0.280   2.756
  160TIP3    H2  424   5.861   0.169   2.654
  161TIP3   OH2  425   3.960   2.700   6.689
  161TIP3    H1  426   4.046   2.675   6.654
  161TIP3    H2  427   3.950   2.647   6.768
  162TIP3   OH2  428   2.564  -0.011   2.473
  162TIP3    H1  429   2.639   0.048   2.475
  162TIP3    H2  430   2.488   0.048   2.480
  163TIP3   OH2  431   3.300   4.712   2.463
  163TIP3    H1  432   3.270   4.788   2.512
  163TIP3    H2  433   3.306   4.642   2.527
  164TIP3   OH2  434   4.294   1.129   1.382
  164TIP3    H1  435   4.235   1.145   1.455
  164TIP3    H2  436   4.279   1.037   1.359
  165TIP3   OH2  437   7.883   3.460   0.157
  165TIP3    H1  438   7.840   3.543   0.135
  165TIP3    H2  439   7.975   3.474   0.134
  166TIP3   OH2  440   7.501   4.665   6.332
  166TIP3    H1  441   7.518   4.752   6.369
  166TIP3    H2  442   7.583   4.618   6.342
  167TIP3   OH2  443   0.778   0.842   1.866
  167TIP3    H1  444   0.732   0.859   1.784
  167TIP3    H2  445   0.723   0.883   1.933
  168TIP3   OH2  446   4.981   6.317   0.550
  168TIP3    H1  447   4.946   6.336   0.463
  168TIP3    H2  448   4.944   6.232   0.573
  169TIP3   OH2  449   5.392   1.085   6.185
  169TIP3    H1  450   5.417   1.162   6.236
  169TIP3    H2  451   5.461   1.020   6.203
  170TIP3   OH2  452   4.990   2.478   0.879
  170TIP3    H1  453   5.044   2.418   0.931
  170TIP3    H2  454   5.013   2.565   0.911
  171TIP3   OH2  455   3.702   1.518   5.462
  171TIP3    H1  456   3.700   1.429   5.497
  171TIP3    H2  457   3.690   1.574   5.538
  172TIP3   OH2  458   6.920   7.596   4.329
  172TIP3    H1  459   6.958   7.540   4.261
  172TIP3    H2  460   6.941   7.685   4.302
  173TIP3   OH2  461   5.955   1.114   2.257
  173TIP3    H1  462   5.899   1.182   2.221
  173TIP3    H2  463   5.897   1.038   2.269
  174TIP3   OH2  464   4.938  -0.011   4.014
  174TIP3    H1  465   5.015   0.046   4.019
  174TIP3    H2  466   4.952  -0.076   4.084
  175TIP3   OH2  467   4.938   4.319   2.823
  175TIP3    H1  468   4.924   4.308   2.917
  175TIP3    H2  469   4.901   4.240   2.783
  176TIP3   OH2  470   1.330   7.129   4.120
  176TIP3    H1  471   1.381   7.060   4.077
  176TIP3    H2  472   1.353   7.120   4.213
  177TIP3   OH2  473   7.150   4.092   1.470
  177TIP3    H1  474   7.127   4.084   1.377
  177TIP3    H2  475   7.214   4.022   1.484
  178TIP3   OH2  476   4.566   3.413   0.259
  178TIP3    H1  477   4.588   3.381   0.346
  178TIP3    H2  478   4.490   3.469   0.272
  179TIP3   OH2  479   3.898   6.806   1.141
  179TIP3    H1  480   3.897   6.871   1.211
  179TIP3    H2  481   3.990   6.778   1.136
  180TIP3   OH2  482   7.098   2.431   5.730
  180TIP3    H1  483   7.054   2.382   5.660
  180TIP3    H2  484   7.163   2.369   5.764
  181TIP3   OH2  485   2.714   6.861   3.300
  181TIP3    H1  486   2.796   6.881   3.344
  181TIP3    H2  487   2.665   6.809   3.364
  182TIP3   OH2  488   5.326   2.775   2.696
  182TIP3    H1  489   5.298   2.816   2.614
  182TIP3    H2  490   5.322   2.681   2.679
  183TIP3   OH2  491   3.358   0.818   1.116
  183TIP3    H1  492   3.436   0.820   1.172
  183TIP3    H2  493   3.323   0.907   1.120
  184TIP3   OH2  494   3.440   5.128   1.986
  184TIP3    H1  495   3.514   5.162   1.935
  184TIP3    H2  496   3.366   5.185   1.963
  185TIP3   OH2  497   1.863   7.112   5.170
  185TIP3    H1  498   1.854   7.103   5.264
  185TIP3    H2  499   1.942   7.063   5.148
  186TIP3   OH2  500   4.363   2.410   2.311
  186TIP3    H1  501   4.271   2.431   2.329
  186TIP3    H2  502   4.386   2.343   2.376
  187TIP3   OH2  503   1.875   7.660   4.516
  187TIP3    H1  504   1.845   7.607   4.590
  187TIP3    H2  505   1.875   7.599   4.442
  188TIP3   OH2  506   3.525   1.092   3.630
  188TIP3    H1  507   3.618   1.104   3.613
  188TIP3    H2  508   3.512   0.997   3.629
  189TIP3   OH2  509   5.984   2.813   6.647
  189TIP3    H1  510   5.902   2.863   6.642
  189TIP3    H2  511   5.996   2.779   6.559
  190TIP3   OH2  512   0.416   6.437   0.249
  190TIP3    H1  513   0.358   6.446   0.174
  190TIP3    H2  514   0.440   6.526   0.272
  191TIP3   OH2  515   6.201   0.745   6.629
  191TIP3    H1  516   6.176   0.792   6.550
  191TIP3    H2  517   6.239   0.663   6.596
  192TIP3   OH2  518   6.784   4.385   0.711
  192TIP3    H1  519   6.820   4.468   0.680
  192TIP3    H2  520   6.700   4.376   0.666
  193TIP3   OH2  521   0.971   6.234   2.056
  193TIP3    H1  522   1.055   6.278   2.067
  193TIP3    H2  523   0.987   6.170   1.986
  194TIP3   OH2  524   4.179   2.670   3.985
  194TIP3    H1  525   4.251   2.609   4.001
  194TIP3    H2  526   4.159   2.707   4.071
  195TIP3   OH2  527   0.766   3.705   5.091
  195TIP3    H1  528   0.731   3.618   5.113
  195TIP3    H2  529   0.798   3.695   5.001
  196TIP3   OH2  530   8.148   2.830   5.052
  196TIP3    H1  531   8.229   2.878   5.070
  196TIP3    H2  532   8.175   2.759   4.994
  197TIP3   OH2  533   4.147   1.339   5.730
  197TIP3    H1  534   4.180   1.277   5.665
  197TIP3    H2  535   4.224   1.390   5.755
  198TIP3   OH2  536   6.291   6.106   6.618
  198TIP3    H1  537   6.325   6.017   6.633
  198TIP3    H2  538   6.217   6.113   6.678
  199TIP3   OH2  539   6.640   6.668   4.055
  199TIP3    H1  540   6.698   6.593   4.068
  199TIP3    H2  541   6.645   6.716   4.138
  200TIP3   OH2  542   2.200   3.139   5.793
  200TIP3    H1  543   2.207   3.130   5.888
  200TIP3    H2  544   2.151   3.220   5.780
  201TIP3   OH2  545   2.724   5.857   4.084
  201TIP3    H1  546   2.772   5.931   4.048
  201TIP3    H2  547   2.791   5.802   4.125
  202TIP3   OH2  548   6.806   1.579   4.115
  202TIP3    H1  549   6.880   1.566   4.056
  202TIP3    H2  550   6.807   1.502   4.172
  203TIP3   OH2  551   5.586   4.599   2.001
  203TIP3    H1  552   5.635   4.616   1.921
  203TIP3    H2  553   5.632   4.649   2.068
  204TIP3   OH2  554   2.828   6.711   6.130
  204TIP3    H1  555   2.852   6.690   6.040
  204TIP3    H2  556   2.804   6.628   6.169
  205TIP3   OH2  557   2.310   6.994   3.884
  205TIP3    H1  558   2.217   6.970   3.886
  205TIP3    H2  559   2.311   7.089   3.898
  206TIP3   OH2  560   6.177   3.106   4.949
  206TIP3    H1  561   6.260   3.058   4.950
  206TIP3    H2  562   6.199   3.191   4.911
  207TIP3   OH2  563   7.214   1.864   4.649
  207TIP3    H1  564   7.198   1.920   4.573
  207TIP3    H2  565   7.309   1.864   4.660
  208TIP3   OH2  566   3.249   7.370   4.015
  208TIP3    H1  567   3.286   7.321   3.942
  208TIP3    H2  568   3.257   7.462   3.990
  209TIP3   OH2  569   3.835   2.578   4.731
  209TIP3    H1  570   3.783   2.508   4.771
  209TIP3    H2  571   3.923   2.540   4.722
  210TIP3   OH2  572   2.132   3.799   5.863
  210TIP3    H1  573   2.188   3.772   5.790
  210TIP3    H2  574   2.091   3.880   5.834
  211TIP3   OH2  575   2.757   0.905   5.854
  211TIP3    H1  576   2.748   0.845   5.928
  211TIP3    H2  577   2.712   0.860   5.782
  212TIP3   OH2  578   7.312   1.253   5.154
  212TIP3    H1  579   7.270   1.339   5.150
  212TIP3    H2  580   7.400   1.267   5.118
  213TIP3   OH2  581   8.200   4.516   2.625
  213TIP3    H1  582   8.191   4.513   2.529
  213TIP3    H2  583   8.189   4.609   2.647
  214TIP3   OH2  584   3.633   2.401   3.205
  214TIP3    H1  585   3.546   2.379   3.239
  214TIP3    H2  586   3.620   2.484   3.159
  215TIP3   OH2  587   7.571   3.947   1.935
  215TIP3    H1  588   7.541   3.873   1.987
  215TIP3    H2  589   7.610   4.007   1.999
  216TIP3   OH2  590   1.509   1.489   4.522
  216TIP3    H1  591   1.517   1.490   4.617
  216TIP3    H2  592   1.451   1.562   4.502
  217TIP3   OH2  593   2.756   3.237   1.071
  217TIP3    H1  594   2.838   3.216   1.026
  217TIP3    H2  595   2.714   3.152   1.085
  218TIP3   OH2  596   3.497   0.775   2.118
  218TIP3    H1  597   3.473   0.698   2.170
  218TIP3    H2  598   3.450   0.764   2.035
  219TIP3   OH2  599   6.443   4.139   6.738
  219TIP3    H1  600   6.440   4.053   6.695
  219TIP3    H2  601   6.477   4.198   6.671
  220TIP3   OH2  602   1.731   4.163   6.528
  220TIP3    H1  603   1.729   4.251   6.566
  220TIP3    H2  604   1.650   4.156   6.478
  221TIP3   OH2  605   4.244   1.072   4.204
  221TIP3    H1  606   4.265   1.026   4.123
  221TIP3    H2  607   4.174   1.019   4.243
  222TIP3   OH2  608   3.828   2.089   3.024
  222TIP3    H1  609   3.858   2.161   3.078
  222TIP3    H2  610   3.779   2.032   3.084
  223TIP3   OH2  611   4.858   5.602   4.562
  223TIP3    H1  612   4.785   5.593   4.500
  223TIP3    H2  613   4.822   5.572   4.645
  224TIP3   OH2  614   1.146   0.875   1.748
  224TIP3    H1  615   1.080   0.806   1.747
  224TIP3    H2  616   1.230   0.829   1.748
  225TIP3   OH2  617   2.824   3.370   1.876
  225TIP3    H1  618   2.887   3.331   1.816
  225TIP3    H2  619   2.870   3.377   1.959
  226TIP3   OH2  620   5.999   1.194   4.985
  226TIP3    H1  621   5.981   1.280   4.945
  226TIP3    H2  622   5.996   1.133   4.911
  227TIP3   OH2  623   1.817   1.572   6.688
  227TIP3    H1  624   1.727   1.568   6.656
  227TIP3    H2  625   1.850   1.483   6.681
  228TIP3   OH2  626   1.412   2.930   6.108
  228TIP3    H1  627   1.341   2.958   6.165
  228TIP3    H2  628   1.452   3.012   6.078
  229TIP3   OH2  629   2.814   1.491   2.975
  229TIP3    H1  630   2.896   1.537   2.986
  229TIP3    H2  631   2.792   1.460   3.063
  230TIP3   OH2  632   1.463   6.374   5.992
  230TIP3    H1  633   1.372   6.378   5.964
  230TIP3    H2  634   1.512   6.420   5.923
  231TIP3   OH2  635   6.548   3.141   0.295
  231TIP3    H1  636   6.552   3.160   0.201
  231TIP3    H2  637   6.536   3.046   0.300
  232TIP3   OH2  638   4.584   6.956   2.047
  232TIP3    H1  639   4.590   7.012   2.124
  232TIP3    H2  640   4.638   7.000   1.981
  233TIP3   OH2  641   7.417   3.723   6.393
  233TIP3    H1  642   7.363   3.800   6.373
  233TIP3    H2  643   7.372   3.650   6.350
  234TIP3   OH2  644   6.602   4.272   0.552
  234TIP3    H1  645   6.543   4.345   0.535
  234TIP3    H2  646   6.545   4.196   0.558
  235TIP3   OH2  647   6.441   5.033   3.441
  235TIP3    H1  648   6.473   5.066   3.525
  235TIP3    H2  649   6.517   5.034   3.384
  236TIP3   OH2  650   7.424   2.691   4.759
  236TIP3    H1  651   7.340   2.645   4.759
  236TIP3    H2  652   7.453   2.690   4.668
  237TIP3   OH2  653   3.726   2.816   5.848
  237TIP3    H1  654   3.752   2.729   5.878
  237TIP3    H2  655   3.764   2.877   5.912
  238TIP3   OH2  656   2.359   6.449   3.777
  238TIP3    H1  657   2.417   6.525   3.786
  238TIP3    H2  658   2.280   6.474   3.826
  239TIP3   OH2  659   7.507   2.067   2.747
  239TIP3    H1  660   7.515   2.129   2.820
  239TIP3    H2  661   7.498   1.982   2.789
  240TIP3   OH2  662   2.038   5.884   1.552
  240TIP3    H1  663   1.959   5.871   1.604
  240TIP3    H2  664   2.107   5.903   1.615
  241TIP3   OH2  665   4.730   4.728   1.935
  241TIP3    H1  666   4.691   4.643   1.914
  241TIP3    H2  667   4.663   4.792   1.910
  242TIP3   OH2  668   7.851   2.082   1.648
  242TIP3    H1  669   7.906   2.157   1.672
  242TIP3    H2  670   7.773   2.121   1.610
  243TIP3   OH2  671   3.990   0.709   0.815
  243TIP3    H1  672   3.951   0.623   0.801
  243TIP3    H2  673   3.940   0.767   0.758
  244TIP3   OH2  674   0.047   7.693   2.303
  244TIP3    H1  675   0.054   7.660   2.393
  244TIP3    H2  676   0.080   7.783   2.308
  245TIP3   OH2  677   4.979   6.721   5.170
  245TIP3    H1  678   5.034   6.797   5.188
  245TIP3    H2  679   5.021   6.678   5.095
  246TIP3   OH2  680   2.902   2.879   2.291
  246TIP3    H1  681   2.955   2.957   2.276
  246TIP3    H2  682   2.958   2.822   2.344
  247TIP3   OH2  683   0.164   6.466   4.085
  247TIP3    H1  684   0.097   6.421   4.034
  247TIP3    H2  685   0.239   6.407   4.085
  248TIP3   OH2  686   3.223   2.196   2.099
  248TIP3    H1  687   3.261   2.244   2.025
  248TIP3    H2  688   3.280   2.218   2.173
  249TIP3   OH2  689   1.547   5.267   1.441
  249TIP3    H1  690   1.465   5.317   1.440
  249TIP3    H2  691   1.521   5.176   1.429
  250TIP3   OH2  692   2.598   0.078   4.882
  250TIP3    H1  693   2.558   0.016   4.944
  250TIP3    H2  694   2.682   0.038   4.859
  251TIP3   OH2  695   6.711   3.698   0.943
  251TIP3    H1  696   6.714   3.664   0.853
  251TIP3    H2  697   6.618   3.702   0.964
  252TIP3   OH2  698   2.154   5.253   4.343
  252TIP3    H1  699   2.152   5.344   4.372
  252TIP3    H2  700   2.063   5.225   4.343
  253TIP3   OH2  701   4.923   2.440   5.111
  253TIP3    H1  702   4.961   2.393   5.185
  253TIP3    H2  703   4.898   2.525   5.148
  254TIP3   OH2  704   7.073   4.568   1.934
  254TIP3    H1  705   7.124   4.533   2.007
  254TIP3    H2  706   7.111   4.526   1.857
  255TIP3   OH2  707   3.487   5.723   4.362
  255TIP3    H1  708   3.467   5.815   4.382
  255TIP3    H2  709   3.532   5.727   4.278
  256TIP3   OH2  710   6.199   6.528   2.686
  256TIP3    H1  711   6.184   6.622   2.688
  256TIP3    H2  712   6.185   6.500   2.776
  257TIP3   OH2  713   6.138   4.060   0.061
  257TIP3    H1  714   6.182   4.094   0.139
  257TIP3    H2  715   6.208   4.052  -0.005
  258TIP3   OH2  716   1.998   5.967   5.557
  258TIP3    H1  717   2.062   5.910   5.600
  258TIP3    H2  718   1.976   5.920   5.476
  259TIP3   OH2  719   7.183   4.798   1.771
  259TIP3    H1  720   7.106   4.741   1.781
  259TIP3    H2  721   7.214   4.810   1.861
  260TIP3   OH2  722   1.505   2.997   4.625
  260TIP3    H1  723   1.480   2.915   4.582
  260TIP3    H2  724   1.569   2.971   4.691
  261TIP3   OH2  725   5.289   2.465   0.029
  261TIP3    H1  726   5.231   2.393   0.055
  261TIP3    H2  727   5.291   2.461  -0.066
  262TIP3   OH2  728   6.091   0.130   0.092
  262TIP3    H1  729   6.075   0.178   0.173
  262TIP3    H2  730   6.004   0.103   0.063
  263TIP3   OH2  731   4.706   2.992   4.937
  263TIP3    H1  732   4.613   2.971   4.943
  263TIP3    H2  733   4.733   2.957   4.852
  264TIP3   OH2  734   1.803   0.166   0.349
  264TIP3    H1  735   1.714   0.200   0.347
  264TIP3    H2  736   1.851   0.218   0.284
  265TIP3   OH2  737   4.390   4.620   4.139
  265TIP3    H1  738   4.447   4.580   4.073
  265TIP3    H2  739   4.433   4.704   4.159
  266TIP3   OH2  740   7.513   2.105   3.173
  266TIP3    H1  741   7.495   2.012   3.187
  266TIP3    H2  742   7.560   2.132   3.253
  267TIP3   OH2  743   7.705   3.897   4.110
  267TIP3    H1  744   7.697   3.991   4.095
  267TIP3    H2  745   7.795   3.876   4.087
  268TIP3   OH2  746   0.007   4.715   3.002
  268TIP3    H1  747   0.053   4.771   3.064
  268TIP3    H2  748  -0.012   4.635   3.050
  269TIP3   OH2  749   5.418   6.712   0.081
  269TIP3    H1  750   5.513   6.703   0.074
  269TIP3    H2  751   5.404   6.762   0.162
  270TIP3   OH2  752   2.462   5.465   5.679
  270TIP3    H1  753   2.407   5.427   5.747
  270TIP3    H2  754   2.482   5.553   5.711
  271TIP3   OH2  755   6.077   0.233   0.351
  271TIP3    H1  756   6.057   0.324   0.326
  271TIP3    H2  757   6.101   0.238   0.443
  272TIP3   OH2  758   4.612   0.238   4.260
  272TIP3    H1  759   4.520   0.214   4.246
  272TIP3    H2  760   4.662   0.173   4.210
  273TIP3   OH2  761   6.964   3.762   2.287
  273TIP3    H1  762   6.987   3.705   2.213
  273TIP3    H2  763   7.037   3.823   2.294
  274TIP3   OH2  764   4.515   5.978   4.256
  274TIP3    H1  765   4.479   6.034   4.325
  274TIP3    H2  766   4.440   5.959   4.200
  275TIP3   OH2  767   5.723   1.686   6.120
  275TIP3    H1  768   5.642   1.634   6.119
  275TIP3    H2  769   5.772   1.655   6.044
  276TIP3   OH2  770   1.547   3.106   5.937
  276TIP3    H1  771   1.492   3.148   5.871
  276TIP3    H2  772   1.581   3.179   5.990
  277TIP3   OH2  773   5.236   7.739   3.756
  277TIP3    H1  774   5.194   7.781   3.681
  277TIP3    H2  775   5.316   7.702   3.721
  278TIP3   OH2  776   6.944   0.848   5.860
  278TIP3    H1  777   6.948   0.884   5.771
  278TIP3    H2  778   6.910   0.759   5.847
  279TIP3   OH2  779   5.186   1.685   1.401
  279TIP3    H1  780   5.243   1.609   1.387
  279TIP3    H2  781   5.191   1.702   1.495
  280TIP3   OH2  782   2.876   0.234   4.259
  280TIP3    H1  783   2.796   0.238   4.207
  280TIP3    H2  784   2.937   0.293   4.215
  281TIP3   OH2  785   1.389   5.641   5.425
  281TIP3    H1  786   1.356   5.730   5.435
  281TIP3    H2  787   1.479   5.645   5.458
  282TIP3   OH2  788   1.263   4.818   4.963
  282TIP3    H1  789   1.282   4.899   4.915
  282TIP3    H2  790   1.254   4.751   4.896
  283TIP3   OH2  791   0.065   1.535   1.721
  283TIP3    H1  792   0.007   1.467   1.687
  283TIP3    H2  793   0.114   1.492   1.791
  284TIP3   OH2  794   8.258   0.978   3.468
  284TIP3    H1  795   8.325   0.936   3.523
  284TIP3    H2  796   8.175   0.956   3.510
  285TIP3   OH2  797   2.631   4.897   0.811
  285TIP3    H1  798   2.660   4.807   0.794
  285TIP3    H2  799   2.711   4.949   0.805
  286TIP3   OH2  800   2.460   2.067   0.401
  286TIP3    H1  801   2.371   2.066   0.366
  286TIP3    H2  802   2.449   2.042   0.493
  287TIP3   OH2  803   2.538   7.154   6.685
  287TIP3    H1  804   2.570   7.130   6.599
  287TIP3    H2  805   2.549   7.075   6.738
  288TIP3   OH2  806   6.356   4.629   5.757
  288TIP3    H1  807   6.288   4.656   5.695
  288TIP3    H2  808   6.437   4.634   5.706
  289TIP3   OH2  809   6.603   7.359   0.256
  289TIP3    H1  810   6.642   7.384   0.173
  289TIP3    H2  811   6.656   7.286   0.287
  290TIP3   OH2  812   6.069   4.471   3.727
  290TIP3    H1  813   6.113   4.387   3.708
  290TIP3    H2  814   6.001   4.477   3.660
  291TIP3   OH2  815   3.735   1.792   6.761
  291TIP3    H1  816   3.689   1.867   6.800
  291TIP3    H2  817   3.672   1.720   6.767
  292TIP3   OH2  818   0.655   0.356   5.784
  292TIP3    H1  819   0.707   0.363   5.864
  292TIP3    H2  820   0.576   0.309   5.810
  293TIP3   OH2  821   1.080   6.019   1.914
  293TIP3    H1  822   1.116   5.933   1.892
  293TIP3    H2  823   1.155   6.078   1.914
  294TIP3   OH2  824   7.644   2.384   6.125
  294TIP3    H1  825   7.582   2.376   6.197
  294TIP3    H2  826   7.590   2.400   6.048
  295TIP3   OH2  827   4.421   0.502   3.998
  295TIP3    H1  828   4.449   0.459   4.079
  295TIP3    H2  829   4.481   0.468   3.931
  296TIP3   OH2  830   5.150   0.232   2.015
  296TIP3    H1  831   5.193   0.229   1.930
  296TIP3    H2  832   5.167   0.146   2.054
  297TIP3   OH2  833   1.269   6.210   1.364
  297TIP3    H1  834   1.200   6.265   1.326
  297TIP3    H2  835   1.294   6.151   1.293
  298TIP3   OH2  836   3.435   5.031   4.555
  298TIP3    H1  837   3.351   5.071   4.536
  298TIP3    H2  838   3.485   5.101   4.598
  299TIP3   OH2  839   3.828   3.496   4.251
  299TIP3    H1  840   3.894   3.520   4.187
  299TIP3    H2  841   3.746   3.491   4.201
  300TIP3   OH2  842   3.793   0.989   4.703
  300TIP3    H1  843   3.851   1.059   4.674
  300TIP3    H2  844   3.795   0.995   4.799
  301TIP3   OH2  845   3.595   1.332   0.312
  301TIP3    H1  846   3.623   1.422   0.326
  301TIP3    H2  847   3.592   1.293   0.400
  302TIP3   OH2  848   3.942   5.772   1.445
  302TIP3    H1  849   3.866   5.759   1.502
  302TIP3    H2  850   3.915   5.738   1.360
  303TIP3   OH2  851   5.511   5.617   6.010
  303TIP3    H1  852   5.606   5.626   6.003
  303TIP3    H2  853   5.482   5.594   5.922
  304TIP3   OH2  854   4.951   6.961   6.353
  304TIP3    H1  855   4.913   6.918   6.277
  304TIP3    H2  856   4.916   7.050   6.350
  305TIP3   OH2  857   4.842   1.155   0.757
  305TIP3    H1  858   4.832   1.062   0.779
  305TIP3    H2  859   4.793   1.200   0.825
  306TIP3   OH2  860   7.322   2.927   1.442
  306TIP3    H1  861   7.368   2.958   1.364
  306TIP3    H2  862   7.231   2.952   1.428
  307TIP3   OH2  863   0.949   2.387   6.729
  307TIP3    H1  864   0.891   2.317   6.700
  307TIP3    H2  865   0.891   2.460   6.747
  308TIP3   OH2  866   6.993   5.464   4.984
  308TIP3    H1  867   6.907   5.460   4.942
  308TIP3    H2  868   7.040   5.532   4.936
  309TIP3   OH2  869   4.435   0.344   1.485
  309TIP3    H1  870   4.387   0.263   1.467
  309TIP3    H2  871   4.427   0.395   1.405
  310TIP3   OH2  872   7.551   5.036   2.755
  310TIP3    H1  873   7.627   5.056   2.811
  310TIP3    H2  874   7.573   5.075   2.671
  311TIP3   OH2  875   3.626   4.680   1.816
  311TIP3    H1  876   3.696   4.732   1.778
  311TIP3    H2  877   3.576   4.742   1.870
  312TIP3   OH2  878   2.092   2.206   4.426
  312TIP3    H1  879   2.104   2.122   4.471
  312TIP3    H2  880   2.181   2.235   4.405
  313TIP3   OH2  881   3.474   4.798   3.359
  313TIP3    H1  882   3.417   4.725   3.336
  313TIP3    H2  883   3.510   4.774   3.445
  314TIP3   OH2  884   7.738   0.514   5.335
  314TIP3    H1  885   7.728   0.486   5.426
  314TIP3    H2  886   7.656   0.487   5.293
  315TIP3   OH2  887   4.432   6.907   6.420
  315TIP3    H1  888   4.358   6.856   6.385
  315TIP3    H2  889   4.509   6.866   6.381
  316TIP3   OH2  890   6.293   3.326   5.156
  316TIP3    H1  891   6.223   3.264   5.135
  316TIP3    H2  892   6.247   3.405   5.184
  317TIP3   OH2  893   3.344   5.622   6.286
  317TIP3    H1  894   3.281   5.693   6.299
  317TIP3    H2  895   3.306   5.568   6.217
  318TIP3   OH2  896   0.838   4.523   5.075
  318TIP3    H1  897   0.806   4.612   5.088
  318TIP3    H2  898   0.919   4.519   5.127
  319TIP3   OH2  899   6.337   5.917   5.909
  319TIP3    H1  900   6.327   5.929   6.004
  319TIP3    H2  901   6.273   5.851   5.886
  320TIP3   OH2  902   7.753   5.336   4.699
  320TIP3    H1  903   7.832   5.350   4.648
  320TIP3    H2  904   7.741   5.418   4.747
  321TIP3   OH2  905   4.019   7.199   2.395
  321TIP3    H1  906   4.085   7.168   2.333
  321TIP3    H2  907   4.044   7.289   2.414
  322TIP3   OH2  908   4.537   6.984   4.433
  322TIP3    H1  909   4.485   6.948   4.361
  322TIP3    H2  910   4.590   7.052   4.393
  323TIP3   OH2  911   2.684   5.026   4.411
  323TIP3    H1  912   2.633   5.046   4.489
  323TIP3    H2  913   2.662   4.936   4.390
  324TIP3   OH2  914   5.674   4.695   1.749
  324TIP3    H1  915   5.689   4.789   1.761
  324TIP3    H2  916   5.718   4.674   1.667
  325TIP3   OH2  917   0.794   0.715   6.707
  325TIP3    H1  918   0.738   0.752   6.775
  325TIP3    H2  919   0.882   0.747   6.727
  326TIP3   OH2  920   1.005   4.673   6.488
  326TIP3    H1  921   0.910   4.672   6.498
  326TIP3    H2  922   1.020   4.671   6.394
  327TIP3   OH2  923   2.629   0.142   1.236
  327TIP3    H1  924   2.625   0.230   1.200
  327TIP3    H2  925   2.592   0.086   1.167
  328TIP3   OH2  926   1.570   0.826   1.707
  328TIP3    H1  927   1.629   0.751   1.708
  328TIP3    H2  928   1.625   0.900   1.734
  329TIP3   OH2  929   6.777   5.447   5.834
  329TIP3    H1  930   6.789   5.514   5.902
  329TIP3    H2  931   6.813   5.486   5.755
  330TIP3   OH2  932   6.444   0.579   3.533
  330TIP3    H1  933   6.456   0.603   3.441
  330TIP3    H2  934   6.529   0.593   3.573
  331TIP3   OH2  935   0.612   6.748   6.108
  331TIP3    H1  936   0.616   6.681   6.040
  331TIP3    H2  937   0.622   6.700   6.190
  332TIP3   OH2  938   2.296   4.828   1.233
  332TIP3    H1  939   2.234   4.769   1.189
  332TIP3    H2  940   2.377   4.817   1.184
  333TIP3   OH2  941   6.097   5.518   2.256
  333TIP3    H1  942   6.048   5.437   2.269
  333TIP3    H2  943   6.032   5.587   2.267
  334TIP3   OH2  944   6.964   2.219   1.242
  334TIP3    H1  945   6.994   2.251   1.326
  334TIP3    H2  946   6.946   2.298   1.191
  335TIP3   OH2  947   5.299   7.706   0.056
  335TIP3    H1  948   5.322   7.719   0.148
  335TIP3    H2  949   5.208   7.679   0.058
  336TIP3   OH2  950   6.730   2.637   5.811
  336TIP3    H1  951   6.639   2.664   5.807
  336TIP3    H2  952   6.774   2.691   5.746
  337TIP3   OH2  953   0.071   5.230   1.207
  337TIP3    H1  954   0.073   5.150   1.260
  337TIP3    H2  955  -0.020   5.257   1.208
  338TIP3   OH2  956   3.299   7.789   3.526
  338TIP3    H1  957   3.254   7.764   3.606
  338TIP3    H2  958   3.313   7.883   3.534
  339TIP3   OH2  959   2.645   0.349   1.868
  339TIP3    H1  960   2.651   0.413   1.939
  339TIP3    H2  961   2.674   0.396   1.790
  340TIP3   OH2  962   6.475   5.607   2.376
  340TIP3    H1  963   6.419   5.573   2.445
  340TIP3    H2  964   6.563   5.579   2.401
  341TIP3   OH2  965   8.230   5.445   5.740
  341TIP3    H1  966   8.153   5.465   5.688
  341TIP3    H2  967   8.196   5.403   5.819
  342TIP3   OH2  968   6.687   4.766   5.150
  342TIP3    H1  969   6.781   4.750   5.150
  342TIP3    H2  970   6.649   4.684   5.117
  343TIP3   OH2  971   7.278   1.729   4.982
  343TIP3    H1  972   7.187   1.709   4.961
  343TIP3    H2  973   7.296   1.677   5.061
  344TIP3   OH2  974   0.957   0.978   6.724
  344TIP3    H1  975   0.939   0.999   6.633
  344TIP3    H2  976   1.010   0.899   6.721
  345TIP3   OH2  977   6.706   2.739   1.017
  345TIP3    H1  978   6.691   2.829   1.044
  345TIP3    H2  979   6.748   2.697   1.093
  346TIP3   OH2  980   1.537   2.656   5.974
  346TIP3    H1  981   1.456   2.673   6.022
  346TIP3    H2  982   1.531   2.563   5.949
  347TIP3   OH2  983   6.079   4.240   2.300
  347TIP3    H1  984   6.043   4.279   2.379
  347TIP3    H2  985   6.170   4.270   2.297
  348TIP3   OH2  986   3.878   0.375   5.879
  348TIP3    H1  987   3.897   0.325   5.800
  348TIP3    H2  988   3.962   0.411   5.906
  349TIP3   OH2  989   8.027   2.806   2.961
  349TIP3    H1  990   8.120   2.803   2.936
  349TIP3    H2  991   8.004   2.898   2.958
  350TIP3   OH2  992   1.280   4.406   4.091
  350TIP3    H1  993   1.303   4.324   4.046
  350TIP3    H2  994   1.354   4.422   4.150
  351TIP3   OH2  995   7.368   7.283   2.791
  351TIP3    H1  996   7.341   7.227   2.864
  351TIP3    H2  997   7.400   7.222   2.724
  352TIP3   OH2  998   7.523   5.904   6.338
  352TIP3    H1  999   7.564   5.928   6.421
  352TIP3    H2 1000   7.434   5.938   6.345
  353TIP3   OH2 1001   6.819   1.208   0.415
  353TIP3    H1 1002   6.837   1.198   0.509
  353TIP3    H2 1003   6.856   1.293   0.393
  354TIP3   OH2 1004   8.339   6.346   2.037
  354TIP3    H1 1005   8.311   6.379   1.952
  354TIP3    H2 1006   8.258   6.332   2.085
  355TIP3   OH2 1007   0.095   2.381   3.226
  355TIP3    H1 1008   0.079   2.298   3.271
  355TIP3    H2 1009   0.118   2.443   3.295
  356TIP3   OH2 1010   7.341   2.988   2.385
  356TIP3    H1 1011   7.408   2.971   2.451
  356TIP3    H2 1012   7.271   2.926   2.405
  357TIP3   OH2 1013   1.972   2.002   5.455
  357TIP3    H1 1014   1.999   1.935   5.518
  357TIP3    H2 1015   2.034   2.073   5.468
  358TIP3   OH2 1016   3.653   3.359   3.156
  358TIP3    H1 1017   3.591   3.422   3.118
  358TIP3    H2 1018   3.618   3.340   3.242
  359TIP3   OH2 1019   1.366   2.321   0.768
  359TIP3    H1 1020   1.323   2.402   0.743
  359TIP3    H2 1021   1.453   2.348   0.797
  360TIP3   OH2 1022   2.937   2.583   4.500
  360TIP3    H1 1023   2.887   2.570   4.581
  360TIP3    H2 1024   2.992   2.505   4.494
  361TIP3   OH2 1025   5.255   3.418   0.412
  361TIP3    H1 1026   5.259   3.356   0.484
  361TIP3    H2 1027   5.341   3.412   0.370
  362TIP3   OH2 1028   5.835   5.971   5.299
  362TIP3    H1 1029   5.744   5.955   5.277
  362TIP3    H2 1030   5.882   5.964   5.216
  363TIP3   OH2 1031   2.826   2.453   3.841
  363TIP3    H1 1032   2.849   2.430   3.751
  363TIP3    H2 1033   2.761   2.522   3.832
  364TIP3   OH2 1034   4.867   5.392   3.161
  364TIP3    H1 1035   4.938   5.328   3.162
  364TIP3    H2 1036   4.888   5.451   3.089
  365TIP3   OH2 1037   3.101   7.278   0.672
  365TIP3    H1 1038   3.142   7.197   0.702
  365TIP3    H2 1039   3.124   7.343   0.739
  366TIP3   OH2 1040   1.348   0.371   0.244
  366TIP3    H1 1041   1.266   0.337   0.210
  366TIP3    H2 1042   1.337   0.466   0.244
  367TIP3   OH2 1043   1.490   6.072   1.952
  367TIP3    H1 1044   1.439   6.000   1.915
  367TIP3    H2 1045   1.551   6.096   1.882
  368TIP3   OH2 1046   1.257   1.742   3.671
  368TIP3    H1 1047   1.335   1.730   3.618
  368TIP3    H2 1048   1.221   1.654   3.682
  369TIP3   OH2 1049   3.556   5.574   1.105
  369TIP3    H1 1050   3.589   5.624   1.180
  369TIP3    H2 1051   3.626   5.513   1.084
  370TIP3   OH2 1052   2.866   0.178   0.195
  370TIP3    H1 1053   2.880   0.230   0.116
  370TIP3    H2 1054   2.771   0.166   0.199
  371TIP3   OH2 1055   1.860   1.921   2.706
  371TIP3    H1 1056   1.787   1.957   2.657
  371TIP3    H2 1057   1.835   1.830   2.722
  372TIP3   OH2 1058   6.611   7.609   4.115
  372TIP3    H1 1059   6.543   7.549   4.146
  372TIP3    H2 1060   6.629   7.665   4.191
  373TIP3   OH2 1061   1.869   0.806   4.915
  373TIP3    H1 1062   1.871   0.866   4.989
  373TIP3    H2 1063   1.958   0.770   4.910
  374TIP3   OH2 1064   2.494   1.195   6.387
  374TIP3    H1 1065   2.559   1.250   6.431
  374TIP3    H2 1066   2.416   1.250   6.380
  375TIP3   OH2 1067   1.845   4.907   2.026
  375TIP3    H1 1068   1.928   4.931   1.984
  375TIP3    H2 1069   1.857   4.929   2.118
  376TIP3   OH2 1070   7.413   7.244   3.713
  376TIP3    H1 1071   7.472   7.180   3.754
  376TIP3    H2 1072   7.400   7.311   3.780
  377TIP3   OH2 1073   7.344   1.985   2.184
  377TIP3    H1 1074   7.331   1.912   2.244
  377TIP3    H2 1075   7.407   1.952   2.120
  378TIP3   OH2 1076   7.570   6.847   1.035
  378TIP3    H1 1077   7.521   6.902   0.974
  378TIP3    H2 1078   7.609   6.779   0.980
  379TIP3   OH2 1079   6.347   0.864   5.889
  379TIP3    H1 1080   6.367   0.913   5.809
  379TIP3    H2 1081   6.256   0.887   5.909
  380TIP3   OH2 1082   7.571   3.656   2.699
  380TIP3    H1 1083   7.516   3.718   2.746
  380TIP3    H2 1084   7.510   3.596   2.657
  381TIP3   OH2 1085   4.484   4.516   5.151
  381TIP3    H1 1086   4.569   4.537   5.189
  381TIP3    H2 1087   4.424   4.513   5.226
  382TIP3   OH2 1088   2.780   5.785   1.681
  382TIP3    H1 1089   2.756   5.697   1.652
  382TIP3    H2 1090   2.876   5.789   1.672
  383TIP3   OH2 1091   7.272   2.334   2.863
  383TIP3    H1 1092   7.229   2.345   2.947
  383TIP3    H2 1093   7.366   2.335   2.883
  384TIP3   OH2 1094   2.768   2.177   6.397
  384TIP3    H1 1095   2.724   2.261   6.385
  384TIP3    H2 1096   2.814   2.185   6.480
  385TIP3   OH2 1097   8.124   6.600   4.138
  385TIP3    H1 1098   8.167   6.570   4.218
  385TIP3    H2 1099   8.181   6.669   4.105
  386TIP3   OH2 1100   3.357   4.527   5.702
  386TIP3    H1 1101   3.368   4.524   5.797
  386TIP3    H2 1102   3.446   4.538   5.668
  387TIP3   OH2 1103   0.875   0.119   6.021
  387TIP3    H1 1104   0.830   0.082   5.945
  387TIP3    H2 1105   0.840   0.070   6.096
  388TIP3   OH2 1106   4.253   6.878   2.061
  388TIP3    H1 1107   4.206   6.830   1.993
  388TIP3    H2 1108   4.343   6.883   2.030
  389TIP3   OH2 1109   2.001   2.192   6.582
  389TIP3    H1 1110   1.990   2.267   6.640
  389TIP3    H2 1111   1.993   2.116   6.639
  390TIP3   OH2 1112   1.553   0.317   1.231
  390TIP3    H1 1113   1.491   0.247   1.211
  390TIP3    H2 1114   1.613   0.317   1.156
  391TIP3   OH2 1115   0.875   4.122   4.277
  391TIP3    H1 1116   0.822   4.043   4.265
  391TIP3    H2 1117   0.873   4.137   4.372
  392TIP3   OH2 1118   6.009   2.812   3.974
  392TIP3    H1 1119   6.084   2.815   4.034
  392TIP3    H2 1120   5.946   2.755   4.018
  393TIP3   OH2 1121   2.314   0.418   4.627
  393TIP3    H1 1122   2.369   0.494   4.609
  393TIP3    H2 1123   2.227   0.454   4.640
  394TIP3   OH2 1124   3.670   4.359   3.978
  394TIP3    H1 1125   3.647   4.395   4.063
  394TIP3    H2 1126   3.695   4.268   3.996
  395TIP3   OH2 1127   5.533   4.254   4.299
  395TIP3    H1 1128   5.555   4.171   4.342
  395TIP3    H2 1129   5.612   4.307   4.308
  396TIP3   OH2 1130   6.376   7.346   0.125
  396TIP3    H1 1131   6.393   7.409   0.055
  396TIP3    H2 1132   6.450   7.355   0.185
  397TIP3   OH2 1133   7.414   0.681   4.143
  397TIP3    H1 1134   7.341   0.726   4.101
  397TIP3    H2 1135   7.459   0.636   4.071
  398TIP3   OH2 1136   5.118   0.127   1.321
  398TIP3    H1 1137   5.092   0.202   1.375
  398TIP3    H2 1138   5.192   0.088   1.369
  399TIP3   OH2 1139   0.076   1.232   4.541
  399TIP3    H1 1140   0.104   1.171   4.610
  399TIP3    H2 1141   0.149   1.294   4.534
  400TIP3   OH2 1142   6.904   2.836   4.145
  400TIP3    H1 1143   6.941   2.877   4.223
  400TIP3    H2 1144   6.979   2.795   4.102
  401TIP3   OH2 1145   6.112   4.535   4.901
  401TIP3    H1 1146   6.053   4.498   4.966
  401TIP3    H2 1147   6.055   4.583   4.841
  402TIP3   OH2 1148   6.005   7.580   5.299
  402TIP3    H1 1149   6.028   7.519   5.369
  402TIP3    H2 1150   5.991   7.524   5.222
  403TIP3   OH2 1151   6.084   2.183   2.883
  403TIP3    H1 1152   6.088   2.277   2.865
  403TIP3    H2 1153   6.115   2.141   2.803
  404TIP3   OH2 1154   5.670   1.922   1.761
  404TIP3    H1 1155   5.676   1.989   1.829
  404TIP3    H2 1156   5.595   1.949   1.708
  405TIP3   OH2 1157   6.469   4.500   0.493
  405TIP3    H1 1158   6.496   4.589   0.516
  405TIP3    H2 1159   6.373   4.504   0.486
  406TIP3   OH2 1160   2.723   6.997   4.934
  406TIP3    H1 1161   2.810   7.021   4.968
  406TIP3    H2 1162   2.662   7.033   4.997
  407TIP3   OH2 1163   1.169   3.032   3.827
  407TIP3    H1 1164   1.237   3.100   3.827
  407TIP3    H2 1165   1.201   2.966   3.767
  408TIP3   OH2 1166   0.666   2.450   1.859
  408TIP3    H1 1167   0.688   2.468   1.950
  408TIP3    H2 1168   0.730   2.500   1.808
  409TIP3   OH2 1169   7.100   5.710   0.859
  409TIP3    H1 1170   7.048   5.631   0.873
  409TIP3    H2 1171   7.133   5.732   0.946
  410TIP3   OH2 1172   5.428   5.761   1.640
  410TIP3    H1 1173   5.381   5.759   1.556
  410TIP3    H2 1174   5.497   5.696   1.630
  411TIP3   OH2 1175   7.608   3.787   5.492
  411TIP3    H1 1176   7.558   3.721   5.444
  411TIP3    H2 1177   7.674   3.817   5.429
  412TIP3   OH2 1178   5.677   6.010   0.206
  412TIP3    H1 1179   5.645   5.925   0.235
  412TIP3    H2 1180   5.623   6.073   0.254
  413TIP3   OH2 1181   4.753   2.783   0.313
  413TIP3    H1 1182   4.672   2.737   0.290
  413TIP3    H2 1183   4.768   2.761   0.405
  414TIP3   OH2 1184   5.019   4.602   5.403
  414TIP3    H1 1185   4.976   4.680   5.368
  414TIP3    H2 1186   5.021   4.615   5.497
  415TIP3   OH2 1187   3.825   3.103   0.755
  415TIP3    H1 1188   3.736   3.128   0.730
  415TIP3    H2 1189   3.813   3.047   0.832
  416TIP3   OH2 1190   0.858   7.047   0.873
  416TIP3    H1 1191   0.880   7.026   0.783
  416TIP3    H2 1192   0.812   6.970   0.905
  417TIP3   OH2 1193   7.243   0.523   3.620
  417TIP3    H1 1194   7.287   0.572   3.550
  417TIP3    H2 1195   7.260   0.431   3.599
  418TIP3   OH2 1196   3.713   1.074   6.006
  418TIP3    H1 1197   3.678   1.070   6.095
  418TIP3    H2 1198   3.807   1.087   6.018
  419TIP3   OH2 1199   0.076   4.273   6.729
  419TIP3    H1 1200   0.010   4.260   6.661
  419TIP3    H2 1201   0.065   4.363   6.757
  420TIP3   OH2 1202   2.661   0.640   2.391
  420TIP3    H1 1203   2.671   0.735   2.395
  420TIP3    H2 1204   2.599   0.625   2.320
  421TIP3   OH2 1205   4.089   2.841   1.182
  421TIP3    H1 1206   4.130   2.879   1.104
  421TIP3    H2 1207   3.995   2.847   1.165
  422TIP3   OH2 1208   1.906   0.525   5.139
  422TIP3    H1 1209   1.863   0.555   5.059
  422TIP3    H2 1210   1.987   0.484   5.109
  423TIP3   OH2 1211   1.696   7.128   2.267
  423TIP3    H1 1212   1.761   7.062   2.242
  423TIP3    H2 1213   1.729   7.161   2.351
  424TIP3   OH2 1214   7.487   3.967   0.282
  424TIP3    H1 1215   7.427   3.943   0.353
  424TIP3    H2 1216   7.491   3.889   0.227
  425TIP3   OH2 1217   6.766   7.345   6.658
  425TIP3    H1 1218   6.718   7.326   6.738
  425TIP3    H2 1219   6.803   7.261   6.631
  426TIP3   OH2 1220   6.705   7.126   1.225
  426TIP3    H1 1221   6.682   7.043   1.266
  426TIP3    H2 1222   6.775   7.162   1.280
  427TIP3   OH2 1223   1.216   7.064   4.870
  427TIP3    H1 1224   1.266   7.125   4.924
  427TIP3    H2 1225   1.125   7.081   4.893
  428TIP3   OH2 1226   0.479   5.842   2.874
  428TIP3    H1 1227   0.385   5.856   2.860
  428TIP3    H2 1228   0.494   5.751   2.848
  429TIP3   OH2 1229   0.471   1.183   4.219
  429TIP3    H1 1230   0.381   1.214   4.236
  429TIP3    H2 1231   0.460   1.109   4.160
  430TIP3   OH2 1232   7.448   7.833   6.396
  430TIP3    H1 1233   7.369   7.852   6.447
  430TIP3    H2 1234   7.449   7.738   6.388
  431TIP3   OH2 1235   0.832   4.067   3.452
  431TIP3    H1 1236   0.838   3.983   3.497
  431TIP3    H2 1237   0.853   4.132   3.519
  432TIP3   OH2 1238   6.702   1.000   4.562
  432TIP3    H1 1239   6.653   1.079   4.581
  432TIP3    H2 1240   6.756   0.985   4.639
  433TIP3   OH2 1241   7.385   6.450   4.604
  433TIP3    H1 1242   7.334   6.465   4.684
  433TIP3    H2 1243   7.320   6.445   4.535
  434TIP3   OH2 1244   5.754   1.300   2.215
  434TIP3    H1 1245   5.734   1.383   2.173
  434TIP3    H2 1246   5.677   1.245   2.198
  435TIP3   OH2 1247   5.846   6.375   6.369
  435TIP3    H1 1248   5.793   6.444   6.330
  435TIP3    H2 1249   5.813   6.293   6.331
  436TIP3   OH2 1250  -0.022   6.378   0.247
  436TIP3    H1 1251   0.031   6.454   0.222
  436TIP3    H2 1252   0.016   6.306   0.197
  437TIP3   OH2 1253   8.178   5.527   6.348
  437TIP3    H1 1254   8.218   5.583   6.282
  437TIP3    H2 1255   8.240   5.526   6.420
  438TIP3   OH2 1256   4.452   1.258   5.129
  438TIP3    H1 1257   4.396   1.278   5.054
  438TIP3    H2 1258   4.466   1.343   5.171
  439TIP3   OH2 1259   1.653   3.883   0.554
  439TIP3    H1 1260   1.591   3.846   0.492
  439TIP3    H2 1261   1.710   3.939   0.502
  440TIP3   OH2 1262   3.967   7.599   1.021
  440TIP3    H1 1263   3.896   7.565   0.967
  440TIP3    H2 1264   4.016   7.657   0.963
  441TIP3   OH2 1265   2.092   0.212   3.722
  441TIP3    H1 1266   2.140   0.223   3.804
  441TIP3    H2 1267   2.160   0.212   3.655
  442TIP3   OH2 1268   7.096   4.086   1.813
  442TIP3    H1 1269   7.110   4.148   1.885
  442TIP3    H2 1270   7.124   4.002   1.848
  443TIP3   OH2 1271   2.624   2.081   3.407
  443TIP3    H1 1272   2.701   2.132   3.381
  443TIP3    H2 1273   2.554   2.146   3.417
  444TIP3   OH2 1274   7.010   7.385   2.877
  444TIP3    H1 1275   6.917   7.405   2.892
  444TIP3    H2 1276   7.058   7.453   2.925
  445TIP3   OH2 1277   3.210   6.701   2.638
  445TIP3    H1 1278   3.289   6.657   2.608
  445TIP3    H2 1279   3.236   6.744   2.720
  446TIP3   OH2 1280   2.293   1.815   5.597
  446TIP3    H1 1281   2.297   1.804   5.502
  446TIP3    H2 1282   2.200   1.824   5.617
  447TIP3   OH2 1283   5.029   7.196   1.968
  447TIP3    H1 1284   5.085   7.145   2.027
  447TIP3    H2 1285   5.084   7.213   1.891
  448TIP3   OH2 1286   3.307   1.736   3.786
  448TIP3    H1 1287   3.235   1.755   3.726
  448TIP3    H2 1288   3.292   1.796   3.860
  449TIP3   OH2 1289   4.501   7.206   6.254
  449TIP3    H1 1290   4.427   7.201   6.193
  449TIP3    H2 1291   4.461   7.202   6.341
  450TIP3   OH2 1292   7.396   5.829   5.887
  450TIP3    H1 1293   7.444   5.868   5.814
  450TIP3    H2 1294   7.414   5.735   5.880
  451TIP3   OH2 1295   4.737   6.170   5.367
  451TIP3    H1 1296   4.817   6.143   5.322
  451TIP3    H2 1297   4.706   6.245   5.317
  452TIP3   OH2 1298   5.693   4.336   2.701
  452TIP3    H1 1299   5.782   4.371   2.695
  452TIP3    H2 1300   5.684   4.279   2.624
  453TIP3   OH2 1301   2.970   1.274   1.229
  453TIP3    H1 1302   3.023   1.338   1.182
  453TIP3    H2 1303   2.946   1.208   1.163
  454TIP3   OH2 1304   4.911   6.201   1.143
  454TIP3    H1 1305   4.822   6.216   1.174
  454TIP3    H2 1306   4.942   6.288   1.116
  455TIP3   OH2 1307   2.329   5.232   3.350
  455TIP3    H1 1308   2.245   5.234   3.303
  455TIP3    H2 1309   2.383   5.171   3.300
  456TIP3   OH2 1310   5.584   0.376   1.228
  456TIP3    H1 1311   5.659   0.319   1.206
  456TIP3    H2 1312   5.540   0.331   1.299
  457TIP3   OH2 1313   0.919   0.860   3.762
  457TIP3    H1 1314   0.925   0.766   3.743
  457TIP3    H2 1315   0.925   0.902   3.677
  458TIP3   OH2 1316   1.456   3.982   1.819
  458TIP3    H1 1317   1.431   3.966   1.910
  458TIP3    H2 1318   1.438   4.075   1.805
  459TIP3   OH2 1319   0.388   5.988   1.359
  459TIP3    H1 1320   0.436   5.998   1.441
  459TIP3    H2 1321   0.420   6.059   1.304
  460TIP3   OH2 1322   0.678   0.379   0.713
  460TIP3    H1 1323   0.636   0.333   0.786
  460TIP3    H2 1324   0.635   0.464   0.710
  461TIP3   OH2 1325   2.865   2.915   1.925
  461TIP3    H1 1326   2.823   2.829   1.932
  461TIP3    H2 1327   2.958   2.897   1.935
  462TIP3   OH2 1328   4.458   2.923   5.658
  462TIP3    H1 1329   4.422   2.907   5.745
  462TIP3    H2 1330   4.552   2.932   5.672
  463TIP3   OH2 1331   5.979   7.370   0.621
  463TIP3    H1 1332   5.962   7.455   0.661
  463TIP3    H2 1333   5.930   7.308   0.675
  464TIP3   OH2 1334   6.346   4.927   2.106
  464TIP3    H1 1335   6.280   4.996   2.114
  464TIP3    H2 1336   6.314   4.871   2.036
  465TIP3   OH2 1337   2.184   1.204   3.774
  465TIP3    H1 1338   2.100   1.209   3.729
  465TIP3    H2 1339   2.226   1.126   3.738
  466TIP3   OH2 1340   6.176   1.369   0.156
  466TIP3    H1 1341   6.259   1.407   0.126
  466TIP3    H2 1342   6.151   1.309   0.085
  467TIP3   OH2 1343   7.370   5.475   0.131
  467TIP3    H1 1344   7.420   5.400   0.161
  467TIP3    H2 1345   7.396   5.488   0.040
  468TIP3   OH2 1346   1.160   5.048   5.099
  468TIP3    H1 1347   1.071   5.068   5.127
  468TIP3    H2 1348   1.160   4.953   5.087
  469TIP3   OH2 1349   4.382   2.758   5.907
  469TIP3    H1 1350   4.431   2.677   5.891
  469TIP3    H2 1351   4.299   2.746   5.860
  470TIP3   OH2 1352   1.510   3.437   3.119
  470TIP3    H1 1353   1.441   3.372   3.106
  470TIP3    H2 1354   1.559   3.405   3.195
  471TIP3   OH2 1355   4.046   3.958   6.320
  471TIP3    H1 1356   4.119   3.939   6.262
  471TIP3    H2 1357   4.036   3.879   6.373
  472TIP3   OH2 1358   8.169   7.853   0.198
  472TIP3    H1 1359   8.133   7.835   0.285
  472TIP3    H2 1360   8.164   7.769   0.152
  473TIP3   OH2 1361   3.037   1.762   1.882
  473TIP3    H1 1362   3.100   1.832   1.866
  473TIP3    H2 1363   3.058   1.729   1.970
  474TIP3   OH2 1364   7.839   0.979   1.714
  474TIP3    H1 1365   7.838   0.928   1.796
  474TIP3    H2 1366   7.855   1.069   1.742
  475TIP3   OH2 1367   2.466   3.731   3.707
  475TIP3    H1 1368   2.385   3.717   3.658
  475TIP3    H2 1369   2.506   3.644   3.713
  476TIP3   OH2 1370   5.375   6.965   1.188
  476TIP3    H1 1371   5.437   6.976   1.115
  476TIP3    H2 1372   5.391   7.040   1.245
  477TIP3   OH2 1373   6.613   2.872   4.480
  477TIP3    H1 1374   6.530   2.887   4.525
  477TIP3    H2 1375   6.680   2.895   4.544
  478TIP3   OH2 1376   6.883   3.876   1.981
  478TIP3    H1 1377   6.809   3.925   2.016
  478TIP3    H2 1378   6.948   3.944   1.959
  479TIP3   OH2 1379   7.817   1.785   2.514
  479TIP3    H1 1380   7.799   1.692   2.532
  479TIP3    H2 1381   7.733   1.820   2.485
  480TIP3   OH2 1382   8.059   7.491   2.415
  480TIP3    H1 1383   7.968   7.466   2.402
  480TIP3    H2 1384   8.109   7.430   2.361
  481TIP3   OH2 1385   2.009   3.279   3.164
  481TIP3    H1 1386   2.023   3.364   3.121
  481TIP3    H2 1387   1.932   3.242   3.120
  482TIP3   OH2 1388   5.496   2.581   3.511
  482TIP3    H1 1389   5.531   2.519   3.447
  482TIP3    H2 1390   5.452   2.526   3.576
  483TIP3   OH2 1391   4.169   5.925   1.101
  483TIP3    H1 1392   4.140   5.993   1.162
  483TIP3    H2 1393   4.151   5.961   1.014
  484TIP3   OH2 1394   4.119   1.279   3.798
  484TIP3    H1 1395   4.075   1.270   3.714
  484TIP3    H2 1396   4.073   1.219   3.856
  485TIP3   OH2 1397   5.127   4.193   5.626
  485TIP3    H1 1398   5.064   4.165   5.560
  485TIP3    H2 1399   5.075   4.239   5.692
  486TIP3   OH2 1400   3.289   2.177   6.641
  486TIP3    H1 1401   3.355   2.241   6.613
  486TIP3    H2 1402   3.330   2.092   6.628
  487TIP3   OH2 1403   5.201   6.086   1.487
  487TIP3    H1 1404   5.205   6.180   1.467
  487TIP3    H2 1405   5.165   6.046   1.407
  488TIP3   OH2 1406   6.323   2.990   1.643
  488TIP3    H1 1407   6.328   3.039   1.725
  488TIP3    H2 1408   6.405   2.942   1.638
  489TIP3   OH2 1409   1.780   5.301   3.006
  489TIP3    H1 1410   1.716   5.246   2.960
  489TIP3    H2 1411   1.736   5.386   3.015
  490TIP3   OH2 1412   1.700   2.848   4.767
  490TIP3    H1 1413   1.786   2.845   4.808
  490TIP3    H2 1414   1.647   2.787   4.818
  491TIP3   OH2 1415   3.342   2.973   0.139
  491TIP3    H1 1416   3.368   2.888   0.103
  491TIP3    H2 1417   3.298   3.017   0.066
  492TIP3   OH2 1418   4.104   2.436   2.449
  492TIP3    H1 1419   4.096   2.387   2.531
  492TIP3    H2 1420   4.017   2.430   2.409
  493TIP3   OH2 1421   5.447   7.376   3.205
  493TIP3    H1 1422   5.523   7.319   3.195
  493TIP3    H2 1423   5.482   7.458   3.240
  494TIP3   OH2 1424   1.819   7.039   3.789
  494TIP3    H1 1425   1.731   7.008   3.767
  494TIP3    H2 1426   1.858   7.060   3.704
  495TIP3   OH2 1427   0.854   1.165   0.105
  495TIP3    H1 1428   0.768   1.162   0.148
  495TIP3    H2 1429   0.914   1.123   0.166
  496TIP3   OH2 1430   3.071   7.133   4.762
  496TIP3    H1 1431   2.995   7.192   4.759
  496TIP3    H2 1432   3.146   7.191   4.750
  497TIP3   OH2 1433   4.684   1.452   0.369
  497TIP3    H1 1434   4.679   1.519   0.438
  497TIP3    H2 1435   4.731   1.380   0.410
  498TIP3   OH2 1436   6.593   1.978   6.065
  498TIP3    H1 1437   6.501   1.969   6.092
  498TIP3    H2 1438   6.590   1.980   5.970
  499TIP3   OH2 1439   4.302   3.811   1.613
  499TIP3    H1 1440   4.312   3.905   1.631
  499TIP3    H2 1441   4.297   3.771   1.700
  500TIP3   OH2 1442   0.860   4.451   2.067
  500TIP3    H1 1443   0.875   4.379   2.005
  500TIP3    H2 1444   0.934   4.445   2.128
  501TIP3   OH2 1445   2.803   4.727   3.028
  501TIP3    H1 1446   2.884   4.764   3.064
  501TIP3    H2 1447   2.743   4.725   3.102
  502TIP3   OH2 1448   2.311   5.229   5.445
  502TIP3    H1 1449   2.231   5.278   5.426
  502TIP3    H2 1450   2.315   5.226   5.541
  503TIP3   OH2 1451   5.252   6.359   2.363
  503TIP3    H1 1452   5.341   6.340   2.391
  503TIP3    H2 1453   5.256   6.357   2.267
  504TIP3   OH2 1454   1.651   1.550   2.230
  504TIP3    H1 1455   1.599   1.629   2.219
  504TIP3    H2 1456   1.703   1.543   2.151
  505TIP3   OH2 1457   2.176   5.833   5.729
  505TIP3    H1 1458   2.201   5.793   5.812
  505TIP3    H2 1459   2.257   5.868   5.694
  506TIP3   OH2 1460   4.811   6.799   4.588
  506TIP3    H1 1461   4.743   6.793   4.655
  506TIP3    H2 1462   4.766   6.774   4.507
  507TIP3   OH2 1463   0.063   5.016   1.713
  507TIP3    H1 1464  -0.011   5.035   1.770
  507TIP3    H2 1465   0.043   4.930   1.677
  508TIP3   OH2 1466   0.306   7.737   0.751
  508TIP3    H1 1467   0.370   7.669   0.729
  508TIP3    H2 1468   0.319   7.751   0.845
  509TIP3   OH2 1469   5.394   7.235   5.386
  509TIP3    H1 1470   5.301   7.233   5.363
  509TIP3    H2 1471   5.439   7.244   5.302
  510TIP3   OH2 1472   1.396   0.218   5.942
  510TIP3    H1 1473   1.340   0.214   6.020
  510TIP3    H2 1474   1.465   0.154   5.960
  511TIP3   OH2 1475   4.785   2.897   4.694
  511TIP3    H1 1476   4.788   2.808   4.731
  511TIP3    H2 1477   4.754   2.885   4.605
  512TIP3   OH2 1478   4.111   6.710   6.015
  512TIP3    H1 1479   4.115   6.615   6.030
  512TIP3    H2 1480   4.029   6.723   5.967
  513TIP3   OH2 1481   7.328   4.936   1.566
  513TIP3    H1 1482   7.300   4.905   1.652
  513TIP3    H2 1483   7.246   4.946   1.516
  514TIP3   OH2 1484   8.134   4.804   0.896
  514TIP3    H1 1485   8.192   4.805   0.819
  514TIP3    H2 1486   8.084   4.723   0.887
  515TIP3   OH2 1487   5.456   5.954   6.450
  515TIP3    H1 1488   5.508   6.032   6.473
  515TIP3    H2 1489   5.506   5.881   6.486
  516TIP3   OH2 1490   3.959   5.231   5.389
  516TIP3    H1 1491   3.957   5.215   5.295
  516TIP3    H2 1492   3.957   5.144   5.428
  517TIP3   OH2 1493   4.208   3.716   4.316
  517TIP3    H1 1494   4.186   3.809   4.318
  517TIP3    H2 1495   4.262   3.702   4.394
  518TIP3   OH2 1496   6.268   5.564   4.464
  518TIP3    H1 1497   6.350   5.548   4.417
  518TIP3    H2 1498   6.265   5.496   4.532
  519TIP3   OH2 1499   2.502   6.386   0.103
  519TIP3    H1 1500   2.582   6.425   0.138
  519TIP3    H2 1501   2.437   6.401   0.172
  520TIP3   OH2 1502   1.377   6.647   2.856
  520TIP3    H1 1503   1.412   6.571   2.901
  520TIP3    H2 1504   1.408   6.639   2.766
  521TIP3   OH2 1505   2.225   2.008   3.555
  521TIP3    H1 1506   2.220   2.077   3.489
  521TIP3    H2 1507   2.144   2.019   3.606
  522TIP3   OH2 1508   2.750   1.252   2.179
  522TIP3    H1 1509   2.813   1.189   2.214
  522TIP3    H2 1510   2.725   1.216   2.094
  523TIP3   OH2 1511   1.908   0.058   1.238
  523TIP3    H1 1512   1.893  -0.028   1.277
  523TIP3    H2 1513   1.890   0.120   1.309
  524TIP3   OH2 1514   4.603   4.212   3.054
  524TIP3    H1 1515   4.682   4.252   3.090
  524TIP3    H2 1516   4.626   4.192   2.963
  525TIP3   OH2 1517   4.899   1.903   2.228
  525TIP3    H1 1518   4.992   1.895   2.206
  525TIP3    H2 1519   4.862   1.817   2.208
  526TIP3   OH2 1520   7.030   2.805   0.046
  526TIP3    H1 1521   7.035   2.852  -0.038
  526TIP3    H2 1522   6.967   2.856   0.097
  527TIP3   OH2 1523   2.777   5.273   0.214
  527TIP3    H1 1524   2.800   5.181   0.214
  527TIP3    H2 1525   2.724   5.285   0.293
  528TIP3   OH2 1526   2.431   0.352   5.525
  528TIP3    H1 1527   2.429   0.289   5.452
  528TIP3    H2 1528   2.359   0.325   5.582
  529TIP3   OH2 1529   6.184   3.045   2.470
  529TIP3    H1 1530   6.163   2.991   2.547
  529TIP3    H2 1531   6.112   3.026   2.409
  530TIP3   OH2 1532   0.572   0.407   4.464
  530TIP3    H1 1533   0.572   0.461   4.543
  530TIP3    H2 1534   0.514   0.334   4.484
  531TIP3   OH2 1535   3.058   2.749   0.043
  531TIP3    H1 1536   3.029   2.839   0.061
  531TIP3    H2 1537   3.023   2.730  -0.044
  532TIP3   OH2 1538   5.702   5.663   5.348
  532TIP3    H1 1539   5.669   5.749   5.322
  532TIP3    H2 1540   5.623   5.611   5.361
  533TIP3   OH2 1541   2.904   5.411   2.280
  533TIP3    H1 1542   2.860   5.452   2.355
  533TIP3    H2 1543   2.911   5.481   2.215
  534TIP3   OH2 1544   1.035   3.959   5.047
  534TIP3    H1 1545   0.992   4.043   5.062
  534TIP3    H2 1546   0.991   3.923   4.970
  535TIP3   OH2 1547   0.750   0.597   3.555
  535TIP3    H1 1548   0.723   0.585   3.646
  535TIP3    H2 1549   0.789   0.513   3.529
  536TIP3   OH2 1550   1.027   4.555   0.039
  536TIP3    H1 1551   0.964   4.627   0.038
  536TIP3    H2 1552   1.010   4.507  -0.043
  537TIP3   OH2 1553   4.850   3.577   0.837
  537TIP3    H1 1554   4.937   3.537   0.844
  537TIP3    H2 1555   4.796   3.511   0.795
  538TIP3   OH2 1556   7.849   3.175   1.669
  538TIP3    H1 1557   7.943   3.166   1.688
  538TIP3    H2 1558   7.811   3.202   1.753
  539TIP3   OH2 1559   8.128   2.463   2.326
  539TIP3    H1 1560   8.122   2.391   2.389
  539TIP3    H2 1561   8.183   2.528   2.368
  540TIP3   OH2 1562   3.322   6.821   3.962
  540TIP3    H1 1563   3.247   6.766   3.940
  540TIP3    H2 1564   3.398   6.775   3.925
  541TIP3   OH2 1565   3.652   0.050   2.862
  541TIP3    H1 1566   3.659  -0.023   2.801
  541TIP3    H2 1567   3.590   0.110   2.820
  542TIP3   OH2 1568   7.810   1.094   0.146
  542TIP3    H1 1569   7.883   1.111   0.206
  542TIP3    H2 1570   7.838   1.133   0.063
  543TIP3   OH2 1571   5.403   6.042   0.612
  543TIP3    H1 1572   5.410   5.973   0.546
  543TIP3    H2 1573   5.355   6.001   0.685
  544TIP3   OH2 1574   2.691   0.985   2.034
  544TIP3    H1 1575   2.661   0.901   2.069
  544TIP3    H2 1576   2.736   0.962   1.952
  545TIP3   OH2 1577   7.933   7.032   3.587
  545TIP3    H1 1578   8.011   7.032   3.643
  545TIP3    H2 1579   7.936   6.949   3.541
  546TIP3   OH2 1580   5.002   5.792   3.132
  546TIP3    H1 1581   5.062   5.722   3.160
  546TIP3    H2 1582   5.054   5.872   3.141
  547TIP3   OH2 1583   5.958   4.363   5.080
  547TIP3    H1 1584   5.872   4.346   5.118
  547TIP3    H2 1585   6.019   4.351   5.152
  548TIP3   OH2 1586   7.572   5.242   0.162
  548TIP3    H1 1587   7.576   5.200   0.076
  548TIP3    H2 1588   7.642   5.200   0.213
  549TIP3   OH2 1589   4.207   2.806   3.713
  549TIP3    H1 1590   4.278   2.746   3.687
  549TIP3    H2 1591   4.179   2.776   3.799
  550TIP3   OH2 1592   7.458   5.267   5.424
  550TIP3    H1 1593   7.526   5.216   5.380
  550TIP3    H2 1594   7.503   5.304   5.501
  551TIP3   OH2 1595   1.435   5.010   4.047
  551TIP3    H1 1596   1.417   4.919   4.071
  551TIP3    H2 1597   1.392   5.021   3.962
  552TIP3   OH2 1598   2.950   3.769   0.373
  552TIP3    H1 1599   2.935   3.723   0.291
  552TIP3    H2 1600   2.863   3.789   0.406
  553TIP3   OH2 1601   2.508   0.069   2.795
  553TIP3    H1 1602   2.496   0.080   2.701
  553TIP3    H2 1603   2.423   0.038   2.826
  554TIP3   OH2 1604   7.538   5.181   6.710
  554TIP3    H1 1605   7.574   5.134   6.785
  554TIP3    H2 1606   7.596   5.160   6.637
  555TIP3   OH2 1607   5.909   5.276   4.543
  555TIP3    H1 1608   5.896   5.371   4.532
  555TIP3    H2 1609   5.824   5.238   4.521
  556TIP3   OH2 1610   8.207   3.329   6.375
  556TIP3    H1 1611   8.267   3.322   6.449
  556TIP3    H2 1612   8.204   3.241   6.338
  557TIP3   OH2 1613   7.841   3.861   1.440
  557TIP3    H1 1614   7.847   3.950   1.405
  557TIP3    H2 1615   7.909   3.856   1.507
  558TIP3   OH2 1616   7.365   7.607   4.375
  558TIP3    H1 1617   7.320   7.582   4.456
  558TIP3    H2 1618   7.365   7.703   4.377
  559TIP3   OH2 1619   3.820   2.941   1.056
  559TIP3    H1 1620   3.744   2.954   1.000
  559TIP3    H2 1621   3.784   2.938   1.145
  560TIP3   OH2 1622   3.736   5.811   3.784
  560TIP3    H1 1623   3.798   5.821   3.711
  560TIP3    H2 1624   3.717   5.901   3.810
  561TIP3   OH2 1625   7.716   2.003   3.614
  561TIP3    H1 1626   7.806   2.029   3.598
  561TIP3    H2 1627   7.671   2.023   3.532
  562TIP3   OH2 1628   3.120   6.963   1.028
  562TIP3    H1 1629   3.030   6.993   1.017
  562TIP3    H2 1630   3.118   6.870   1.005
  563TIP3   OH2 1631   7.275   2.556   6.365
  563TIP3    H1 1632   7.220   2.599   6.299
  563TIP3    H2 1633   7.319   2.486   6.316
  564TIP3   OH2 1634   4.519   6.283   5.040
  564TIP3    H1 1635   4.551   6.319   5.123
  564TIP3    H2 1636   4.589   6.303   4.977
  565TIP3   OH2 1637   7.970   2.917   5.892
  565TIP3    H1 1638   8.048   2.939   5.943
  565TIP3    H2 1639   7.991   2.834   5.850
  566TIP3   OH2 1640   2.035   3.277   2.745
  566TIP3    H1 1641   2.005   3.189   2.722
  566TIP3    H2 1642   2.127   3.278   2.721
  567TIP3   OH2 1643   1.805   2.663   0.233
  567TIP3    H1 1644   1.852   2.681   0.152
  567TIP3    H2 1645   1.843   2.580   0.264
  568TIP3   OH2 1646   0.498   2.147   3.683
  568TIP3    H1 1647   0.448   2.065   3.689
  568TIP3    H2 1648   0.523   2.153   3.591
  569TIP3   OH2 1649   1.970   4.072   6.390
  569TIP3    H1 1650   1.915   4.101   6.462
  569TIP3    H2 1651   2.040   4.022   6.432
  570TIP3   OH2 1652   2.626   2.891   4.747
  570TIP3    H1 1653   2.706   2.935   4.775
  570TIP3    H2 1654   2.580   2.956   4.694
  571TIP3   OH2 1655   7.870   2.402   1.034
  571TIP3    H1 1656   7.786   2.356   1.044
  571TIP3    H2 1657   7.936   2.333   1.039
  572TIP3   OH2 1658   3.815   0.945   6.727
  572TIP3    H1 1659   3.793   0.852   6.724
  572TIP3    H2 1660   3.794   0.972   6.816
  573TIP3   OH2 1661   3.494   3.294   5.443
  573TIP3    H1 1662   3.565   3.246   5.485
  573TIP3    H2 1663   3.420   3.234   5.445
  574TIP3   OH2 1664   4.067   2.165   2.143
  574TIP3    H1 1665   4.017   2.239   2.111
  574TIP3    H2 1666   4.153   2.174   2.100
  575TIP3   OH2 1667   2.826   2.892   6.397
  575TIP3    H1 1668   2.769   2.950   6.347
  575TIP3    H2 1669   2.813   2.806   6.358
  576TIP3   OH2 1670   2.105   3.910   5.476
  576TIP3    H1 1671   2.068   3.945   5.557
  576TIP3    H2 1672   2.037   3.925   5.410
  577TIP3   OH2 1673   4.160   1.818   3.376
  577TIP3    H1 1674   4.141   1.725   3.366
  577TIP3    H2 1675   4.116   1.860   3.302
  578TIP3   OH2 1676   3.415   2.449   4.376
  578TIP3    H1 1677   3.353   2.446   4.448
  578TIP3    H2 1678   3.499   2.468   4.418
  579TIP3   OH2 1679   0.320   1.201   6.632
  579TIP3    H1 1680   0.239   1.252   6.629
  579TIP3    H2 1681   0.291   1.110   6.636
  580TIP3   OH2 1682   2.548   5.321   4.275
  580TIP3    H1 1683   2.496   5.393   4.310
  580TIP3    H2 1684   2.484   5.254   4.252
  581TIP3   OH2 1685   5.811   2.749   2.261
  581TIP3    H1 1686   5.736   2.740   2.202
  581TIP3    H2 1687   5.887   2.751   2.203
  582TIP3   OH2 1688   8.229   4.526   2.353
  582TIP3    H1 1689   8.324   4.530   2.341
  582TIP3    H2 1690   8.196   4.487   2.272
  583TIP3   OH2 1691   2.110   6.839   6.115
  583TIP3    H1 1692   2.177   6.793   6.063
  583TIP3    H2 1693   2.028   6.793   6.094
  584TIP3   OH2 1694   4.816   6.459   5.032
  584TIP3    H1 1695   4.824   6.529   4.968
  584TIP3    H2 1696   4.876   6.392   5.002
  585TIP3   OH2 1697   5.407   5.845   0.423
  585TIP3    H1 1698   5.391   5.751   0.422
  585TIP3    H2 1699   5.335   5.883   0.372
  586TIP3   OH2 1700   5.948   6.347   0.231
  586TIP3    H1 1701   6.027   6.293   0.236
  586TIP3    H2 1702   5.954   6.405   0.307
  587TIP3   OH2 1703   1.440   7.024   2.309
  587TIP3    H1 1704   1.382   7.051   2.380
  587TIP3    H2 1705   1.502   7.096   2.300
  588TIP3   OH2 1706   3.873   5.154   1.437
  588TIP3    H1 1707   3.933   5.104   1.380
  588TIP3    H2 1708   3.900   5.245   1.425
  589TIP3   OH2 1709   4.119   3.076   2.900
  589TIP3    H1 1710   4.170   3.074   2.819
  589TIP3    H2 1711   4.068   3.156   2.893
  590TIP3   OH2 1712   8.268   5.816   5.552
  590TIP3    H1 1713   8.200   5.873   5.515
  590TIP3    H2 1714   8.294   5.760   5.479
  591TIP3   OH2 1715   3.966   6.495   2.195
  591TIP3    H1 1716   3.918   6.507   2.277
  591TIP3    H2 1717   3.927   6.558   2.134
  592TIP3   OH2 1718   7.325   2.306   4.480
  592TIP3    H1 1719   7.352   2.239   4.418
  592TIP3    H2 1720   7.406   2.335   4.521
  593TIP3   OH2 1721   5.395   5.459   4.532
  593TIP3    H1 1722   5.304   5.449   4.505
  593TIP3    H2 1723   5.428   5.369   4.539
  594TIP3   OH2 1724   3.190   6.050   2.792
  594TIP3    H1 1725   3.216   5.977   2.735
  594TIP3    H2 1726   3.268   6.105   2.797
  595TIP3   OH2 1727   7.118   6.143   0.156
  595TIP3    H1 1728   7.049   6.080   0.136
  595TIP3    H2 1729   7.116   6.204   0.082
  596TIP3   OH2 1730   0.710   4.323   0.737
  596TIP3    H1 1731   0.710   4.229   0.719
  596TIP3    H2 1732   0.770   4.359   0.672
  597TIP3   OH2 1733   1.236   0.123   3.818
  597TIP3    H1 1734   1.308   0.152   3.875
  597TIP3    H2 1735   1.176   0.078   3.877
  598TIP3   OH2 1736   3.103   2.863   1.629
  598TIP3    H1 1737   3.091   2.838   1.721
  598TIP3    H2 1738   3.089   2.958   1.628
  599TIP3   OH2 1739   4.215   1.285   2.842
  599TIP3    H1 1740   4.130   1.329   2.835
  599TIP3    H2 1741   4.279   1.355   2.828
  600TIP3   OH2 1742   4.687   4.769   3.917
  600TIP3    H1 1743   4.704   4.802   3.829
  600TIP3    H2 1744   4.604   4.808   3.943
  601TIP3   OH2 1745   6.970   6.375   3.612
  601TIP3    H1 1746   7.054   6.373   3.568
  601TIP3    H2 1747   6.945   6.283   3.620
  602TIP3   OH2 1748   2.132   4.859   2.173
  602TIP3    H1 1749   2.207   4.893   2.221
  602TIP3    H2 1750   2.055   4.896   2.217
  603TIP3   OH2 1751   1.669   7.202   4.829
  603TIP3    H1 1752   1.764   7.197   4.815
  603TIP3    H2 1753   1.656   7.288   4.871
  604TIP3   OH2 1754   2.695   4.397   4.404
  604TIP3    H1 1755   2.607   4.428   4.383
  604TIP3    H2 1756   2.753   4.458   4.360
  605TIP3   OH2 1757   4.040   5.966   2.657
  605TIP3    H1 1758   4.019   6.008   2.573
  605TIP3    H2 1759   4.117   5.913   2.639
  606TIP3   OH2 1760   0.394   3.492   5.587
  606TIP3    H1 1761   0.390   3.398   5.605
  606TIP3    H2 1762   0.375   3.533   5.671
  607TIP3   OH2 1763   1.766   6.947   4.682
  607TIP3    H1 1764   1.728   7.007   4.618
  607TIP3    H2 1765   1.694   6.925   4.741
  608TIP3   OH2 1766   2.805   5.709   0.539
  608TIP3    H1 1767   2.876   5.723   0.602
  608TIP3    H2 1768   2.798   5.792   0.492
  609TIP3   OH2 1769   6.002   2.222   5.521
  609TIP3    H1 1770   6.057   2.269   5.584
  609TIP3    H2 1771   5.945   2.167   5.576
  610TIP3   OH2 1772   6.935   5.167   6.047
  610TIP3    H1 1773   6.974   5.153   5.961
  610TIP3    H2 1774   6.947   5.084   6.093
  611TIP3   OH2 1775   4.676   6.500   6.337
  611TIP3    H1 1776   4.634   6.456   6.411
  611TIP3    H2 1777   4.607   6.551   6.296
  612TIP3   OH2 1778   5.057   7.725   5.954
  612TIP3    H1 1779   5.067   7.634   5.924
  612TIP3    H2 1780   4.964   7.734   5.972
  613TIP3   OH2 1781   0.483   6.894   6.630
  613TIP3    H1 1782   0.395   6.884   6.592
  613TIP3    H2 1783   0.522   6.966   6.581
  614TIP3   OH2 1784   7.228   0.695   0.118
  614TIP3    H1 1785   7.317   0.703   0.084
  614TIP3    H2 1786   7.200   0.786   0.132
  615TIP3   OH2 1787   2.455   3.258   2.013
  615TIP3    H1 1788   2.418   3.334   2.058
  615TIP3    H2 1789   2.492   3.204   2.083
  616TIP3   OH2 1790   6.514   5.227   5.070
  616TIP3    H1 1791   6.437   5.283   5.061
  616TIP3    H2 1792   6.478   5.138   5.073
  617TIP3   OH2 1793   1.836   0.420   1.952
  617TIP3    H1 1794   1.788   0.379   2.024
  617TIP3    H2 1795   1.923   0.438   1.988
  618TIP3   OH2 1796   2.789   0.655   0.252
  618TIP3    H1 1797   2.757   0.721   0.190
  618TIP3    H2 1798   2.880   0.681   0.270
  619TIP3   OH2 1799   1.832   4.492   1.782
  619TIP3    H1 1800   1.770   4.557   1.751
  619TIP3    H2 1801   1.799   4.409   1.747
  620TIP3   OH2 1802   0.849   0.963   4.634
  620TIP3    H1 1803   0.928   0.984   4.583
  620TIP3    H2 1804   0.852   1.023   4.708
  621TIP3   OH2 1805   7.774   2.160   5.321
  621TIP3    H1 1806   7.740   2.160   5.232
  621TIP3    H2 1807   7.742   2.079   5.359
  622TIP3   OH2 1808   2.474   4.689   3.028
  622TIP3    H1 1809   2.435   4.686   3.115
  622TIP3    H2 1810   2.485   4.597   3.004
  623TIP3   OH2 1811   0.936   0.703   3.239
  623TIP3    H1 1812   0.864   0.648   3.268
  623TIP3    H2 1813   1.004   0.642   3.211
  624TIP3   OH2 1814   1.403   6.212   5.131
  624TIP3    H1 1815   1.319   6.217   5.086
  624TIP3    H2 1816   1.466   6.194   5.060
  625TIP3   OH2 1817   5.571   2.084   4.771
  625TIP3    H1 1818   5.562   2.086   4.676
  625TIP3    H2 1819   5.485   2.057   4.803
  626TIP3   OH2 1820   6.480   5.353   1.913
  626TIP3    H1 1821   6.436   5.387   1.991
  626TIP3    H2 1822   6.480   5.258   1.925
  627TIP3   OH2 1823   1.081   5.332   0.769
  627TIP3    H1 1824   1.157   5.311   0.823
  627TIP3    H2 1825   1.093   5.424   0.746
  628TIP3   OH2 1826   3.248   7.498   1.635
  628TIP3    H1 1827   3.191   7.575   1.642
  628TIP3    H2 1828   3.327   7.523   1.683
  629TIP3   OH2 1829   1.466   2.332   1.330
  629TIP3    H1 1830   1.428   2.302   1.413
  629TIP3    H2 1831   1.552   2.291   1.327
  630TIP3   OH2 1832   4.968   7.161   0.142
  630TIP3    H1 1833   4.943   7.173   0.051
  630TIP3    H2 1834   5.031   7.090   0.141
  631TIP3   OH2 1835   2.687   7.588   0.877
  631TIP3    H1 1836   2.681   7.679   0.845
  631TIP3    H2 1837   2.679   7.535   0.798
  632TIP3   OH2 1838   4.672   7.263   6.541
  632TIP3    H1 1839   4.579   7.283   6.554
  632TIP3    H2 1840   4.676   7.220   6.456
  633TIP3   OH2 1841   1.460   3.699   6.591
  633TIP3    H1 1842   1.426   3.706   6.502
  633TIP3    H2 1843   1.550   3.670   6.581
  634TIP3   OH2 1844   3.970   4.720   3.956
  634TIP3    H1 1845   4.038   4.713   4.023
  634TIP3    H2 1846   3.937   4.631   3.946
  635TIP3   OH2 1847   0.960   5.280   1.980
  635TIP3    H1 1848   0.891   5.214   1.984
  635TIP3    H2 1849   0.943   5.338   2.054
  636TIP3   OH2 1850   3.897   2.016   5.191
  636TIP3    H1 1851   3.974   2.053   5.233
  636TIP3    H2 1852   3.921   1.925   5.172
  637TIP3   OH2 1853   6.380   5.833   3.035
  637TIP3    H1 1854   6.308   5.855   3.094
  637TIP3    H2 1855   6.429   5.915   3.026
  638TIP3   OH2 1856   1.570   6.590   0.160
  638TIP3    H1 1857   1.662   6.597   0.188
  638TIP3    H2 1858   1.547   6.679   0.133
  639TIP3   OH2 1859   2.555   0.343   0.952
  639TIP3    H1 1860   2.493   0.283   0.994
  639TIP3    H2 1861   2.502   0.388   0.886
  640TIP3   OH2 1862   7.686   6.741   6.300
  640TIP3    H1 1863   7.593   6.755   6.319
  640TIP3    H2 1864   7.732   6.804   6.356
  641TIP3   OH2 1865   1.360   5.918   5.485
  641TIP3    H1 1866   1.288   5.980   5.473
  641TIP3    H2 1867   1.439   5.970   5.471
  642TIP3   OH2 1868   5.063   7.638   6.271
  642TIP3    H1 1869   4.994   7.703   6.282
  642TIP3    H2 1870   5.126   7.657   6.341
  643TIP3   OH2 1871   6.716   7.264   2.425
  643TIP3    H1 1872   6.730   7.170   2.413
  643TIP3    H2 1873   6.676   7.272   2.511
  644TIP3   OH2 1874   0.155   2.316   0.426
  644TIP3    H1 1875   0.186   2.327   0.516
  644TIP3    H2 1876   0.213   2.371   0.374
  645TIP3   OH2 1877   7.154   1.534   2.345
  645TIP3    H1 1878   7.224   1.599   2.359
  645TIP3    H2 1879   7.076   1.587   2.328
  646TIP3   OH2 1880   0.996   2.819   1.519
  646TIP3    H1 1881   1.007   2.913   1.525
  646TIP3    H2 1882   0.902   2.804   1.531
  647TIP3   OH2 1883   7.461   6.399   3.126
  647TIP3    H1 1884   7.528   6.331   3.123
  647TIP3    H2 1885   7.380   6.353   3.102
  648TIP3   OH2 1886   4.627   2.259   5.187
  648TIP3    H1 1887   4.636   2.225   5.276
  648TIP3    H2 1888   4.717   2.265   5.155
  649TIP3   OH2 1889   7.033   3.975   1.222
  649TIP3    H1 1890   7.009   3.936   1.138
  649TIP3    H2 1891   6.961   4.034   1.243
  650TIP3   OH2 1892   2.968   1.707   0.898
  650TIP3    H1 1893   3.001   1.794   0.920
  650TIP3    H2 1894   2.875   1.710   0.920
  651TIP3   OH2 1895   4.531   4.269   5.044
  651TIP3    H1 1896   4.454   4.262   4.988
  651TIP3    H2 1897   4.545   4.364   5.052
  652TIP3   OH2 1898   4.576   7.234   0.215
  652TIP3    H1 1899   4.570   7.320   0.257
  652TIP3    H2 1900   4.543   7.249   0.126
  653TIP3   OH2 1901   0.839   3.047   3.657
  653TIP3    H1 1902   0.749   3.013   3.658
  653TIP3    H2 1903   0.884   2.993   3.592
  654TIP3   OH2 1904   2.078   2.248   1.331
  654TIP3    H1 1905   2.148   2.306   1.300
  654TIP3    H2 1906   2.117   2.160   1.329
  655TIP3   OH2 1907  -0.029   0.147   1.843
  655TIP3    H1 1908   0.050   0.097   1.820
  655TIP3    H2 1909   0.004   0.222   1.892
  656TIP3   OH2 1910   0.115   2.899   0.373
  656TIP3    H1 1911   0.111   2.950   0.292
  656TIP3    H2 1912   0.099   2.809   0.345
  657TIP3   OH2 1913   1.241   4.192   5.661
  657TIP3    H1 1914   1.210   4.234   5.581
  657TIP3    H2 1915   1.323   4.238   5.682
  658TIP3   OH2 1916   5.219   6.625   5.010
  658TIP3    H1 1917   5.287   6.565   5.042
  658TIP3    H2 1918   5.265   6.708   4.999
  659TIP3   OH2 1919   5.185   2.997   6.007
  659TIP3    H1 1920   5.237   3.064   5.962
  659TIP3    H2 1921   5.225   2.914   5.981
  660TIP3   OH2 1922   3.391   4.281   6.215
  660TIP3    H1 1923   3.373   4.273   6.121
  660TIP3    H2 1924   3.307   4.265   6.257
  661TIP3   OH2 1925   7.422   4.699   1.477
  661TIP3    H1 1926   7.423   4.786   1.517
  661TIP3    H2 1927   7.388   4.713   1.389
  662TIP3   OH2 1928   3.917   5.025   4.754
  662TIP3    H1 1929   3.955   4.950   4.709
  662TIP3    H2 1930   3.963   5.030   4.838
  663TIP3   OH2 1931   6.971   6.486   6.618
  663TIP3    H1 1932   6.894   6.430   6.615
  663TIP3    H2 1933   6.986   6.511   6.527
  664TIP3   OH2 1934   3.194   2.941   3.932
  664TIP3    H1 1935   3.164   2.863   3.885
  664TIP3    H2 1936   3.263   2.908   3.990
  665TIP3   OH2 1937   5.476   2.040   0.408
  665TIP3    H1 1938   5.527   2.115   0.440
  665TIP3    H2 1939   5.538   1.966   0.411
  666TIP3   OH2 1940   0.165   2.699   3.467
  666TIP3    H1 1941   0.080   2.703   3.423
  666TIP3    H2 1942   0.185   2.606   3.472
  667TIP3   OH2 1943   3.034   5.887   6.658
  667TIP3    H1 1944   2.977   5.952   6.618
  667TIP3    H2 1945   3.061   5.927   6.741
  668TIP3   OH2 1946   5.894   5.237  -0.034
  668TIP3    H1 1947   5.861   5.166   0.021
  668TIP3    H2 1948   5.951   5.288   0.023
  669TIP3   OH2 1949   5.553   4.479   0.791
  669TIP3    H1 1950   5.491   4.413   0.822
  669TIP3    H2 1951   5.593   4.514   0.871
  670TIP3   OH2 1952   3.222   0.437   3.402
  670TIP3    H1 1953   3.293   0.461   3.462
  670TIP3    H2 1954   3.198   0.520   3.360
  671TIP3   OH2 1955   5.184   7.515   0.842
  671TIP3    H1 1956   5.211   7.599   0.805
  671TIP3    H2 1957   5.229   7.449   0.790
  672TIP3   OH2 1958   0.693   5.625   2.758
  672TIP3    H1 1959   0.751   5.702   2.761
  672TIP3    H2 1960   0.704   5.584   2.844
  673TIP3   OH2 1961   4.467   1.395   1.200
  673TIP3    H1 1962   4.402   1.452   1.241
  673TIP3    H2 1963   4.416   1.328   1.155
  674TIP3   OH2 1964   0.134   7.812   4.733
  674TIP3    H1 1965   0.104   7.864   4.658
  674TIP3    H2 1966   0.101   7.723   4.715
  675TIP3   OH2 1967   6.770   3.629   2.069
  675TIP3    H1 1968   6.794   3.558   2.008
  675TIP3    H2 1969   6.813   3.707   2.033
  676TIP3   OH2 1970   2.388   5.489   3.778
  676TIP3    H1 1971   2.317   5.478   3.714
  676TIP3    H2 1972   2.456   5.537   3.730
  677TIP3   OH2 1973   2.899   5.002   3.028
  677TIP3    H1 1974   2.978   5.000   2.975
  677TIP3    H2 1975   2.858   5.086   3.007
  678TIP3   OH2 1976   4.642   6.701   0.588
  678TIP3    H1 1977   4.734   6.711   0.612
  678TIP3    H2 1978   4.644   6.650   0.507
  679TIP3   OH2 1979   0.216   2.054   2.882
  679TIP3    H1 1980   0.176   2.128   2.927
  679TIP3    H2 1981   0.285   2.093   2.828
  680TIP3   OH2 1982   0.723   3.431   3.700
  680TIP3    H1 1983   0.735   3.524   3.718
  680TIP3    H2 1984   0.690   3.395   3.782
  681TIP3   OH2 1985   2.292   6.378   4.100
  681TIP3    H1 1986   2.291   6.469   4.070
  681TIP3    H2 1987   2.199   6.355   4.107
  682TIP3   OH2 1988   7.521   0.456   2.868
  682TIP3    H1 1989   7.606   0.412   2.877
  682TIP3    H2 1990   7.542   0.549   2.870
  683TIP3   OH2 1991   2.519   2.907   0.479
  683TIP3    H1 1992   2.469   2.937   0.403
  683TIP3    H2 1993   2.476   2.825   0.504
  684TIP3   OH2 1994   4.318   6.963   6.681
  684TIP3    H1 1995   4.236   6.926   6.714
  684TIP3    H2 1996   4.328   6.922   6.594
  685TIP3   OH2 1997   3.876   5.799   3.535
  685TIP3    H1 1998   3.874   5.708   3.565
  685TIP3    H2 1999   3.962   5.810   3.496
  686TIP3   OH2 2000   6.287   0.701   1.545
  686TIP3    H1 2001   6.225   0.651   1.598
  686TIP3    H2 2002   6.371   0.656   1.558
  687TIP3   OH2 2003   0.038   1.059   5.718
  687TIP3    H1 2004   0.110   1.122   5.715
  687TIP3    H2 2005  -0.018   1.084   5.644
  688TIP3   OH2 2006   4.250   2.765   3.427
  688TIP3    H1 2007   4.196   2.819   3.485
  688TIP3    H2 2008   4.206   2.768   3.342
  689TIP3   OH2 2009   5.684   0.999   6.243
  689TIP3    H1 2010   5.679   1.095   6.235
  689TIP3    H2 2011   5.776   0.978   6.227
  690TIP3   OH2 2012   7.456   0.261   1.151
  690TIP3    H1 2013   7.493   0.192   1.096
  690TIP3    H2 2014   7.392   0.305   1.095
  691TIP3   OH2 2015   1.073   2.043   2.604
  691TIP3    H1 2016   1.135   2.022   2.674
  691TIP3    H2 2017   1.125   2.091   2.540
  692TIP3   OH2 2018   0.608   2.293   5.817
  692TIP3    H1 2019   0.574   2.381   5.802
  692TIP3    H2 2020   0.686   2.288   5.762
  693TIP3   OH2 2021   2.091   4.938   1.868
  693TIP3    H1 2022   2.147   4.981   1.934
  693TIP3    H2 2023   2.124   4.848   1.864
  694TIP3   OH2 2024   1.911   7.014   3.529
  694TIP3    H1 2025   1.897   7.090   3.474
  694TIP3    H2 2026   2.006   7.007   3.538
  695TIP3   OH2 2027   1.058   2.963   5.705
  695TIP3    H1 2028   1.027   2.904   5.773
  695TIP3    H2 2029   1.138   2.922   5.671
  696TIP3   OH2 2030   5.925   5.569   4.508
  696TIP3    H1 2031   5.958   5.658   4.518
  696TIP3    H2 2032   5.880   5.551   4.591
  697TIP3   OH2 2033   6.791   2.948   6.337
  697TIP3    H1 2034   6.791   2.889   6.262
  697TIP3    H2 2035   6.723   2.914   6.395
  698TIP3   OH2 2036   1.662   3.061   0.283
  698TIP3    H1 2037   1.704   3.143   0.259
  698TIP3    H2 2038   1.724   3.018   0.342
  699TIP3   OH2 2039   6.567   0.567   1.242
  699TIP3    H1 2040   6.649   0.518   1.246
  699TIP3    H2 2041   6.501   0.506   1.273
  700TIP3   OH2 2042   5.924   2.972   0.948
  700TIP3    H1 2043   5.905   3.010   1.034
  700TIP3    H2 2044   5.903   3.042   0.886
  701TIP3   OH2 2045   1.455   6.818   2.578
  701TIP3    H1 2046   1.436   6.863   2.495
  701TIP3    H2 2047   1.369   6.791   2.610
  702TIP3   OH2 2048   1.107   5.333   4.726
  702TIP3    H1 2049   1.164   5.315   4.651
  702TIP3    H2 2050   1.085   5.425   4.718
  703TIP3   OH2 2051   2.447   2.313   0.861
  703TIP3    H1 2052   2.390   2.383   0.892
  703TIP3    H2 2053   2.458   2.256   0.938
  704TIP3   OH2 2054   0.531   1.753   0.251
  704TIP3    H1 2055   0.545   1.835   0.204
  704TIP3    H2 2056   0.440   1.757   0.279
  705TIP3   OH2 2057   1.207   0.894   1.072
  705TIP3    H1 2058   1.298   0.903   1.099
  705TIP3    H2 2059   1.189   0.801   1.078
  706TIP3   OH2 2060   0.608   7.396   5.625
  706TIP3    H1 2061   0.650   7.359   5.703
  706TIP3    H2 2062   0.590   7.321   5.569
  707TIP3   OH2 2063   6.447   0.895   4.086
  707TIP3    H1 2064   6.433   0.952   4.010
  707TIP3    H2 2065   6.454   0.807   4.050
  708TIP3   OH2 2066   2.874   4.405   1.724
  708TIP3    H1 2067   2.935   4.387   1.653
  708TIP3    H2 2068   2.917   4.473   1.776
  709TIP3   OH2 2069   4.036   1.049   2.530
  709TIP3    H1 2070   4.131   1.044   2.537
  709TIP3    H2 2071   4.016   1.142   2.536
  710TIP3   OH2 2072   2.717   2.856   1.578
  710TIP3    H1 2073   2.775   2.922   1.615
  710TIP3    H2 2074   2.768   2.815   1.508
  711TIP3   OH2 2075   4.207   1.453   0.613
  711TIP3    H1 2076   4.204   1.367   0.656
  711TIP3    H2 2077   4.216   1.434   0.520
  712TIP3   OH2 2078   3.965   7.084   1.335
  712TIP3    H1 2079   3.995   7.083   1.425
  712TIP3    H2 2080   3.891   7.023   1.333
  713TIP3   OH2 2081   2.602   1.670   6.007
  713TIP3    H1 2082   2.530   1.689   5.948
  713TIP3    H2 2083   2.665   1.740   5.992
  714TIP3   OH2 2084   7.693   7.179   0.135
  714TIP3    H1 2085   7.675   7.101   0.082
  714TIP3    H2 2086   7.626   7.242   0.108
  715TIP3   OH2 2087   3.246   5.195   4.705
  715TIP3    H1 2088   3.264   5.132   4.774
  715TIP3    H2 2089   3.247   5.280   4.749
  716TIP3   OH2 2090   2.805   1.685   1.805
  716TIP3    H1 2091   2.882   1.722   1.847
  716TIP3    H2 2092   2.839   1.626   1.738
  717TIP3   OH2 2093   7.587   2.861   1.670
  717TIP3    H1 2094   7.532   2.846   1.593
  717TIP3    H2 2095   7.525   2.869   1.742
  718TIP3   OH2 2096   5.411   1.391   5.485
  718TIP3    H1 2097   5.375   1.480   5.491
  718TIP3    H2 2098   5.367   1.342   5.554
  719TIP3   OH2 2099   4.166   5.176   5.151
  719TIP3    H1 2100   4.119   5.106   5.105
  719TIP3    H2 2101   4.201   5.231   5.081
  720TIP3   OH2 2102   4.372   5.884   6.098
  720TIP3    H1 2103   4.399   5.878   6.190
  720TIP3    H2 2104   4.329   5.969   6.092
  721TIP3   OH2 2105   5.181   6.637   3.850
  721TIP3    H1 2106   5.116   6.707   3.846
  721TIP3    H2 2107   5.262   6.681   3.876
  722TIP3   OH2 2108   0.826   7.255   3.977
  722TIP3    H1 2109   0.764   7.262   3.904
  722TIP3    H2 2110   0.773   7.273   4.055
  723TIP3   OH2 2111   8.132   5.622   6.010
  723TIP3    H1 2112   8.135   5.685   5.938
  723TIP3    H2 2113   8.053   5.645   6.059
  724TIP3   OH2 2114   7.638   5.034   3.725
  724TIP3    H1 2115   7.596   5.118   3.707
  724TIP3    H2 2116   7.623   4.981   3.646
  725TIP3   OH2 2117   3.602   2.736   0.778
  725TIP3    H1 2118   3.558   2.767   0.857
  725TIP3    H2 2119   3.668   2.674   0.810
  726TIP3   OH2 2120   7.357   7.342   2.009
  726TIP3    H1 2121   7.408   7.262   2.022
  726TIP3    H2 2122   7.266   7.314   2.022
  727TIP3   OH2 2123   7.522   1.866   1.971
  727TIP3    H1 2124   7.458   1.807   1.931
  727TIP3    H2 2125   7.504   1.951   1.932
  728TIP3   OH2 2126   6.660   6.738   0.594
  728TIP3    H1 2127   6.572   6.702   0.606
  728TIP3    H2 2128   6.716   6.662   0.582
  729TIP3   OH2 2129   4.883   1.212   3.549
  729TIP3    H1 2130   4.954   1.163   3.588
  729TIP3    H2 2131   4.843   1.260   3.621
  730TIP3   OH2 2132   7.776   5.684   1.060
  730TIP3    H1 2133   7.717   5.758   1.074
  730TIP3    H2 2134   7.718   5.612   1.037
  731TIP3   OH2 2135   6.015   2.516   5.694
  731TIP3    H1 2136   6.045   2.488   5.780
  731TIP3    H2 2137   6.081   2.578   5.665
  732TIP3   OH2 2138   1.542   4.243   2.922
  732TIP3    H1 2139   1.469   4.233   2.983
  732TIP3    H2 2140   1.550   4.158   2.879
  733TIP3   OH2 2141   3.527   6.251   3.599
  733TIP3    H1 2142   3.513   6.291   3.686
  733TIP3    H2 2143   3.577   6.172   3.617
  734TIP3   OH2 2144   7.599   3.281   5.331
  734TIP3    H1 2145   7.648   3.291   5.413
  734TIP3    H2 2146   7.658   3.315   5.263
  735TIP3   OH2 2147   3.440   1.290   3.240
  735TIP3    H1 2148   3.532   1.277   3.266
  735TIP3    H2 2149   3.398   1.207   3.259
  736TIP3   OH2 2150   7.866   3.426   2.239
  736TIP3    H1 2151   7.810   3.476   2.180
  736TIP3    H2 2152   7.910   3.363   2.183
  737TIP3   OH2 2153   5.887   2.542   1.011
  737TIP3    H1 2154   5.859   2.600   1.082
  737TIP3    H2 2155   5.977   2.568   0.993
  738TIP3   OH2 2156   3.069   1.952   3.018
  738TIP3    H1 2157   3.123   1.884   3.058
  738TIP3    H2 2158   2.979   1.924   3.034
  739TIP3   OH2 2159   6.815   6.177   2.510
  739TIP3    H1 2160   6.871   6.254   2.505
  739TIP3    H2 2161   6.813   6.142   2.421
  740TIP3   OH2 2162   4.054   4.405   4.434
  740TIP3    H1 2163   3.994   4.357   4.492
  740TIP3    H2 2164   4.135   4.354   4.437
  741TIP3   OH2 2165   3.081   3.132   1.644
  741TIP3    H1 2166   3.022   3.180   1.702
  741TIP3    H2 2167   3.066   3.169   1.557
  742TIP3   OH2 2168   3.542   1.706   6.315
  742TIP3    H1 2169   3.575   1.792   6.339
  742TIP3    H2 2170   3.453   1.703   6.352
  743TIP3   OH2 2171   2.436   1.200   2.464
  743TIP3    H1 2172   2.455   1.236   2.551
  743TIP3    H2 2173   2.481   1.259   2.403
  744TIP3   OH2 2174   5.884   1.951   2.432
  744TIP3    H1 2175   5.838   1.867   2.435
  744TIP3    H2 2176   5.974   1.928   2.408
  745TIP3   OH2 2177   7.114   4.643   4.070
  745TIP3    H1 2178   7.208   4.624   4.068
  745TIP3    H2 2179   7.078   4.579   4.131
  746TIP3   OH2 2180   0.310   6.746   1.276
  746TIP3    H1 2181   0.375   6.682   1.307
  746TIP3    H2 2182   0.283   6.792   1.355
  747TIP3   OH2 2183   5.448   0.949   0.832
  747TIP3    H1 2184   5.517   0.884   0.821
  747TIP3    H2 2185   5.489   1.032   0.807
  748TIP3   OH2 2186   1.426   4.296   1.716
  748TIP3    H1 2187   1.391   4.229   1.656
  748TIP3    H2 2188   1.364   4.369   1.709
  749TIP3   OH2 2189   3.706   5.417   4.122
  749TIP3    H1 2190   3.677   5.502   4.156
  749TIP3    H2 2191   3.688   5.355   4.192
  750TIP3   OH2 2192   1.517   2.456   2.842
  750TIP3    H1 2193   1.508   2.551   2.838
  750TIP3    H2 2194   1.506   2.434   2.935
  751TIP3   OH2 2195   6.803   3.131   4.894
  751TIP3    H1 2196   6.765   3.200   4.840
  751TIP3    H2 2197   6.879   3.171   4.936
  752TIP3   OH2 2198   4.813   1.893   5.399
  752TIP3    H1 2199   4.891   1.841   5.417
  752TIP3    H2 2200   4.786   1.926   5.484
  753TIP3   OH2 2201   7.224   3.039   5.506
  753TIP3    H1 2202   7.229   3.067   5.597
  753TIP3    H2 2203   7.131   3.022   5.491
  754TIP3   OH2 2204   6.087   3.106   6.567
  754TIP3    H1 2205   6.025   3.126   6.638
  754TIP3    H2 2206   6.046   3.034   6.519
  755TIP3   OH2 2207   1.495   1.595   1.261
  755TIP3    H1 2208   1.479   1.606   1.167
  755TIP3    H2 2209   1.504   1.501   1.273
  756TIP3   OH2 2210   0.736   2.601   6.616
  756TIP3    H1 2211   0.801   2.651   6.665
  756TIP3    H2 2212   0.781   2.576   6.535
  757TIP3   OH2 2213   4.707   7.557   0.590
  757TIP3    H1 2214   4.662   7.590   0.668
  757TIP3    H2 2215   4.792   7.527   0.622
  758TIP3   OH2 2216   2.913   7.513   2.591
  758TIP3    H1 2217   2.923   7.418   2.581
  758TIP3    H2 2218   2.827   7.531   2.554
  759TIP3   OH2 2219   3.168   4.842   4.988
  759TIP3    H1 2220   3.084   4.796   4.980
  759TIP3    H2 2221   3.234   4.774   4.978
  760TIP3   OH2 2222   6.103   3.341   6.334
  760TIP3    H1 2223   6.128   3.424   6.374
  760TIP3    H2 2224   6.055   3.295   6.403
  761TIP3   OH2 2225   6.307   7.664   3.551
  761TIP3    H1 2226   6.346   7.665   3.639
  761TIP3    H2 2227   6.256   7.583   3.549
  762TIP3   OH2 2228   1.287   5.121   6.670
  762TIP3    H1 2229   1.297   5.028   6.649
  762TIP3    H2 2230   1.263   5.122   6.763
  763TIP3   OH2 2231   0.839   0.417   1.728
  763TIP3    H1 2232   0.901   0.375   1.669
  763TIP3    H2 2233   0.769   0.448   1.671
  764TIP3   OH2 2234   3.934   6.993   5.869
  764TIP3    H1 2235   3.948   6.900   5.887
  764TIP3    H2 2236   3.990   7.012   5.793
  765TIP3   OH2 2237   0.813   2.792   1.195
  765TIP3    H1 2238   0.810   2.700   1.219
  765TIP3    H2 2239   0.824   2.838   1.278
  766TIP3   OH2 2240   2.965   0.406   1.590
  766TIP3    H1 2241   2.886   0.459   1.600
  766TIP3    H2 2242   3.033   0.468   1.566
  767TIP3   OH2 2243   6.857   2.097   4.811
  767TIP3    H1 2244   6.785   2.039   4.787
  767TIP3    H2 2245   6.866   2.085   4.905
  768TIP3   OH2 2246   7.171   4.509   6.445
  768TIP3    H1 2247   7.254   4.467   6.424
  768TIP3    H2 2248   7.195   4.595   6.480
  769TIP3   OH2 2249   0.166   4.501   0.873
  769TIP3    H1 2250   0.250   4.542   0.854
  769TIP3    H2 2251   0.154   4.437   0.803
  770TIP3   OH2 2252   5.435   2.294   3.111
  770TIP3    H1 2253   5.393   2.375   3.082
  770TIP3    H2 2254   5.376   2.260   3.178
  771TIP3   OH2 2255   5.914   6.400   5.143
  771TIP3    H1 2256   5.884   6.491   5.145
  771TIP3    H2 2257   5.981   6.399   5.075
  772TIP3   OH2 2258   3.227   1.096   5.640
  772TIP3    H1 2259   3.179   1.039   5.699
  772TIP3    H2 2260   3.273   1.157   5.697
  773TIP3   OH2 2261   4.823   3.370   2.595
  773TIP3    H1 2262   4.800   3.277   2.604
  773TIP3    H2 2263   4.769   3.414   2.661
  774TIP3   OH2 2264   0.392   4.842   3.525
  774TIP3    H1 2265   0.321   4.892   3.565
  774TIP3    H2 2266   0.394   4.759   3.573
  775TIP3   OH2 2267   5.327   4.686   4.906
  775TIP3    H1 2268   5.308   4.741   4.982
  775TIP3    H2 2269   5.374   4.744   4.846
  776TIP3   OH2 2270   1.192   4.831   5.890
  776TIP3    H1 2271   1.177   4.922   5.917
  776TIP3    H2 2272   1.251   4.837   5.815
  777TIP3   OH2 2273   2.837   6.134   0.844
  777TIP3    H1 2274   2.908   6.088   0.890
  777TIP3    H2 2275   2.769   6.068   0.835
  778TIP3   OH2 2276   7.440   4.412   4.692
  778TIP3    H1 2277   7.352   4.434   4.662
  778TIP3    H2 2278   7.432   4.323   4.727
  779TIP3   OH2 2279   5.091   0.182   6.087
  779TIP3    H1 2280   5.159   0.130   6.130
  779TIP3    H2 2281   5.017   0.122   6.079
  780TIP3   OH2 2282   6.769   5.083   5.179
  780TIP3    H1 2283   6.760   4.989   5.160
  780TIP3    H2 2284   6.708   5.126   5.120
  781TIP3   OH2 2285   6.398   1.018   0.350
  781TIP3    H1 2286   6.420   0.984   0.437
  781TIP3    H2 2287   6.402   1.113   0.361
  782TIP3   OH2 2288   7.647   5.485   5.159
  782TIP3    H1 2289   7.668   5.459   5.248
  782TIP3    H2 2290   7.663   5.579   5.156
  783TIP3   OH2 2291   6.697   1.008   2.071
  783TIP3    H1 2292   6.747   1.063   2.010
  783TIP3    H2 2293   6.606   1.032   2.055
  784TIP3   OH2 2294   7.743   2.094   0.398
  784TIP3    H1 2295   7.688   2.032   0.445
  784TIP3    H2 2296   7.779   2.151   0.465
  785TIP3   OH2 2297   1.473   7.741   3.207
  785TIP3    H1 2298   1.478   7.819   3.153
  785TIP3    H2 2299   1.527   7.760   3.284
  786TIP3   OH2 2300   7.517   2.385   1.732
  786TIP3    H1 2301   7.576   2.418   1.800
  786TIP3    H2 2302   7.549   2.425   1.651
  787TIP3   OH2 2303   7.270   2.323   4.957
  787TIP3    H1 2304   7.264   2.265   4.881
  787TIP3    H2 2305   7.349   2.296   5.002
  788TIP3   OH2 2306   1.844   1.346   1.657
  788TIP3    H1 2307   1.921   1.392   1.626
  788TIP3    H2 2308   1.861   1.328   1.749
  789TIP3   OH2 2309   7.948   5.753   1.406
  789TIP3    H1 2310   7.866   5.795   1.378
  789TIP3    H2 2311   8.016   5.798   1.355
  790TIP3   OH2 2312   6.916   2.703   3.080
  790TIP3    H1 2313   6.858   2.681   3.153
  790TIP3    H2 2314   6.879   2.782   3.042
  791TIP3   OH2 2315   1.005   5.133   1.391
  791TIP3    H1 2316   1.082   5.159   1.441
  791TIP3    H2 2317   0.955   5.214   1.380
  792TIP3   OH2 2318   1.006   4.160   2.916
  792TIP3    H1 2319   0.955   4.132   2.839
  792TIP3    H2 2320   1.071   4.090   2.927
  793TIP3   OH2 2321   0.692   6.942   2.525
  793TIP3    H1 2322   0.669   6.850   2.509
  793TIP3    H2 2323   0.786   6.940   2.543
  794TIP3   OH2 2324   6.786   3.218   6.721
  794TIP3    H1 2325   6.734   3.194   6.644
  794TIP3    H2 2326   6.757   3.307   6.742
  795TIP3   OH2 2327   7.927   6.514   3.971
  795TIP3    H1 2328   7.879   6.434   3.993
  795TIP3    H2 2329   7.985   6.528   4.045
  796TIP3   OH2 2330   2.714   6.754   3.045
  796TIP3    H1 2331   2.802   6.720   3.027
  796TIP3    H2 2332   2.719   6.788   3.134
  797TIP3   OH2 2333   1.586   1.739   6.261
  797TIP3    H1 2334   1.587   1.657   6.310
  797TIP3    H2 2335   1.564   1.714   6.172
  798TIP3   OH2 2336   7.148   2.190   3.517
  798TIP3    H1 2337   7.242   2.205   3.507
  798TIP3    H2 2338   7.128   2.224   3.604
  799TIP3   OH2 2339   8.126   1.210   1.083
  799TIP3    H1 2340   8.039   1.174   1.103
  799TIP3    H2 2341   8.175   1.136   1.049
  800TIP3   OH2 2342   0.387   4.923   0.697
  800TIP3    H1 2343   0.364   4.972   0.775
  800TIP3    H2 2344   0.360   4.980   0.624
  801TIP3   OH2 2345   6.655   2.172   2.857
  801TIP3    H1 2346   6.726   2.110   2.871
  801TIP3    H2 2347   6.687   2.254   2.895
  802TIP3   OH2 2348   0.461   6.021   6.003
  802TIP3    H1 2349   0.437   6.017   5.911
  802TIP3    H2 2350   0.453   6.114   6.026
  803TIP3   OH2 2351   3.300   1.476   3.885
  803TIP3    H1 2352   3.287   1.568   3.862
  803TIP3    H2 2353   3.282   1.472   3.979
  804TIP3   OH2 2354   4.016   5.284   1.992
  804TIP3    H1 2355   3.938   5.261   2.042
  804TIP3    H2 2356   4.026   5.212   1.929
  805TIP3   OH2 2357   4.278   6.706   6.312
  805TIP3    H1 2358   4.262   6.617   6.346
  805TIP3    H2 2359   4.193   6.733   6.277
  806TIP3   OH2 2360   1.124   3.836   1.587
  806TIP3    H1 2361   1.137   3.803   1.498
  806TIP3    H2 2362   1.030   3.834   1.600
  807TIP3   OH2 2363   0.911   2.188   2.778
  807TIP3    H1 2364   0.973   2.125   2.741
  807TIP3    H2 2365   0.941   2.273   2.744
  808TIP3   OH2 2366   8.182   1.755   1.809
  808TIP3    H1 2367   8.115   1.687   1.813
  808TIP3    H2 2368   8.265   1.707   1.814
  809TIP3   OH2 2369   3.524   2.001   6.095
  809TIP3    H1 2370   3.454   1.978   6.157
  809TIP3    H2 2371   3.490   2.078   6.049
  810TIP3   OH2 2372   6.253   2.958   6.313
  810TIP3    H1 2373   6.182   2.913   6.359
  810TIP3    H2 2374   6.210   3.004   6.241
  811TIP3   OH2 2375   6.691   5.114   4.120
  811TIP3    H1 2376   6.683   5.094   4.213
  811TIP3    H2 2377   6.750   5.189   4.117
  812TIP3   OH2 2378   6.545   1.549   4.305
  812TIP3    H1 2379   6.579   1.626   4.352
  812TIP3    H2 2380   6.450   1.564   4.300
  813TIP3   OH2 2381   2.887   1.823   5.402
  813TIP3    H1 2382   2.801   1.795   5.432
  813TIP3    H2 2383   2.902   1.906   5.447
  814TIP3   OH2 2384   6.149   1.941   2.380
  814TIP3    H1 2385   6.166   1.858   2.337
  814TIP3    H2 2386   6.232   1.990   2.372
  815TIP3   OH2 2387   3.617   5.725   4.118
  815TIP3    H1 2388   3.698   5.770   4.097
  815TIP3    H2 2389   3.563   5.735   4.040
  816TIP3   OH2 2390   6.649   2.878   1.973
  816TIP3    H1 2391   6.612   2.861   2.060
  816TIP3    H2 2392   6.588   2.835   1.913
  817TIP3   OH2 2393   1.341   7.833   1.038
  817TIP3    H1 2394   1.436   7.840   1.040
  817TIP3    H2 2395   1.324   7.740   1.056
  818TIP3   OH2 2396   7.415   4.356   1.155
  818TIP3    H1 2397   7.354   4.306   1.100
  818TIP3    H2 2398   7.371   4.439   1.170
  819TIP3   OH2 2399   1.254   5.215   4.209
  819TIP3    H1 2400   1.280   5.243   4.121
  819TIP3    H2 2401   1.188   5.147   4.193
  820TIP3   OH2 2402   5.696   4.506   1.378
  820TIP3    H1 2403   5.634   4.577   1.395
  820TIP3    H2 2404   5.643   4.427   1.379
  821TIP3   OH2 2405   6.640   1.334   4.578
  821TIP3    H1 2406   6.619   1.412   4.629
  821TIP3    H2 2407   6.637   1.364   4.487
  822TIP3   OH2 2408   6.142   0.852   1.325
  822TIP3    H1 2409   6.172   0.804   1.402
  822TIP3    H2 2410   6.207   0.833   1.257
  823TIP3   OH2 2411   8.101   0.818   0.609
  823TIP3    H1 2412   8.021   0.778   0.643
  823TIP3    H2 2413   8.165   0.746   0.608
  824TIP3   OH2 2414   2.569   7.155   3.446
  824TIP3    H1 2415   2.497   7.105   3.407
  824TIP3    H2 2416   2.565   7.241   3.404
  825TIP3   OH2 2417   8.186   5.979   0.272
  825TIP3    H1 2418   8.259   6.012   0.325
  825TIP3    H2 2419   8.150   5.906   0.322
  826TIP3   OH2 2420   4.185   0.741   2.578
  826TIP3    H1 2421   4.092   0.737   2.602
  826TIP3    H2 2422   4.194   0.680   2.506
  827TIP3   OH2 2423   0.738   3.722   0.735
  827TIP3    H1 2424   0.825   3.707   0.698
  827TIP3    H2 2425   0.713   3.637   0.773
  828TIP3   OH2 2426   7.599   0.280   2.360
  828TIP3    H1 2427   7.569   0.346   2.299
  828TIP3    H2 2428   7.548   0.294   2.440
  829TIP3   OH2 2429   6.493   3.641   6.303
  829TIP3    H1 2430   6.521   3.619   6.214
  829TIP3    H2 2431   6.491   3.736   6.305
  830TIP3   OH2 2432   6.517   0.082   3.162
  830TIP3    H1 2433   6.478   0.169   3.162
  830TIP3    H2 2434   6.464   0.032   3.224
  831TIP3   OH2 2435   2.552   3.974   0.608
  831TIP3    H1 2436   2.622   4.001   0.549
  831TIP3    H2 2437   2.486   4.043   0.600
  832TIP3   OH2 2438   3.954   6.256   3.836
  832TIP3    H1 2439   4.023   6.191   3.824
  832TIP3    H2 2440   3.961   6.282   3.928
  833TIP3   OH2 2441   0.355   6.055   6.275
  833TIP3    H1 2442   0.284   6.020   6.222
  833TIP3    H2 2443   0.410   6.104   6.213
  834TIP3   OH2 2444   0.700   2.188   2.560
  834TIP3    H1 2445   0.707   2.216   2.651
  834TIP3    H2 2446   0.723   2.095   2.561
  835TIP3   OH2 2447   1.061   0.689   6.182
  835TIP3    H1 2448   1.073   0.696   6.087
  835TIP3    H2 2449   1.034   0.598   6.196
  836TIP3   OH2 2450   6.939   0.874   1.585
  836TIP3    H1 2451   6.947   0.925   1.505
  836TIP3    H2 2452   7.016   0.816   1.585
  837TIP3   OH2 2453   0.614   6.668   5.563
  837TIP3    H1 2454   0.604   6.685   5.657
  837TIP3    H2 2455   0.595   6.752   5.521
  838TIP3   OH2 2456   0.410   4.984   6.811
  838TIP3    H1 2457   0.318   5.002   6.793
  838TIP3    H2 2458   0.454   5.067   6.798
  839TIP3   OH2 2459   8.092   7.371   3.850
  839TIP3    H1 2460   8.040   7.431   3.796
  839TIP3    H2 2461   8.051   7.375   3.936
  840TIP3   OH2 2462   2.080   5.790   4.559
  840TIP3    H1 2463   2.132   5.832   4.627
  840TIP3    H2 2464   2.112   5.827   4.477
  841TIP3   OH2 2465   5.309   4.653   4.393
  841TIP3    H1 2466   5.295   4.558   4.389
  841TIP3    H2 2467   5.373   4.665   4.463
  842TIP3   OH2 2468   4.404   0.257   5.371
  842TIP3    H1 2469   4.323   0.273   5.323
  842TIP3    H2 2470   4.464   0.221   5.306
  843TIP3   OH2 2471   6.511   4.010   5.092
  843TIP3    H1 2472   6.576   4.034   5.158
  843TIP3    H2 2473   6.490   3.918   5.111
  844TIP3   OH2 2474   6.036   3.387   2.687
  844TIP3    H1 2475   5.971   3.401   2.756
  844TIP3    H2 2476   6.103   3.332   2.727
  845TIP3   OH2 2477   8.255   2.891   3.206
  845TIP3    H1 2478   8.285   2.813   3.160
  845TIP3    H2 2479   8.215   2.857   3.287
  846TIP3   OH2 2480   5.531   6.332   3.918
  846TIP3    H1 2481   5.510   6.293   3.832
  846TIP3    H2 2482   5.463   6.299   3.976
  847TIP3   OH2 2483   5.956   7.547   6.260
  847TIP3    H1 2484   6.014   7.536   6.185
  847TIP3    H2 2485   5.875   7.580   6.223
  848TIP3   OH2 2486   6.721   7.229   5.161
  848TIP3    H1 2487   6.640   7.203   5.205
  848TIP3    H2 2488   6.750   7.307   5.208
  849TIP3   OH2 2489   0.599   2.432   0.380
  849TIP3    H1 2490   0.631   2.521   0.373
  849TIP3    H2 2491   0.645   2.395   0.456
  850TIP3   OH2 2492   3.038   1.855   1.247
  850TIP3    H1 2493   2.943   1.852   1.254
  850TIP3    H2 2494   3.059   1.948   1.243
  851TIP3   OH2 2495   5.674   3.610   4.269
  851TIP3    H1 2496   5.642   3.666   4.340
  851TIP3    H2 2497   5.740   3.554   4.311
  852TIP3   OH2 2498   1.300   3.417   4.709
  852TIP3    H1 2499   1.276   3.510   4.702
  852TIP3    H2 2500   1.370   3.416   4.775
  853TIP3   OH2 2501   4.433   6.405   3.681
  853TIP3    H1 2502   4.339   6.417   3.670
  853TIP3    H2 2503   4.443   6.314   3.710
  854TIP3   OH2 2504   2.239   6.911   1.792
  854TIP3    H1 2505   2.303   6.911   1.863
  854TIP3    H2 2506   2.167   6.856   1.825
  855TIP3   OH2 2507   7.620   3.613   5.098
  855TIP3    H1 2508   7.566   3.631   5.022
  855TIP3    H2 2509   7.681   3.686   5.102
  856TIP3   OH2 2510   6.908   3.866   0.979
  856TIP3    H1 2511   6.860   3.949   0.991
  856TIP3    H2 2512   6.840   3.799   0.979
  857TIP3   OH2 2513   7.434   0.657   2.630
  857TIP3    H1 2514   7.397   0.683   2.715
  857TIP3    H2 2515   7.470   0.738   2.594
  858TIP3   OH2 2516   0.857   3.105   1.263
  858TIP3    H1 2517   0.823   3.039   1.202
  858TIP3    H2 2518   0.785   3.168   1.272
  859TIP3   OH2 2519   0.332   0.236   3.915
  859TIP3    H1 2520   0.333   0.249   4.010
  859TIP3    H2 2521   0.335   0.324   3.878
  860TIP3   OH2 2522   3.100   0.339   5.255
  860TIP3    H1 2523   3.173   0.400   5.260
  860TIP3    H2 2524   3.050   0.354   5.336
  861TIP3   OH2 2525   7.062   6.322   6.193
  861TIP3    H1 2526   6.972   6.298   6.170
  861TIP3    H2 2527   7.077   6.278   6.277
  862TIP3   OH2 2528   6.826   7.022   1.654
  862TIP3    H1 2529   6.833   7.117   1.653
  862TIP3    H2 2530   6.907   6.992   1.612
  863TIP3   OH2 2531   7.459   0.774   0.733
  863TIP3    H1 2532   7.430   0.700   0.787
  863TIP3    H2 2533   7.389   0.786   0.669
  864TIP3   OH2 2534   7.880   6.620   0.322
  864TIP3    H1 2535   7.875   6.525   0.312
  864TIP3    H2 2536   7.971   6.642   0.307
  865TIP3   OH2 2537   0.578   4.431   5.260
  865TIP3    H1 2538   0.604   4.514   5.298
  865TIP3    H2 2539   0.656   4.376   5.265
  866TIP3   OH2 2540   5.664   3.940   1.194
  866TIP3    H1 2541   5.627   3.906   1.275
  866TIP3    H2 2542   5.597   3.922   1.128
  867TIP3   OH2 2543   3.105   4.724   1.321
  867TIP3    H1 2544   3.064   4.654   1.270
  867TIP3    H2 2545   3.051   4.731   1.400
  868TIP3   OH2 2546   6.942   0.944   2.524
  868TIP3    H1 2547   6.928   0.973   2.434
  868TIP3    H2 2548   6.968   0.852   2.515
  869TIP3   OH2 2549   3.934   4.494   4.215
  869TIP3    H1 2550   3.983   4.576   4.205
  869TIP3    H2 2551   3.975   4.450   4.289
  870TIP3   OH2 2552   7.439   7.568   6.382
  870TIP3    H1 2553   7.405   7.531   6.464
  870TIP3    H2 2554   7.382   7.532   6.314
  871TIP3   OH2 2555   2.386   5.758   4.907
  871TIP3    H1 2556   2.306   5.708   4.923
  871TIP3    H2 2557   2.356   5.848   4.897
  872TIP3   OH2 2558   6.426   1.584   2.005
  872TIP3    H1 2559   6.371   1.571   1.928
  872TIP3    H2 2560   6.367   1.572   2.080
  873TIP3   OH2 2561   4.112   1.315   6.811
  873TIP3    H1 2562   4.168   1.293   6.736
  873TIP3    H2 2563   4.027   1.333   6.772
  874TIP3   OH2 2564   5.950   7.590   3.865
  874TIP3    H1 2565   5.971   7.506   3.825
  874TIP3    H2 2566   5.868   7.617   3.823
  875TIP3   OH2 2567   8.254   0.622   3.554
  875TIP3    H1 2568   8.344   0.644   3.579
  875TIP3    H2 2569   8.202   0.696   3.587
  876TIP3   OH2 2570   6.160   1.775   5.521
  876TIP3    H1 2571   6.075   1.784   5.478
  876TIP3    H2 2572   6.143   1.721   5.598
  877TIP3   OH2 2573   6.389   2.859   4.001
  877TIP3    H1 2574   6.469   2.878   4.050
  877TIP3    H2 2575   6.319   2.864   4.065
  878TIP3   OH2 2576   5.142   0.376   3.559
  878TIP3    H1 2577   5.146   0.413   3.647
  878TIP3    H2 2578   5.092   0.295   3.569
  879TIP3   OH2 2579   7.788   1.502   3.026
  879TIP3    H1 2580   7.704   1.526   3.067
  879TIP3    H2 2581   7.824   1.436   3.085
  880TIP3   OH2 2582   5.577   3.760   3.328
  880TIP3    H1 2583   5.565   3.682   3.273
  880TIP3    H2 2584   5.548   3.733   3.415
  881TIP3   OH2 2585   4.012   5.430   4.727
  881TIP3    H1 2586   4.028   5.410   4.634
  881TIP3    H2 2587   3.989   5.523   4.728
  882TIP3   OH2 2588   0.334   1.708   3.652
  882TIP3    H1 2589   0.368   1.673   3.570
  882TIP3    H2 2590   0.408   1.701   3.713
  883TIP3   OH2 2591   0.300   0.481   0.573
  883TIP3    H1 2592   0.315   0.438   0.657
  883TIP3    H2 2593   0.381   0.528   0.556
  884TIP3   OH2 2594   0.144   3.331   5.664
  884TIP3    H1 2595   0.085   3.405   5.650
  884TIP3    H2 2596   0.086   3.255   5.665
  885TIP3   OH2 2597   6.822   5.858   1.489
  885TIP3    H1 2598   6.745   5.914   1.483
  885TIP3    H2 2599   6.791   5.772   1.463
  886TIP3   OH2 2600   8.221   5.997   6.540
  886TIP3    H1 2601   8.137   5.975   6.579
  886TIP3    H2 2602   8.242   6.084   6.575
  887TIP3   OH2 2603   0.367   1.420   4.485
  887TIP3    H1 2604   0.333   1.505   4.511
  887TIP3    H2 2605   0.460   1.435   4.467
  888TIP3   OH2 2606   3.012   2.377   6.675
  888TIP3    H1 2607   3.009   2.459   6.625
  888TIP3    H2 2608   2.962   2.396   6.755
  889TIP3   OH2 2609   0.435   7.666   4.724
  889TIP3    H1 2610   0.462   7.654   4.815
  889TIP3    H2 2611   0.360   7.608   4.714
  890TIP3   OH2 2612   7.305   0.265   3.536
  890TIP3    H1 2613   7.328   0.189   3.590
  890TIP3    H2 2614   7.320   0.237   3.446
  891TIP3   OH2 2615   1.678   0.886   6.184
  891TIP3    H1 2616   1.717   0.913   6.101
  891TIP3    H2 2617   1.663   0.792   6.174
  892TIP3   OH2 2618   3.698   1.463   5.813
  892TIP3    H1 2619   3.666   1.405   5.743
  892TIP3    H2 2620   3.726   1.543   5.767
  893TIP3   OH2 2621   8.332   4.097   5.396
  893TIP3    H1 2622   8.334   4.179   5.446
  893TIP3    H2 2623   8.259   4.109   5.335
  894TIP3   OH2 2624   0.929   5.737   4.084
  894TIP3    H1 2625   0.914   5.656   4.034
  894TIP3    H2 2626   0.891   5.805   4.029
  895TIP3   OH2 2627   2.927   4.314   5.914
  895TIP3    H1 2628   2.831   4.307   5.909
  895TIP3    H2 2629   2.951   4.371   5.841
  896TIP3   OH2 2630   1.364   5.693   0.946
  896TIP3    H1 2631   1.393   5.694   0.855
  896TIP3    H2 2632   1.422   5.756   0.990
  897TIP3   OH2 2633   3.906   4.112   2.763
  897TIP3    H1 2634   3.946   4.123   2.849
  897TIP3    H2 2635   3.919   4.195   2.719
  898TIP3   OH2 2636   2.188   6.530   2.398
  898TIP3    H1 2637   2.109   6.496   2.357
  898TIP3    H2 2638   2.260   6.486   2.352
  899TIP3   OH2 2639   2.215   6.527   1.306
  899TIP3    H1 2640   2.249   6.588   1.372
  899TIP3    H2 2641   2.201   6.445   1.354
  900TIP3   OH2 2642   6.438   2.711   1.902
  900TIP3    H1 2643   6.404   2.642   1.846
  900TIP3    H2 2644   6.469   2.665   1.981
  901TIP3   OH2 2645   6.851   2.050   0.268
  901TIP3    H1 2646   6.945   2.045   0.251
  901TIP3    H2 2647   6.841   2.121   0.331
  902TIP3   OH2 2648   4.747   0.234   0.829
  902TIP3    H1 2649   4.792   0.313   0.800
  902TIP3    H2 2650   4.813   0.165   0.823
  903TIP3   OH2 2651   7.383   5.875   3.161
  903TIP3    H1 2652   7.406   5.811   3.093
  903TIP3    H2 2653   7.351   5.822   3.234
  904TIP3   OH2 2654   3.716   0.263   2.646
  904TIP3    H1 2655   3.693   0.355   2.660
  904TIP3    H2 2656   3.632   0.219   2.631
  905TIP3   OH2 2657   6.908   0.384   6.736
  905TIP3    H1 2658   7.003   0.389   6.725
  905TIP3    H2 2659   6.875   0.369   6.647
  906TIP3   OH2 2660   7.057   1.389   1.108
  906TIP3    H1 2661   7.087   1.439   1.033
  906TIP3    H2 2662   7.126   1.400   1.174
  907TIP3   OH2 2663   2.762   4.543   5.479
  907TIP3    H1 2664   2.710   4.611   5.521
  907TIP3    H2 2665   2.842   4.587   5.450
  908TIP3   OH2 2666   8.240   1.211   2.280
  908TIP3    H1 2667   8.168   1.160   2.315
  908TIP3    H2 2668   8.305   1.146   2.253
  909TIP3   OH2 2669   0.571   7.673   0.001
  909TIP3    H1 2670   0.495   7.718   0.037
  909TIP3    H2 2671   0.640   7.686   0.065
  910TIP3   OH2 2672   7.012   7.176   0.081
  910TIP3    H1 2673   6.919   7.162   0.100
  910TIP3    H2 2674   7.013   7.254   0.025
  911TIP3   OH2 2675   7.790   1.639   6.180
  911TIP3    H1 2676   7.826   1.552   6.198
  911TIP3    H2 2677   7.805   1.688   6.261
  912TIP3   OH2 2678   0.645   5.874   3.490
  912TIP3    H1 2679   0.657   5.958   3.533
  912TIP3    H2 2680   0.566   5.885   3.437
  913TIP3   OH2 2681   7.484   4.560   4.248
  913TIP3    H1 2682   7.459   4.592   4.335
  913TIP3    H2 2683   7.563   4.609   4.226
  914TIP3   OH2 2684   4.383   6.025   0.647
  914TIP3    H1 2685   4.319   6.022   0.718
  914TIP3    H2 2686   4.363   6.107   0.600
  915TIP3   OH2 2687   2.113   6.320   6.068
  915TIP3    H1 2688   2.108   6.236   6.022
  915TIP3    H2 2689   2.100   6.297   6.160
  916TIP3   OH2 2690   0.152   0.363   1.888
  916TIP3    H1 2691   0.224   0.324   1.839
  916TIP3    H2 2692   0.191   0.438   1.932
  917TIP3   OH2 2693   1.618   6.233   6.174
  917TIP3    H1 2694   1.579   6.314   6.141
  917TIP3    H2 2695   1.573   6.163   6.126
  918TIP3   OH2 2696   1.558   6.356   3.412
  918TIP3    H1 2697   1.485   6.403   3.371
  918TIP3    H2 2698   1.635   6.386   3.363
  919TIP3   OH2 2699   5.871   7.106   1.464
  919TIP3    H1 2700   5.911   7.019   1.466
  919TIP3    H2 2701   5.796   7.099   1.523
  920TIP3   OH2 2702   5.565   4.327   2.080
  920TIP3    H1 2703   5.605   4.310   2.166
  920TIP3    H2 2704   5.561   4.423   2.075
  921TIP3   OH2 2705   1.000   2.678   2.091
  921TIP3    H1 2706   0.912   2.699   2.058
  921TIP3    H2 2707   1.055   2.750   2.060
  922TIP3   OH2 2708   6.984   1.636   0.814
  922TIP3    H1 2709   6.999   1.667   0.903
  922TIP3    H2 2710   6.937   1.708   0.772
  923TIP3   OH2 2711   0.066   7.181   1.533
  923TIP3    H1 2712   0.123   7.252   1.560
  923TIP3    H2 2713   0.119   7.129   1.473
  924TIP3   OH2 2714   5.092   5.804   4.627
  924TIP3    H1 2715   5.037   5.798   4.549
  924TIP3    H2 2716   5.072   5.724   4.676
  925TIP3   OH2 2717   0.553   1.451   3.617
  925TIP3    H1 2718   0.549   1.360   3.648
  925TIP3    H2 2719   0.468   1.466   3.575
  926TIP3   OH2 2720   7.124   5.286   6.623
  926TIP3    H1 2721   7.148   5.377   6.642
  926TIP3    H2 2722   7.178   5.234   6.682
  927TIP3   OH2 2723   8.239   2.400   4.906
  927TIP3    H1 2724   8.310   2.443   4.953
  927TIP3    H2 2725   8.191   2.471   4.864
  928TIP3   OH2 2726   4.200   5.618   0.285
  928TIP3    H1 2727   4.177   5.607   0.378
  928TIP3    H2 2728   4.193   5.530   0.248
  929TIP3   OH2 2729   3.407   6.483   1.720
  929TIP3    H1 2730   3.461   6.527   1.656
  929TIP3    H2 2731   3.465   6.467   1.795
  930TIP3   OH2 2732   5.161   5.865   2.017
  930TIP3    H1 2733   5.117   5.924   1.957
  930TIP3    H2 2734   5.189   5.791   1.962
  931TIP3   OH2 2735   2.081   7.118   0.048
  931TIP3    H1 2736   2.005   7.096   0.101
  931TIP3    H2 2737   2.050   7.185  -0.013
  932TIP3   OH2 2738   5.291   3.958   4.273
  932TIP3    H1 2739   5.248   4.035   4.310
  932TIP3    H2 2740   5.228   3.925   4.209
  933TIP3   OH2 2741   0.452   4.823   5.938
  933TIP3    H1 2742   0.516   4.886   5.971
  933TIP3    H2 2743   0.371   4.873   5.933
  934TIP3   OH2 2744   2.044   0.278   6.622
  934TIP3    H1 2745   1.953   0.307   6.621
  934TIP3    H2 2746   2.091   0.349   6.665
  935TIP3   OH2 2747   2.564   3.191   0.220
  935TIP3    H1 2748   2.490   3.129   0.216
  935TIP3    H2 2749   2.526   3.271   0.257
  936TIP3   OH2 2750   3.004   1.107   5.453
  936TIP3    H1 2751   3.082   1.109   5.508
  936TIP3    H2 2752   3.037   1.087   5.365
  937TIP3   OH2 2753   5.834   3.410   0.582
  937TIP3    H1 2754   5.797   3.493   0.553
  937TIP3    H2 2755   5.909   3.396   0.525
  938TIP3   OH2 2756   7.070   0.996   3.011
  938TIP3    H1 2757   7.116   0.960   2.935
  938TIP3    H2 2758   6.981   0.961   3.004
  939TIP3   OH2 2759   0.531   1.487   5.007
  939TIP3    H1 2760   0.583   1.445   5.076
  939TIP3    H2 2761   0.527   1.579   5.033
  940TIP3   OH2 2762   7.820   4.915   5.343
  940TIP3    H1 2763   7.907   4.919   5.306
  940TIP3    H2 2764   7.822   4.841   5.403
  941TIP3   OH2 2765   1.918   4.362   4.721
  941TIP3    H1 2766   1.873   4.410   4.790
  941TIP3    H2 2767   1.849   4.319   4.671
  942TIP3   OH2 2768   1.540   1.322   1.951
  942TIP3    H1 2769   1.469   1.383   1.972
  942TIP3    H2 2770   1.513   1.280   1.870
  943TIP3   OH2 2771   1.825   7.588   2.168
  943TIP3    H1 2772   1.811   7.591   2.263
  943TIP3    H2 2773   1.831   7.495   2.147
  944TIP3   OH2 2774   0.040   2.425   5.567
  944TIP3    H1 2775   0.041   2.493   5.635
  944TIP3    H2 2776   0.107   2.453   5.505
  945TIP3   OH2 2777   3.149   0.044   2.190
  945TIP3    H1 2778   3.212   0.114   2.208
  945TIP3    H2 2779   3.065   0.089   2.181
  946TIP3   OH2 2780   2.999   1.763   3.354
  946TIP3    H1 2781   2.914   1.719   3.358
  946TIP3    H2 2782   2.981   1.846   3.309
  947TIP3   OH2 2783   0.808   7.409   2.417
  947TIP3    H1 2784   0.856   7.400   2.335
  947TIP3    H2 2785   0.716   7.399   2.392
  948TIP3   OH2 2786   0.171   6.141   1.022
  948TIP3    H1 2787   0.244   6.155   1.082
  948TIP3    H2 2788   0.211   6.109   0.941
  949TIP3   OH2 2789   1.192   4.926   4.590
  949TIP3    H1 2790   1.144   4.851   4.556
  949TIP3    H2 2791   1.273   4.888   4.626
  950TIP3   OH2 2792   0.679   5.936   0.786
  950TIP3    H1 2793   0.723   5.969   0.707
  950TIP3    H2 2794   0.721   5.851   0.801
  951TIP3   OH2 2795   3.117   6.647   1.832
  951TIP3    H1 2796   3.088   6.714   1.893
  951TIP3    H2 2797   3.213   6.653   1.833
  952TIP3   OH2 2798   3.119   2.164   2.833
  952TIP3    H1 2799   3.115   2.099   2.904
  952TIP3    H2 2800   3.028   2.176   2.806
  953TIP3   OH2 2801   3.855   3.770   3.007
  953TIP3    H1 2802   3.806   3.790   2.927
  953TIP3    H2 2803   3.937   3.819   2.998
  954TIP3   OH2 2804   2.257   0.563   2.204
  954TIP3    H1 2805   2.173   0.519   2.188
  954TIP3    H2 2806   2.262   0.572   2.299
  955TIP3   OH2 2807   5.848   5.087   6.462
  955TIP3    H1 2808   5.898   5.089   6.544
  955TIP3    H2 2809   5.757   5.076   6.491
  956TIP3   OH2 2810   5.985   5.178   3.698
  956TIP3    H1 2811   5.962   5.270   3.711
  956TIP3    H2 2812   6.034   5.176   3.616
  957TIP3   OH2 2813   7.011   6.184   0.577
  957TIP3    H1 2814   6.965   6.116   0.627
  957TIP3    H2 2815   7.052   6.137   0.504
  958TIP3   OH2 2816   7.780   2.403   1.805
  958TIP3    H1 2817   7.872   2.418   1.826
  958TIP3    H2 2818   7.768   2.441   1.718
  959TIP3   OH2 2819   5.351   5.716   4.658
  959TIP3    H1 2820   5.376   5.669   4.579
  959TIP3    H2 2821   5.263   5.749   4.639
  960TIP3   OH2 2822   0.546   3.560   2.069
  960TIP3    H1 2823   0.533   3.635   2.012
  960TIP3    H2 2824   0.496   3.581   2.148
  961TIP3   OH2 2825   1.704   4.271   1.706
  961TIP3    H1 2826   1.615   4.302   1.693
  961TIP3    H2 2827   1.704   4.183   1.668
  962TIP3   OH2 2828   0.402   0.761   5.867
  962TIP3    H1 2829   0.428   0.674   5.837
  962TIP3    H2 2830   0.310   0.751   5.893
  963TIP3   OH2 2831   5.178   4.666   5.664
  963TIP3    H1 2832   5.208   4.643   5.752
  963TIP3    H2 2833   5.213   4.596   5.608
  964TIP3   OH2 2834   5.531   4.664   5.355
  964TIP3    H1 2835   5.560   4.641   5.443
  964TIP3    H2 2836   5.449   4.615   5.343
  965TIP3   OH2 2837   6.554   6.707   0.193
  965TIP3    H1 2838   6.466   6.672   0.203
  965TIP3    H2 2839   6.546   6.799   0.217
  966TIP3   OH2 2840   6.749   0.944   6.517
  966TIP3    H1 2841   6.790   1.026   6.544
  966TIP3    H2 2842   6.812   0.903   6.458
  967TIP3   OH2 2843   3.273   0.728   3.315
  967TIP3    H1 2844   3.218   0.781   3.257
  967TIP3    H2 2845   3.361   0.735   3.277
  968TIP3   OH2 2846   0.644   7.307   0.326
  968TIP3    H1 2847   0.708   7.378   0.328
  968TIP3    H2 2848   0.692   7.230   0.355
  969TIP3   OH2 2849   8.185   6.069   5.239
  969TIP3    H1 2850   8.234   6.032   5.312
  969TIP3    H2 2851   8.102   6.097   5.278
  970TIP3   OH2 2852   7.333   4.311   1.792
  970TIP3    H1 2853   7.380   4.237   1.753
  970TIP3    H2 2854   7.241   4.287   1.785
  971TIP3   OH2 2855   3.290   0.618   6.158
  971TIP3    H1 2856   3.365   0.564   6.132
  971TIP3    H2 2857   3.244   0.635   6.076
  972TIP3   OH2 2858   4.692   1.017   3.440
  972TIP3    H1 2859   4.712   0.947   3.378
  972TIP3    H2 2860   4.774   1.066   3.448
  973TIP3   OH2 2861   0.085   4.501   1.718
  973TIP3    H1 2862   0.052   4.550   1.793
  973TIP3    H2 2863   0.017   4.510   1.652
  974TIP3   OH2 2864   1.108   3.000   0.937
  974TIP3    H1 2865   1.059   3.055   0.998
  974TIP3    H2 2866   1.115   2.915   0.982
  975TIP3   OH2 2867   5.538   6.858   2.803
  975TIP3    H1 2868   5.480   6.828   2.874
  975TIP3    H2 2869   5.527   6.793   2.734
  976TIP3   OH2 2870   4.943   6.416   0.799
  976TIP3    H1 2871   4.861   6.399   0.846
  976TIP3    H2 2872   4.932   6.369   0.716
  977TIP3   OH2 2873   8.228   4.056   2.854
  977TIP3    H1 2874   8.258   4.101   2.933
  977TIP3    H2 2875   8.279   4.095   2.783
  978TIP3   OH2 2876   4.787   0.050   5.482
  978TIP3    H1 2877   4.809   0.119   5.544
  978TIP3    H2 2878   4.813  -0.031   5.527
  979TIP3   OH2 2879   6.473   3.605   0.169
  979TIP3    H1 2880   6.489   3.596   0.075
  979TIP3    H2 2881   6.516   3.688   0.193
  980TIP3   OH2 2882   6.374   5.093   0.374
  980TIP3    H1 2883   6.295   5.106   0.425
  980TIP3    H2 2884   6.444   5.128   0.429
  981TIP3   OH2 2885   3.716   4.627   6.447
  981TIP3    H1 2886   3.763   4.548   6.419
  981TIP3    H2 2887   3.630   4.596   6.474
  982TIP3   OH2 2888   5.519   1.187   2.116
  982TIP3    H1 2889   5.559   1.100   2.107
  982TIP3    H2 2890   5.425   1.170   2.108
  983TIP3   OH2 2891   4.618   6.678   1.390
  983TIP3    H1 2892   4.536   6.660   1.437
  983TIP3    H2 2893   4.600   6.757   1.340
  984TIP3   OH2 2894   4.545   6.172   2.842
  984TIP3    H1 2895   4.584   6.194   2.926
  984TIP3    H2 2896   4.464   6.125   2.865
  985TIP3   OH2 2897   1.683   6.622   2.086
  985TIP3    H1 2898   1.649   6.711   2.088
  985TIP3    H2 2899   1.760   6.625   2.143
  986TIP3   OH2 2900   4.519   2.987   0.069
  986TIP3    H1 2901   4.501   3.081   0.061
  986TIP3    H2 2902   4.614   2.980   0.059
  987TIP3   OH2 2903   3.597   6.330   4.911
  987TIP3    H1 2904   3.577   6.385   4.986
  987TIP3    H2 2905   3.526   6.266   4.909
  988TIP3   OH2 2906   6.734   1.427   3.488
  988TIP3    H1 2907   6.660   1.463   3.538
  988TIP3    H2 2908   6.714   1.450   3.397
  989TIP3   OH2 2909   2.594   1.247   3.905
  989TIP3    H1 2910   2.594   1.282   3.993
  989TIP3    H2 2911   2.654   1.173   3.908
  990TIP3   OH2 2912   6.319   7.183   2.467
  990TIP3    H1 2913   6.386   7.139   2.519
  990TIP3    H2 2914   6.236   7.157   2.508
  991TIP3   OH2 2915   8.227   0.985   4.670
  991TIP3    H1 2916   8.189   1.052   4.726
  991TIP3    H2 2917   8.179   0.905   4.692
  992TIP3   OH2 2918   6.231   0.953   3.687
  992TIP3    H1 2919   6.262   1.023   3.628
  992TIP3    H2 2920   6.280   0.966   3.768
  993TIP3   OH2 2921   3.139   1.389   2.785
  993TIP3    H1 2922   3.102   1.402   2.698
  993TIP3    H2 2923   3.159   1.478   2.815
  994TIP3   OH2 2924   3.663   7.631   1.926
  994TIP3    H1 2925   3.721   7.565   1.889
  994TIP3    H2 2926   3.718   7.677   1.990
  995TIP3   OH2 2927   3.895   1.642   5.714
  995TIP3    H1 2928   3.858   1.726   5.687
  995TIP3    H2 2929   3.980   1.664   5.752
  996TIP3   OH2 2930   2.451   0.641   3.794
  996TIP3    H1 2931   2.356   0.646   3.803
  996TIP3    H2 2932   2.478   0.732   3.777
  997TIP3   OH2 2933   7.984   1.478   2.831
  997TIP3    H1 2934   8.050   1.408   2.823
  997TIP3    H2 2935   7.929   1.449   2.904
  998TIP3   OH2 2936   6.384   5.605   4.827
  998TIP3    H1 2937   6.346   5.564   4.749
  998TIP3    H2 2938   6.404   5.694   4.799
  999TIP3   OH2 2939   2.737   3.789  -0.015
  999TIP3    H1 2940   2.830   3.810  -0.027
  999TIP3    H2 2941   2.696   3.873   0.007
 1000TIP3   OH2 2942   6.653   7.487   1.760
 1000TIP3    H1 2943   6.608   7.566   1.788
 1000TIP3    H2 2944   6.591   7.416   1.779
 1001TIP3   OH2 2945   7.931   7.430   5.633
 1001TIP3    H1 2946   7.855   7.483   5.610
 1001TIP3    H2 2947   7.962   7.468   5.716
 1002TIP3   OH2 2948   4.633   3.680   4.813
 1002TIP3    H1 2949   4.539   3.680   4.792
 1002TIP3    H2 2950   4.646   3.600   4.865
 1003TIP3   OH2 2951   1.501   1.994   6.384
 1003TIP3    H1 2952   1.482   1.957   6.470
 1003TIP3    H2 2953   1.513   1.918   6.327
 1004TIP3   OH2 2954   6.500   6.914   5.548
 1004TIP3    H1 2955   6.446   6.844   5.512
 1004TIP3    H2 2956   6.438   6.979   5.581
 1005TIP3   OH2 2957   2.675   3.990   5.080
 1005TIP3    H1 2958   2.602   4.013   5.023
 1005TIP3    H2 2959   2.738   4.063   5.069
 1006TIP3   OH2 2960   6.883   6.703   3.555
 1006TIP3    H1 2961   6.800   6.693   3.507
 1006TIP3    H2 2962   6.892   6.621   3.604
 1007TIP3   OH2 2963   0.894   1.396   0.834
 1007TIP3    H1 2964   0.871   1.374   0.924
 1007TIP3    H2 2965   0.814   1.431   0.797
 1008TIP3   OH2 2966   7.917   2.237   0.570
 1008TIP3    H1 2967   7.986   2.287   0.527
 1008TIP3    H2 2968   7.901   2.284   0.652
 1009TIP3   OH2 2969   6.137   2.499   5.930
 1009TIP3    H1 2970   6.131   2.570   5.995
 1009TIP3    H2 2971   6.229   2.473   5.932
 1010TIP3   OH2 2972   5.601   4.589   3.687
 1010TIP3    H1 2973   5.506   4.581   3.685
 1010TIP3    H2 2974   5.619   4.676   3.652
 1011TIP3   OH2 2975   1.580   5.954   6.131
 1011TIP3    H1 2976   1.570   5.865   6.097
 1011TIP3    H2 2977   1.607   5.942   6.222
 1012TIP3   OH2 2978   5.757   2.328   4.789
 1012TIP3    H1 2979   5.728   2.392   4.854
 1012TIP3    H2 2980   5.719   2.245   4.819
 1013TIP3   OH2 2981   5.064   6.662   2.238
 1013TIP3    H1 2982   5.049   6.584   2.184
 1013TIP3    H2 2983   5.144   6.701   2.202
 1014TIP3   OH2 2984   7.923   4.533   2.979
 1014TIP3    H1 2985   7.878   4.555   3.061
 1014TIP3    H2 2986   7.864   4.472   2.936
 1015TIP3   OH2 2987   2.066   6.010   0.283
 1015TIP3    H1 2988   2.141   6.060   0.250
 1015TIP3    H2 2989   2.097   5.920   0.286
 1016TIP3   OH2 2990   4.142   5.561   0.552
 1016TIP3    H1 2991   4.154   5.469   0.576
 1016TIP3    H2 2992   4.221   5.605   0.585
 1017TIP3   OH2 2993   8.278   4.569   0.675
 1017TIP3    H1 2994   8.189   4.552   0.704
 1017TIP3    H2 2995   8.333   4.547   0.751
 1018TIP3   OH2 2996   0.229   5.433   3.230
 1018TIP3    H1 2997   0.235   5.510   3.173
 1018TIP3    H2 2998   0.189   5.467   3.310
 1019TIP3   OH2 2999   0.789   2.926   0.961
 1019TIP3    H1 3000   0.813   2.874   1.038
 1019TIP3    H2 3001   0.701   2.958   0.980
 1020TIP3   OH2 3002   0.384   6.162   0.314
 1020TIP3    H1 3003   0.442   6.132   0.385
 1020TIP3    H2 3004   0.379   6.257   0.325
 1021TIP3   OH2 3005   2.053   7.673   4.274
 1021TIP3    H1 3006   1.980   7.717   4.230
 1021TIP3    H2 3007   2.089   7.740   4.332
 1022TIP3   OH2 3008   4.398   1.655   0.272
 1022TIP3    H1 3009   4.390   1.561   0.257
 1022TIP3    H2 3010   4.426   1.662   0.364
 1023TIP3   OH2 3011   1.814   7.163   1.583
 1023TIP3    H1 3012   1.848   7.088   1.631
 1023TIP3    H2 3013   1.853   7.239   1.626
 1024TIP3   OH2 3014   8.221   1.824   4.745
 1024TIP3    H1 3015   8.209   1.893   4.679
 1024TIP3    H2 3016   8.191   1.744   4.700
 1025TIP3   OH2 3017   1.606   2.151   3.994
 1025TIP3    H1 3018   1.663   2.228   3.985
 1025TIP3    H2 3019   1.547   2.173   4.066
 1026TIP3   OH2 3020   2.767   5.399   3.496
 1026TIP3    H1 3021   2.796   5.462   3.430
 1026TIP3    H2 3022   2.673   5.392   3.484
 1027TIP3   OH2 3023   7.276   3.532   6.264
 1027TIP3    H1 3024   7.198   3.496   6.306
 1027TIP3    H2 3025   7.249   3.546   6.173
 1028TIP3   OH2 3026   2.831   3.212   5.346
 1028TIP3    H1 3027   2.775   3.142   5.380
 1028TIP3    H2 3028   2.897   3.166   5.293
 1029TIP3   OH2 3029   4.510   4.405   1.250
 1029TIP3    H1 3030   4.495   4.320   1.292
 1029TIP3    H2 3031   4.422   4.437   1.229
 1030TIP3   OH2 3032   2.842   7.685   0.044
 1030TIP3    H1 3033   2.932   7.693   0.015
 1030TIP3    H2 3034   2.801   7.767   0.016
 1031TIP3   OH2 3035   7.629   1.110   6.687
 1031TIP3    H1 3036   7.558   1.063   6.731
 1031TIP3    H2 3037   7.671   1.044   6.631
 1032TIP3   OH2 3038   0.864   4.180   4.695
 1032TIP3    H1 3039   0.769   4.175   4.696
 1032TIP3    H2 3040   0.884   4.254   4.753
 1033TIP3   OH2 3041   4.235   1.269   0.842
 1033TIP3    H1 3042   4.224   1.239   0.932
 1033TIP3    H2 3043   4.311   1.222   0.810
 1034TIP3   OH2 3044   7.757   3.232   1.931
 1034TIP3    H1 3045   7.677   3.276   1.960
 1034TIP3    H2 3046   7.756   3.148   1.977
 1035TIP3   OH2 3047   7.568   4.269   5.442
 1035TIP3    H1 3048   7.574   4.233   5.354
 1035TIP3    H2 3049   7.629   4.218   5.494
 1036TIP3   OH2 3050   3.241   2.219   3.854
 1036TIP3    H1 3051   3.337   2.216   3.844
 1036TIP3    H2 3052   3.214   2.291   3.796
 1037TIP3   OH2 3053   5.707   2.138   3.379
 1037TIP3    H1 3054   5.777   2.127   3.314
 1037TIP3    H2 3055   5.749   2.118   3.462
 1038TIP3   OH2 3056   5.651   3.563   5.324
 1038TIP3    H1 3057   5.724   3.541   5.266
 1038TIP3    H2 3058   5.594   3.618   5.271
 1039TIP3   OH2 3059   6.113   5.850   2.717
 1039TIP3    H1 3060   6.195   5.882   2.679
 1039TIP3    H2 3061   6.052   5.847   2.644
 1040TIP3   OH2 3062   7.242   0.508   5.092
 1040TIP3    H1 3063   7.276   0.589   5.130
 1040TIP3    H2 3064   7.254   0.519   4.998
 1041TIP3   OH2 3065   2.595   3.978   2.276
 1041TIP3    H1 3066   2.619   3.959   2.366
 1041TIP3    H2 3067   2.679   3.995   2.232
 1042TIP3   OH2 3068   5.577   0.119   5.358
 1042TIP3    H1 3069   5.511   0.163   5.305
 1042TIP3    H2 3070   5.659   0.163   5.336
 1043TIP3   OH2 3071   5.169   5.379   4.734
 1043TIP3    H1 3072   5.114   5.350   4.661
 1043TIP3    H2 3073   5.253   5.337   4.719
 1044TIP3   OH2 3074   6.212   4.368   4.621
 1044TIP3    H1 3075   6.135   4.311   4.621
 1044TIP3    H2 3076   6.185   4.446   4.572
 1045TIP3   OH2 3077   1.843   1.837   6.384
 1045TIP3    H1 3078   1.826   1.904   6.318
 1045TIP3    H2 3079   1.788   1.763   6.358
 1046TIP3   OH2 3080   2.729   1.444   0.411
 1046TIP3    H1 3081   2.699   1.532   0.388
 1046TIP3    H2 3082   2.758   1.406   0.328
 1047TIP3   OH2 3083   2.262   7.234   6.615
 1047TIP3    H1 3084   2.354   7.229   6.639
 1047TIP3    H2 3085   2.225   7.149   6.640
 1048TIP3   OH2 3086   6.214   6.641   0.127
 1048TIP3    H1 3087   6.182   6.556   0.156
 1048TIP3    H2 3088   6.277   6.621   0.057
 1049TIP3   OH2 3089   4.859   2.847   6.062
 1049TIP3    H1 3090   4.931   2.784   6.057
 1049TIP3    H2 3091   4.785   2.801   6.023
 1050TIP3   OH2 3092   8.061   3.755   1.066
 1050TIP3    H1 3093   8.028   3.742   0.977
 1050TIP3    H2 3094   8.081   3.667   1.098
 1051TIP3   OH2 3095   5.518   0.157   3.583
 1051TIP3    H1 3096   5.479   0.095   3.645
 1051TIP3    H2 3097   5.443   0.189   3.532
 1052TIP3   OH2 3098   6.147   5.708   5.895
 1052TIP3    H1 3099   6.101   5.744   5.971
 1052TIP3    H2 3100   6.094   5.633   5.869
 1053TIP3   OH2 3101   2.933   7.808   2.618
 1053TIP3    H1 3102   2.969   7.720   2.602
 1053TIP3    H2 3103   2.850   7.810   2.571
 1054TIP3   OH2 3104   6.440   6.459   4.407
 1054TIP3    H1 3105   6.401   6.516   4.341
 1054TIP3    H2 3106   6.464   6.380   4.359
 1055TIP3   OH2 3107   7.704   3.567   2.055
 1055TIP3    H1 3108   7.716   3.658   2.083
 1055TIP3    H2 3109   7.697   3.572   1.959
 1056TIP3   OH2 3110   0.700   0.310   5.258
 1056TIP3    H1 3111   0.629   0.373   5.251
 1056TIP3    H2 3112   0.722   0.310   5.351
 1057TIP3   OH2 3113   1.261   3.362   3.399
 1057TIP3    H1 3114   1.266   3.272   3.429
 1057TIP3    H2 3115   1.309   3.412   3.466
 1058TIP3   OH2 3116   0.425   3.594   0.090
 1058TIP3    H1 3117   0.448   3.681   0.121
 1058TIP3    H2 3118   0.330   3.588   0.102
 1059TIP3   OH2 3119   3.844   3.634   5.497
 1059TIP3    H1 3120   3.751   3.649   5.478
 1059TIP3    H2 3121   3.888   3.712   5.463
 1060TIP3   OH2 3122   5.474   0.764   1.105
 1060TIP3    H1 3123   5.559   0.753   1.063
 1060TIP3    H2 3124   5.493   0.811   1.186
 1061TIP3   OH2 3125   7.747   6.996   1.220
 1061TIP3    H1 3126   7.658   6.964   1.207
 1061TIP3    H2 3127   7.747   7.084   1.185
 1062TIP3   OH2 3128   2.347   4.956   0.799
 1062TIP3    H1 3129   2.325   5.044   0.828
 1062TIP3    H2 3130   2.441   4.948   0.815
 1063TIP3   OH2 3131   6.365   5.524   0.750
 1063TIP3    H1 3132   6.399   5.554   0.834
 1063TIP3    H2 3133   6.380   5.429   0.751
 1064TIP3   OH2 3134   4.855   0.902   1.734
 1064TIP3    H1 3135   4.814   0.816   1.740
 1064TIP3    H2 3136   4.798   0.952   1.676
 1065TIP3   OH2 3137   6.070   6.795   5.188
 1065TIP3    H1 3138   6.137   6.820   5.124
 1065TIP3    H2 3139   6.113   6.807   5.272
 1066TIP3   OH2 3140   2.231   6.785   0.186
 1066TIP3    H1 3141   2.252   6.765   0.095
 1066TIP3    H2 3142   2.258   6.876   0.198
 1067TIP3   OH2 3143   5.183   4.591   5.957
 1067TIP3    H1 3144   5.196   4.643   6.036
 1067TIP3    H2 3145   5.122   4.522   5.983
 1068TIP3   OH2 3146   4.656   6.588   2.949
 1068TIP3    H1 3147   4.613   6.673   2.952
 1068TIP3    H2 3148   4.676   6.574   2.856
 1069TIP3   OH2 3149   6.002   5.718   0.632
 1069TIP3    H1 3150   6.058   5.794   0.648
 1069TIP3    H2 3151   6.043   5.647   0.681
 1070TIP3   OH2 3152   6.693   1.659   5.713
 1070TIP3    H1 3153   6.783   1.687   5.729
 1070TIP3    H2 3154   6.698   1.605   5.634
 1071TIP3   OH2 3155   1.452   7.428   0.036
 1071TIP3    H1 3156   1.471   7.402   0.126
 1071TIP3    H2 3157   1.529   7.478   0.009
 1072TIP3   OH2 3158   4.813   4.053   0.893
 1072TIP3    H1 3159   4.774   4.060   0.980
 1072TIP3    H2 3160   4.739   4.038   0.835
 1073TIP3   OH2 3161   4.783   7.746   5.984
 1073TIP3    H1 3162   4.778   7.789   6.069
 1073TIP3    H2 3163   4.718   7.676   5.989
 1074TIP3   OH2 3164   6.334   2.361   6.196
 1074TIP3    H1 3165   6.403   2.428   6.202
 1074TIP3    H2 3166   6.328   2.326   6.284
 1075TIP3   OH2 3167   4.523   2.248   4.526
 1075TIP3    H1 3168   4.562   2.323   4.571
 1075TIP3    H2 3169   4.498   2.282   4.440
 1076TIP3   OH2 3170   7.844   6.598   2.447
 1076TIP3    H1 3171   7.888   6.564   2.369
 1076TIP3    H2 3172   7.820   6.687   2.424
 1077TIP3   OH2 3173   1.542   1.167   5.926
 1077TIP3    H1 3174   1.590   1.168   6.009
 1077TIP3    H2 3175   1.463   1.218   5.943
 1078TIP3   OH2 3176   5.186   5.461   5.592
 1078TIP3    H1 3177   5.210   5.433   5.680
 1078TIP3    H2 3178   5.178   5.556   5.598
 1079TIP3   OH2 3179   0.009   6.177   2.518
 1079TIP3    H1 3180  -0.074   6.225   2.515
 1079TIP3    H2 3181   0.024   6.150   2.428
 1080TIP3   OH2 3182   5.593   6.213   4.729
 1080TIP3    H1 3183   5.531   6.196   4.658
 1080TIP3    H2 3184   5.648   6.135   4.731
 1081TIP3   OH2 3185   7.446   5.265   2.121
 1081TIP3    H1 3186   7.400   5.320   2.058
 1081TIP3    H2 3187   7.427   5.306   2.206
 1082TIP3   OH2 3188   2.770   5.818   3.651
 1082TIP3    H1 3189   2.827   5.843   3.579
 1082TIP3    H2 3190   2.695   5.878   3.644
 1083TIP3   OH2 3191   4.660   1.557   6.068
 1083TIP3    H1 3192   4.660   1.521   5.979
 1083TIP3    H2 3193   4.624   1.645   6.058
 1084TIP3   OH2 3194   4.637   1.543   4.974
 1084TIP3    H1 3195   4.651   1.483   4.902
 1084TIP3    H2 3196   4.569   1.502   5.028
 1085TIP3   OH2 3197   6.350   4.426   4.041
 1085TIP3    H1 3198   6.434   4.436   3.996
 1085TIP3    H2 3199   6.288   4.474   3.986
 1086TIP3   OH2 3200   0.071   4.127   5.821
 1086TIP3    H1 3201   0.084   4.216   5.853
 1086TIP3    H2 3202   0.150   4.107   5.770
 1087TIP3   OH2 3203   3.685   4.202   3.239
 1087TIP3    H1 3204   3.696   4.124   3.293
 1087TIP3    H2 3205   3.692   4.170   3.149
 1088TIP3   OH2 3206   8.053   6.170   1.390
 1088TIP3    H1 3207   7.999   6.095   1.367
 1088TIP3    H2 3208   7.991   6.243   1.396
 1089TIP3   OH2 3209   3.043   3.815   4.496
 1089TIP3    H1 3210   3.106   3.797   4.566
 1089TIP3    H2 3211   3.088   3.877   4.439
 1090TIP3   OH2 3212   1.050   7.810   1.552
 1090TIP3    H1 3213   1.065   7.880   1.616
 1090TIP3    H2 3214   1.105   7.834   1.477
 1091TIP3   OH2 3215   2.250   7.032   5.572
 1091TIP3    H1 3216   2.276   7.101   5.634
 1091TIP3    H2 3217   2.157   7.049   5.556
 1092TIP3   OH2 3218   6.673   6.376   2.238
 1092TIP3    H1 3219   6.706   6.287   2.222
 1092TIP3    H2 3220   6.578   6.367   2.234
 1093TIP3   OH2 3221   3.869   5.096   0.846
 1093TIP3    H1 3222   3.795   5.119   0.791
 1093TIP3    H2 3223   3.851   5.007   0.876
 1094TIP3   OH2 3224   1.767   6.525   4.787
 1094TIP3    H1 3225   1.774   6.609   4.833
 1094TIP3    H2 3226   1.834   6.470   4.828
 1095TIP3   OH2 3227   1.583   4.459   2.787
 1095TIP3    H1 3228   1.675   4.434   2.778
 1095TIP3    H2 3229   1.546   4.393   2.846
 1096TIP3   OH2 3230   1.987   5.467   0.112
 1096TIP3    H1 3231   1.947   5.440   0.029
 1096TIP3    H2 3232   2.005   5.384   0.158
 1097TIP3   OH2 3233   4.009   7.590   6.800
 1097TIP3    H1 3234   4.017   7.677   6.837
 1097TIP3    H2 3235   4.069   7.589   6.725
 1098TIP3   OH2 3236   1.218   2.745   2.734
 1098TIP3    H1 3237   1.132   2.785   2.742
 1098TIP3    H2 3238   1.279   2.818   2.741
 1099TIP3   OH2 3239   7.148   4.685   2.618
 1099TIP3    H1 3240   7.062   4.725   2.606
 1099TIP3    H2 3241   7.206   4.758   2.640
 1100TIP3   OH2 3242   0.761   1.243   2.849
 1100TIP3    H1 3243   0.805   1.168   2.890
 1100TIP3    H2 3244   0.821   1.272   2.780
 1101TIP3   OH2 3245   1.978   5.492   3.663
 1101TIP3    H1 3246   2.049   5.430   3.675
 1101TIP3    H2 3247   1.899   5.445   3.689
 1102TIP3   OH2 3248   0.272   0.245   0.750
 1102TIP3    H1 3249   0.351   0.283   0.788
 1102TIP3    H2 3250   0.300   0.214   0.664
 1103TIP3   OH2 3251   5.866   5.132   4.917
 1103TIP3    H1 3252   5.905   5.212   4.950
 1103TIP3    H2 3253   5.773   5.154   4.904
 1104TIP3   OH2 3254   3.070   3.563   4.262
 1104TIP3    H1 3255   3.113   3.486   4.298
 1104TIP3    H2 3256   3.025   3.531   4.184
 1105TIP3   OH2 3257   7.591   7.600   0.154
 1105TIP3    H1 3258   7.618   7.520   0.198
 1105TIP3    H2 3259   7.512   7.576   0.106
 1106TIP3   OH2 3260   6.670   5.290   0.270
 1106TIP3    H1 3261   6.600   5.356   0.267
 1106TIP3    H2 3262   6.678   5.261   0.179
 1107TIP3   OH2 3263   0.795   6.700   2.278
 1107TIP3    H1 3264   0.866   6.638   2.261
 1107TIP3    H2 3265   0.813   6.774   2.221
 1108TIP3   OH2 3266   2.270   1.675   6.195
 1108TIP3    H1 3267   2.226   1.695   6.278
 1108TIP3    H2 3268   2.208   1.621   6.147
 1109TIP3   OH2 3269   4.500   1.666   1.727
 1109TIP3    H1 3270   4.484   1.744   1.675
 1109TIP3    H2 3271   4.453   1.682   1.809
 1110TIP3   OH2 3272   5.737   4.361   5.846
 1110TIP3    H1 3273   5.649   4.325   5.856
 1110TIP3    H2 3274   5.728   4.453   5.867
 1111TIP3   OH2 3275   3.157   4.426   1.970
 1111TIP3    H1 3276   3.119   4.497   1.918
 1111TIP3    H2 3277   3.164   4.462   2.058
 1112TIP3   OH2 3278   4.535   7.136   2.926
 1112TIP3    H1 3279   4.509   7.184   3.004
 1112TIP3    H2 3280   4.630   7.144   2.923
 1113TIP3   OH2 3281   3.698   3.156   2.192
 1113TIP3    H1 3282   3.713   3.251   2.196
 1113TIP3    H2 3283   3.783   3.118   2.216
 1114TIP3   OH2 3284   5.424   4.267   5.340
 1114TIP3    H1 3285   5.411   4.216   5.260
 1114TIP3    H2 3286   5.357   4.335   5.336
 1115TIP3   OH2 3287   3.413   2.389   4.862
 1115TIP3    H1 3288   3.398   2.337   4.783
 1115TIP3    H2 3289   3.377   2.335   4.933
 1116TIP3   OH2 3290   2.173   2.551   0.375
 1116TIP3    H1 3291   2.095   2.513   0.416
 1116TIP3    H2 3292   2.184   2.502   0.294
 1117TIP3   OH2 3293   3.043   3.252   1.396
 1117TIP3    H1 3294   2.970   3.303   1.430
 1117TIP3    H2 3295   3.055   3.283   1.306
 1118TIP3   OH2 3296   6.702   6.174   3.705
 1118TIP3    H1 3297   6.636   6.175   3.635
 1118TIP3    H2 3298   6.774   6.121   3.670
 1119TIP3   OH2 3299   4.636   4.520   0.108
 1119TIP3    H1 3300   4.729   4.515   0.134
 1119TIP3    H2 3301   4.608   4.429   0.105
 1120TIP3   OH2 3302   5.964   1.812   4.361
 1120TIP3    H1 3303   5.883   1.819   4.411
 1120TIP3    H2 3304   5.944   1.750   4.291
 1121TIP3   OH2 3305   4.797   4.450   5.541
 1121TIP3    H1 3306   4.814   4.537   5.577
 1121TIP3    H2 3307   4.829   4.389   5.608
 1122TIP3   OH2 3308   1.330   4.650   2.978
 1122TIP3    H1 3309   1.265   4.630   3.045
 1122TIP3    H2 3310   1.292   4.619   2.896
 1123TIP3   OH2 3311   0.798   2.317   0.219
 1123TIP3    H1 3312   0.777   2.225   0.237
 1123TIP3    H2 3313   0.729   2.367   0.263
 1124TIP3   OH2 3314   7.147   6.056   3.095
 1124TIP3    H1 3315   7.053   6.076   3.086
 1124TIP3    H2 3316   7.156   5.967   3.061
 1125TIP3   OH2 3317   2.806   1.498   6.208
 1125TIP3    H1 3318   2.809   1.416   6.157
 1125TIP3    H2 3319   2.714   1.507   6.232
 1126TIP3   OH2 3320   2.450   0.854   0.621
 1126TIP3    H1 3321   2.516   0.923   0.628
 1126TIP3    H2 3322   2.401   0.858   0.702
 1127TIP3   OH2 3323   4.955   4.347   4.789
 1127TIP3    H1 3324   4.977   4.254   4.781
 1127TIP3    H2 3325   4.973   4.384   4.703
 1128TIP3   OH2 3326   8.301   3.574   3.202
 1128TIP3    H1 3327   8.239   3.519   3.155
 1128TIP3    H2 3328   8.381   3.521   3.207
 1129TIP3   OH2 3329   6.917   1.278   4.624
 1129TIP3    H1 3330   6.953   1.345   4.683
 1129TIP3    H2 3331   6.824   1.299   4.617
 1130TIP3   OH2 3332   4.463   5.764   1.247
 1130TIP3    H1 3333   4.520   5.776   1.171
 1130TIP3    H2 3334   4.456   5.850   1.286
 1131TIP3   OH2 3335   3.679   5.971   6.508
 1131TIP3    H1 3336   3.753   5.961   6.448
 1131TIP3    H2 3337   3.709   6.035   6.572
 1132TIP3   OH2 3338   3.040   1.723   2.464
 1132TIP3    H1 3339   2.947   1.743   2.456
 1132TIP3    H2 3340   3.074   1.787   2.526
 1133TIP3   OH2 3341   3.287   6.007   3.148
 1133TIP3    H1 3342   3.337   5.961   3.080
 1133TIP3    H2 3343   3.328   5.981   3.230
 1134TIP3   OH2 3344   5.262   6.859   0.749
 1134TIP3    H1 3345   5.262   6.822   0.661
 1134TIP3    H2 3346   5.301   6.946   0.738
 1135TIP3   OH2 3347   1.258   1.891   5.267
 1135TIP3    H1 3348   1.294   1.844   5.342
 1135TIP3    H2 3349   1.225   1.973   5.303
 1136TIP3   OH2 3350   1.852   1.535   6.392
 1136TIP3    H1 3351   1.803   1.465   6.437
 1136TIP3    H2 3352   1.883   1.494   6.311
 1137TIP3   OH2 3353   4.612   1.546   3.940
 1137TIP3    H1 3354   4.696   1.588   3.959
 1137TIP3    H2 3355   4.552   1.582   4.005
 1138TIP3   OH2 3356   7.879   0.614   1.254
 1138TIP3    H1 3357   7.882   0.694   1.202
 1138TIP3    H2 3358   7.947   0.558   1.217
 1139TIP3   OH2 3359   4.195   5.575   5.641
 1139TIP3    H1 3360   4.283   5.557   5.610
 1139TIP3    H2 3361   4.200   5.563   5.736
 1140TIP3   OH2 3362   5.973   2.256   0.686
 1140TIP3    H1 3363   5.973   2.161   0.699
 1140TIP3    H2 3364   5.911   2.290   0.750
 1141TIP3   OH2 3365   2.331   1.248   5.229
 1141TIP3    H1 3366   2.350   1.160   5.198
 1141TIP3    H2 3367   2.235   1.250   5.238
 1142TIP3   OH2 3368   4.728   1.186   1.690
 1142TIP3    H1 3369   4.660   1.225   1.635
 1142TIP3    H2 3370   4.810   1.208   1.647
 1143TIP3   OH2 3371   1.200   1.341   1.603
 1143TIP3    H1 3372   1.193   1.246   1.601
 1143TIP3    H2 3373   1.186   1.364   1.695
 1144TIP3   OH2 3374   2.577   6.641   2.736
 1144TIP3    H1 3375   2.510   6.627   2.669
 1144TIP3    H2 3376   2.529   6.641   2.819
 1145TIP3   OH2 3377   1.956   3.160   3.642
 1145TIP3    H1 3378   1.985   3.201   3.560
 1145TIP3    H2 3379   1.949   3.232   3.704
 1146TIP3   OH2 3380   6.117   0.999   4.392
 1146TIP3    H1 3381   6.031   0.996   4.350
 1146TIP3    H2 3382   6.111   1.072   4.454
 1147TIP3   OH2 3383   1.284   7.525   5.213
 1147TIP3    H1 3384   1.252   7.569   5.292
 1147TIP3    H2 3385   1.364   7.572   5.190
 1148TIP3   OH2 3386   1.444   3.903   3.700
 1148TIP3    H1 3387   1.476   3.991   3.722
 1148TIP3    H2 3388   1.369   3.919   3.642
 1149TIP3   OH2 3389   7.748   4.439   2.209
 1149TIP3    H1 3390   7.704   4.422   2.126
 1149TIP3    H2 3391   7.829   4.388   2.204
 1150TIP3   OH2 3392   3.613   7.190   3.179
 1150TIP3    H1 3393   3.675   7.241   3.231
 1150TIP3    H2 3394   3.657   7.106   3.163
 1151TIP3   OH2 3395   5.104   1.191   0.644
 1151TIP3    H1 3396   5.017   1.183   0.683
 1151TIP3    H2 3397   5.088   1.181   0.550
 1152TIP3   OH2 3398   6.438   2.048   4.824
 1152TIP3    H1 3399   6.532   2.028   4.821
 1152TIP3    H2 3400   6.413   2.034   4.915
 1153TIP3   OH2 3401   7.975   5.524   5.315
 1153TIP3    H1 3402   7.899   5.472   5.340
 1153TIP3    H2 3403   8.002   5.568   5.396
 1154TIP3   OH2 3404   0.051   7.320   4.001
 1154TIP3    H1 3405   0.116   7.357   4.062
 1154TIP3    H2 3406   0.016   7.396   3.954
 1155TIP3   OH2 3407   3.787   1.330   6.521
 1155TIP3    H1 3408   3.701   1.326   6.480
 1155TIP3    H2 3409   3.847   1.294   6.455
 1156TIP3   OH2 3410   0.138   5.981   5.685
 1156TIP3    H1 3411   0.112   6.070   5.661
 1156TIP3    H2 3412   0.067   5.925   5.652
 1157TIP3   OH2 3413   6.845   4.585   2.328
 1157TIP3    H1 3414   6.824   4.657   2.388
 1157TIP3    H2 3415   6.908   4.623   2.266
 1158TIP3   OH2 3416   4.855   1.520   1.340
 1158TIP3    H1 3417   4.797   1.466   1.287
 1158TIP3    H2 3418   4.891   1.584   1.279
 1159TIP3   OH2 3419   4.107   7.362   2.798
 1159TIP3    H1 3420   4.117   7.274   2.833
 1159TIP3    H2 3421   4.097   7.418   2.875
 1160TIP3   OH2 3422   8.039   0.024   4.823
 1160TIP3    H1 3423   7.987   0.102   4.800
 1160TIP3    H2 3424   8.126   0.058   4.841
 1161TIP3   OH2 3425   7.740   0.985   4.648
 1161TIP3    H1 3426   7.751   0.965   4.741
 1161TIP3    H2 3427   7.654   0.950   4.625
 1162TIP3   OH2 3428   7.344   1.083   6.714
 1162TIP3    H1 3429   7.285   1.011   6.736
 1162TIP3    H2 3430   7.287   1.151   6.679
 1163TIP3   OH2 3431   2.008   5.604   3.406
 1163TIP3    H1 3432   2.004   5.571   3.495
 1163TIP3    H2 3433   1.939   5.670   3.401
 1164TIP3   OH2 3434   6.090   1.477   0.661
 1164TIP3    H1 3435   6.073   1.570   0.649
 1164TIP3    H2 3436   6.147   1.453   0.588
 1165TIP3   OH2 3437   0.560   5.282   0.191
 1165TIP3    H1 3438   0.558   5.196   0.232
 1165TIP3    H2 3439   0.652   5.310   0.198
 1166TIP3   OH2 3440   4.888   4.062   2.695
 1166TIP3    H1 3441   4.897   4.012   2.776
 1166TIP3    H2 3442   4.961   4.032   2.640
 1167TIP3   OH2 3443   5.623   1.773   5.100
 1167TIP3    H1 3444   5.600   1.866   5.098
 1167TIP3    H2 3445   5.718   1.772   5.111
 1168TIP3   OH2 3446   6.671   7.735   0.707
 1168TIP3    H1 3447   6.691   7.642   0.693
 1168TIP3    H2 3448   6.579   7.743   0.681
 1169TIP3   OH2 3449   5.626   7.435   1.942
 1169TIP3    H1 3450   5.624   7.470   1.853
 1169TIP3    H2 3451   5.715   7.401   1.953
 1170TIP3   OH2 3452   0.856   5.718   0.799
 1170TIP3    H1 3453   0.849   5.704   0.894
 1170TIP3    H2 3454   0.946   5.748   0.786
 1171TIP3   OH2 3455   1.792   4.098   1.216
 1171TIP3    H1 3456   1.815   4.043   1.291
 1171TIP3    H2 3457   1.806   4.042   1.140
 1172TIP3   OH2 3458   4.617   3.616   0.554
 1172TIP3    H1 3459   4.711   3.601   0.543
 1172TIP3    H2 3460   4.590   3.659   0.473
 1173TIP3   OH2 3461   2.814   5.689   4.680
 1173TIP3    H1 3462   2.740   5.629   4.687
 1173TIP3    H2 3463   2.891   5.633   4.689
 1174TIP3   OH2 3464   5.386   7.433   2.076
 1174TIP3    H1 3465   5.474   7.442   2.039
 1174TIP3    H2 3466   5.327   7.444   2.002
 1175TIP3   OH2 3467   3.352   1.016   3.008
 1175TIP3    H1 3468   3.279   1.064   2.969
 1175TIP3    H2 3469   3.361   1.053   3.096
 1176TIP3   OH2 3470   3.414   3.064   6.164
 1176TIP3    H1 3471   3.361   3.017   6.230
 1176TIP3    H2 3472   3.466   3.126   6.216
 1177TIP3   OH2 3473   2.694   2.268   0.112
 1177TIP3    H1 3474   2.764   2.297   0.171
 1177TIP3    H2 3475   2.631   2.340   0.112
 1178TIP3   OH2 3476   4.318   0.484   3.625
 1178TIP3    H1 3477   4.294   0.471   3.533
 1178TIP3    H2 3478   4.234   0.488   3.672
 1179TIP3   OH2 3479   5.999   3.465   1.004
 1179TIP3    H1 3480   6.042   3.452   0.919
 1179TIP3    H2 3481   6.001   3.560   1.017
 1180TIP3   OH2 3482   0.767   7.625   1.598
 1180TIP3    H1 3483   0.853   7.662   1.614
 1180TIP3    H2 3484   0.714   7.653   1.674
 1181TIP3   OH2 3485   2.003   1.477   2.268
 1181TIP3    H1 3486   2.099   1.487   2.266
 1181TIP3    H2 3487   1.975   1.498   2.179
 1182TIP3   OH2 3488   8.069   5.906   3.262
 1182TIP3    H1 3489   7.976   5.928   3.268
 1182TIP3    H2 3490   8.088   5.862   3.345
 1183TIP3   OH2 3491   6.882   4.904   0.970
 1183TIP3    H1 3492   6.951   4.970   0.972
 1183TIP3    H2 3493   6.803   4.951   0.995
 1184TIP3   OH2 3494   1.274   0.403   5.336
 1184TIP3    H1 3495   1.352   0.359   5.302
 1184TIP3    H2 3496   1.273   0.487   5.289
 1185TIP3   OH2 3497   1.832   2.591   3.589
 1185TIP3    H1 3498   1.798   2.547   3.511
 1185TIP3    H2 3499   1.881   2.666   3.554
 1186TIP3   OH2 3500   5.190   5.736   5.585
 1186TIP3    H1 3501   5.197   5.821   5.543
 1186TIP3    H2 3502   5.147   5.754   5.669
 1187TIP3   OH2 3503   6.796   6.944   5.441
 1187TIP3    H1 3504   6.715   6.911   5.480
 1187TIP3    H2 3505   6.768   6.992   5.363
 1188TIP3   OH2 3506   0.154   1.588   3.824
 1188TIP3    H1 3507   0.105   1.652   3.876
 1188TIP3    H2 3508   0.201   1.641   3.760
 1189TIP3   OH2 3509   2.487   0.212   5.192
 1189TIP3    H1 3510   2.479   0.123   5.157
 1189TIP3    H2 3511   2.581   0.226   5.200
 1190TIP3   OH2 3512   1.686   4.000   1.618
 1190TIP3    H1 3513   1.704   3.936   1.687
 1190TIP3    H2 3514   1.608   3.966   1.573
 1191TIP3   OH2 3515   2.070   0.183   4.816
 1191TIP3    H1 3516   2.042   0.124   4.747
 1191TIP3    H2 3517   2.165   0.184   4.809
 1192TIP3   OH2 3518   4.573   2.775   5.192
 1192TIP3    H1 3519   4.534   2.776   5.279
 1192TIP3    H2 3520   4.582   2.682   5.170
 1193TIP3   OH2 3521   4.814   1.371   1.904
 1193TIP3    H1 3522   4.736   1.387   1.851
 1193TIP3    H2 3523   4.852   1.458   1.917
 1194TIP3   OH2 3524   8.170   7.173   6.316
 1194TIP3    H1 3525   8.130   7.136   6.237
 1194TIP3    H2 3526   8.249   7.216   6.284
 1195TIP3   OH2 3527   2.648   3.571   5.751
 1195TIP3    H1 3528   2.659   3.587   5.657
 1195TIP3    H2 3529   2.713   3.505   5.772
 1196TIP3   OH2 3530   2.769   0.727   0.579
 1196TIP3    H1 3531   2.746   0.724   0.672
 1196TIP3    H2 3532   2.748   0.640   0.546
 1197TIP3   OH2 3533   5.036   4.691   0.385
 1197TIP3    H1 3534   5.065   4.630   0.453
 1197TIP3    H2 3535   5.023   4.774   0.430
 1198TIP3   OH2 3536   6.297   6.903   6.673
 1198TIP3    H1 3537   6.311   6.814   6.707
 1198TIP3    H2 3538   6.381   6.947   6.689
 1199TIP3   OH2 3539   3.464   1.343   2.892
 1199TIP3    H1 3540   3.441   1.291   2.816
 1199TIP3    H2 3541   3.400   1.319   2.959
 1200TIP3   OH2 3542   7.358   1.120   3.494
 1200TIP3    H1 3543   7.300   1.076   3.431
 1200TIP3    H2 3544   7.317   1.103   3.579
 1201TIP3   OH2 3545   7.124   0.834   3.444
 1201TIP3    H1 3546   7.166   0.756   3.482
 1201TIP3    H2 3547   7.194   0.878   3.396
 1202TIP3   OH2 3548   5.958   1.518   0.200
 1202TIP3    H1 3549   5.880   1.467   0.179
 1202TIP3    H2 3550   6.031   1.457   0.187
 1203TIP3   OH2 3551   0.119   3.002   1.377
 1203TIP3    H1 3552   0.041   2.964   1.419
 1203TIP3    H2 3553   0.175   2.927   1.358
 1204TIP3   OH2 3554   0.699   7.612   0.571
 1204TIP3    H1 3555   0.670   7.576   0.655
 1204TIP3    H2 3556   0.624   7.664   0.540
 1205TIP3   OH2 3557   3.977   6.929   4.928
 1205TIP3    H1 3558   3.918   6.960   4.860
 1205TIP3    H2 3559   4.034   6.866   4.884
 1206TIP3   OH2 3560   4.892   2.531   5.641
 1206TIP3    H1 3561   4.804   2.496   5.653
 1206TIP3    H2 3562   4.893   2.567   5.552
 1207TIP3   OH2 3563   7.386   2.662   4.271
 1207TIP3    H1 3564   7.313   2.718   4.244
 1207TIP3    H2 3565   7.352   2.613   4.346
 1208TIP3   OH2 3566   4.641   4.687   1.307
 1208TIP3    H1 3567   4.607   4.739   1.380
 1208TIP3    H2 3568   4.564   4.644   1.271
 1209TIP3   OH2 3569   0.759   4.921   1.178
 1209TIP3    H1 3570   0.747   4.864   1.253
 1209TIP3    H2 3571   0.800   4.865   1.111
 1210TIP3   OH2 3572   5.113   7.290   2.979
 1210TIP3    H1 3573   5.031   7.335   2.958
 1210TIP3    H2 3574   5.108   7.207   2.931
 1211TIP3   OH2 3575   3.943   2.623   5.495
 1211TIP3    H1 3576   3.990   2.564   5.553
 1211TIP3    H2 3577   3.961   2.591   5.407
 1212TIP3   OH2 3578   0.831   1.620   6.385
 1212TIP3    H1 3579   0.914   1.643   6.343
 1212TIP3    H2 3580   0.855   1.561   6.456
 1213TIP3   OH2 3581   0.659   5.368   6.276
 1213TIP3    H1 3582   0.636   5.458   6.299
 1213TIP3    H2 3583   0.713   5.337   6.349
 1214TIP3   OH2 3584   1.199   2.370   2.306
 1214TIP3    H1 3585   1.270   2.307   2.302
 1214TIP3    H2 3586   1.186   2.398   2.215
 1215TIP3   OH2 3587   2.003   2.403   4.250
 1215TIP3    H1 3588   1.975   2.357   4.171
 1215TIP3    H2 3589   2.032   2.333   4.309
 1216TIP3   OH2 3590   3.670   3.347   4.772
 1216TIP3    H1 3591   3.637   3.422   4.821
 1216TIP3    H2 3592   3.695   3.383   4.687
 1217TIP3   OH2 3593   1.711   5.466   2.164
 1217TIP3    H1 3594   1.739   5.451   2.074
 1217TIP3    H2 3595   1.695   5.561   2.168
 1218TIP3   OH2 3596   5.529   1.049   2.809
 1218TIP3    H1 3597   5.558   1.045   2.900
 1218TIP3    H2 3598   5.590   0.993   2.762
 1219TIP3   OH2 3599   2.334   0.091   2.566
 1219TIP3    H1 3600   2.258   0.083   2.624
 1219TIP3    H2 3601   2.297   0.099   2.478
 1220TIP3   OH2 3602   6.359   5.106   3.073
 1220TIP3    H1 3603   6.447   5.071   3.058
 1220TIP3    H2 3604   6.305   5.066   3.005
 1221TIP3   OH2 3605   4.508   1.972   1.680
 1221TIP3    H1 3606   4.501   2.061   1.647
 1221TIP3    H2 3607   4.449   1.921   1.624
 1222TIP3   OH2 3608   5.509   0.774   4.632
 1222TIP3    H1 3609   5.459   0.719   4.693
 1222TIP3    H2 3610   5.570   0.822   4.688
 1223TIP3   OH2 3611   4.896   6.542   3.107
 1223TIP3    H1 3612   4.850   6.491   3.173
 1223TIP3    H2 3613   4.829   6.597   3.067
 1224TIP3   OH2 3614   0.965   0.742   4.945
 1224TIP3    H1 3615   1.007   0.821   4.980
 1224TIP3    H2 3616   0.927   0.699   5.022
 1225TIP3   OH2 3617   5.441   1.854   2.673
 1225TIP3    H1 3618   5.496   1.897   2.607
 1225TIP3    H2 3619   5.370   1.813   2.623
 1226TIP3   OH2 3620   7.115   1.644   3.358
 1226TIP3    H1 3621   7.038   1.610   3.311
 1226TIP3    H2 3622   7.081   1.718   3.408
 1227TIP3   OH2 3623   6.290   1.111   6.160
 1227TIP3    H1 3624   6.287   1.021   6.126
 1227TIP3    H2 3625   6.383   1.127   6.175
 1228TIP3   OH2 3626   7.892   6.635   0.879
 1228TIP3    H1 3627   7.924   6.717   0.842
 1228TIP3    H2 3628   7.888   6.575   0.804
 1229TIP3   OH2 3629   6.635   1.282   2.547
 1229TIP3    H1 3630   6.681   1.227   2.611
 1229TIP3    H2 3631   6.649   1.237   2.463
 1230TIP3   OH2 3632   1.668   6.067   1.747
 1230TIP3    H1 3633   1.666   6.021   1.663
 1230TIP3    H2 3634   1.710   6.151   1.728
 1231TIP3   OH2 3635   6.512   3.995   1.160
 1231TIP3    H1 3636   6.466   4.070   1.123
 1231TIP3    H2 3637   6.557   4.030   1.238
 1232TIP3   OH2 3638   4.500   6.606   4.953
 1232TIP3    H1 3639   4.415   6.616   4.996
 1232TIP3    H2 3640   4.561   6.592   5.025
 1233TIP3   OH2 3641   6.396   2.935   4.965
 1233TIP3    H1 3642   6.374   2.857   5.017
 1233TIP3    H2 3643   6.484   2.958   4.994
 1234TIP3   OH2 3644   3.879   3.717   3.498
 1234TIP3    H1 3645   3.915   3.729   3.410
 1234TIP3    H2 3646   3.814   3.648   3.488
 1235TIP3   OH2 3647   6.631   5.733   0.480
 1235TIP3    H1 3648   6.671   5.659   0.436
 1235TIP3    H2 3649   6.649   5.719   0.573
 1236TIP3   OH2 3650   3.832   0.374   1.321
 1236TIP3    H1 3651   3.810   0.435   1.392
 1236TIP3    H2 3652   3.912   0.330   1.351
 1237TIP3   OH2 3653   8.211   3.923   6.199
 1237TIP3    H1 3654   8.143   3.857   6.209
 1237TIP3    H2 3655   8.258   3.897   6.119
 1238TIP3   OH2 3656   1.917   6.936   1.685
 1238TIP3    H1 3657   1.884   6.869   1.745
 1238TIP3    H2 3658   1.961   6.887   1.616
 1239TIP3   OH2 3659   4.892   5.687   0.908
 1239TIP3    H1 3660   4.912   5.780   0.908
 1239TIP3    H2 3661   4.889   5.663   0.815
 1240TIP3   OH2 3662   1.238   3.861   3.485
 1240TIP3    H1 3663   1.151   3.876   3.521
 1240TIP3    H2 3664   1.250   3.766   3.487
 1241TIP3   OH2 3665   3.723   1.369   3.882
 1241TIP3    H1 3666   3.649   1.425   3.905
 1241TIP3    H2 3667   3.800   1.418   3.911
 1242TIP3   OH2 3668   3.239   1.188   4.557
 1242TIP3    H1 3669   3.199   1.256   4.610
 1242TIP3    H2 3670   3.166   1.135   4.524
 1243TIP3   OH2 3671   4.821   6.849   6.125
 1243TIP3    H1 3672   4.736   6.864   6.082
 1243TIP3    H2 3673   4.843   6.759   6.104
 1244TIP3   OH2 3674   8.105   1.704   2.413
 1244TIP3    H1 3675   8.016   1.730   2.389
 1244TIP3    H2 3676   8.108   1.711   2.508
 1245TIP3   OH2 3677   3.516   3.210   4.017
 1245TIP3    H1 3678   3.463   3.152   4.072
 1245TIP3    H2 3679   3.606   3.180   4.030
 1246TIP3   OH2 3680   7.320   2.019   0.538
 1246TIP3    H1 3681   7.302   2.091   0.477
 1246TIP3    H2 3682   7.271   2.040   0.617
 1247TIP3   OH2 3683   1.675   3.809   1.797
 1247TIP3    H1 3684   1.634   3.723   1.809
 1247TIP3    H2 3685   1.621   3.868   1.850
 1248TIP3   OH2 3686   0.899   1.274   3.332
 1248TIP3    H1 3687   0.822   1.241   3.378
 1248TIP3    H2 3688   0.945   1.195   3.303
 1249TIP3   OH2 3689   2.664   5.017   3.421
 1249TIP3    H1 3690   2.688   4.933   3.384
 1249TIP3    H2 3691   2.608   5.058   3.355
 1250TIP3   OH2 3692   7.942   2.018   3.845
 1250TIP3    H1 3693   7.969   1.938   3.891
 1250TIP3    H2 3694   7.864   2.047   3.892
 1251TIP3   OH2 3695   1.336   5.066   1.318
 1251TIP3    H1 3696   1.265   5.070   1.254
 1251TIP3    H2 3697   1.305   5.120   1.392
 1252TIP3   OH2 3698   5.704   6.622   6.567
 1252TIP3    H1 3699   5.729   6.580   6.485
 1252TIP3    H2 3700   5.668   6.706   6.541
 1253TIP3   OH2 3701   6.616   3.216   0.037
 1253TIP3    H1 3702   6.549   3.193  -0.027
 1253TIP3    H2 3703   6.628   3.310   0.025
 1254TIP3   OH2 3704   7.657   5.014   0.613
 1254TIP3    H1 3705   7.662   4.976   0.526
 1254TIP3    H2 3706   7.689   4.946   0.671
 1255TIP3   OH2 3707   3.783   1.741   1.470
 1255TIP3    H1 3708   3.720   1.760   1.540
 1255TIP3    H2 3709   3.867   1.767   1.507
 1256TIP3   OH2 3710   3.624   0.719   6.506
 1256TIP3    H1 3711   3.706   0.687   6.544
 1256TIP3    H2 3712   3.564   0.727   6.580
 1257TIP3   OH2 3713   2.302   4.837   6.404
 1257TIP3    H1 3714   2.215   4.868   6.426
 1257TIP3    H2 3715   2.317   4.869   6.315
 1258TIP3   OH2 3716   6.462   5.461   0.253
 1258TIP3    H1 3717   6.395   5.472   0.320
 1258TIP3    H2 3718   6.417   5.480   0.171
 1259TIP3   OH2 3719   3.856   6.242   0.611
 1259TIP3    H1 3720   3.834   6.152   0.636
 1259TIP3    H2 3721   3.924   6.232   0.545
 1260TIP3   OH2 3722   2.310   6.160   3.113
 1260TIP3    H1 3723   2.341   6.142   3.202
 1260TIP3    H2 3724   2.239   6.098   3.099
 1261TIP3   OH2 3725   4.498   2.738   0.476
 1261TIP3    H1 3726   4.568   2.776   0.528
 1261TIP3    H2 3727   4.489   2.649   0.509
 1262TIP3   OH2 3728   6.840   0.660   2.709
 1262TIP3    H1 3729   6.904   0.621   2.650
 1262TIP3    H2 3730   6.773   0.592   2.719
 1263TIP3   OH2 3731   0.101   6.944   3.178
 1263TIP3    H1 3732   0.025   6.970   3.127
 1263TIP3    H2 3733   0.066   6.922   3.264
 1264TIP3   OH2 3734   2.698   5.571   2.432
 1264TIP3    H1 3735   2.702   5.588   2.338
 1264TIP3    H2 3736   2.607   5.586   2.455
 1265TIP3   OH2 3737   5.596   3.910   1.951
 1265TIP3    H1 3738   5.614   3.970   1.879
 1265TIP3    H2 3739   5.674   3.917   2.007
 1266TIP3   OH2 3740   7.986   1.710   0.557
 1266TIP3    H1 3741   7.931   1.647   0.604
 1266TIP3    H2 3742   8.068   1.713   0.607
 1267TIP3   OH2 3743   0.178   4.101   0.956
 1267TIP3    H1 3744   0.111   4.165   0.930
 1267TIP3    H2 3745   0.139   4.016   0.936
 1268TIP3   OH2 3746   6.550   4.162   2.143
 1268TIP3    H1 3747   6.584   4.250   2.154
 1268TIP3    H2 3748   6.462   4.174   2.108
 1269TIP3   OH2 3749   7.234   3.047   5.797
 1269TIP3    H1 3750   7.196   3.114   5.855
 1269TIP3    H2 3751   7.301   3.004   5.850
 1270TIP3   OH2 3752   0.507   3.148   5.373
 1270TIP3    H1 3753   0.499   3.175   5.281
 1270TIP3    H2 3754   0.447   3.206   5.420
 1271TIP3   OH2 3755   1.587   4.469   3.935
 1271TIP3    H1 3756   1.571   4.461   3.841
 1271TIP3    H2 3757   1.662   4.528   3.942
 1272TIP3   OH2 3758   5.494   0.508   0.829
 1272TIP3    H1 3759   5.424   0.572   0.843
 1272TIP3    H2 3760   5.485   0.447   0.902
 1273TIP3   OH2 3761   6.811   4.466   2.992
 1273TIP3    H1 3762   6.716   4.477   2.985
 1273TIP3    H2 3763   6.824   4.422   3.076
 1274TIP3   OH2 3764   6.585   1.646   4.667
 1274TIP3    H1 3765   6.500   1.656   4.624
 1274TIP3    H2 3766   6.566   1.595   4.746
 1275TIP3   OH2 3767   0.816   7.596   6.367
 1275TIP3    H1 3768   0.898   7.620   6.325
 1275TIP3    H2 3769   0.752   7.658   6.333
 1276TIP3   OH2 3770   2.211   1.126   2.330
 1276TIP3    H1 3771   2.163   1.065   2.386
 1276TIP3    H2 3772   2.300   1.128   2.366
 1277TIP3   OH2 3773   7.048   1.860   2.700
 1277TIP3    H1 3774   7.122   1.920   2.694
 1277TIP3    H2 3775   7.017   1.849   2.610
 1278TIP3   OH2 3776   7.722   2.695   5.201
 1278TIP3    H1 3777   7.742   2.727   5.113
 1278TIP3    H2 3778   7.791   2.732   5.257
 1279TIP3   OH2 3779   2.474   2.476   2.813
 1279TIP3    H1 3780   2.508   2.499   2.727
 1279TIP3    H2 3781   2.538   2.414   2.848
 1280TIP3   OH2 3782   6.457   6.299   0.679
 1280TIP3    H1 3783   6.362   6.303   0.668
 1280TIP3    H2 3784   6.479   6.377   0.730
 1281TIP3   OH2 3785   7.524   1.969   0.920
 1281TIP3    H1 3786   7.522   1.895   0.860
 1281TIP3    H2 3787   7.601   2.020   0.893
 1282TIP3   OH2 3788   4.118   0.660   6.517
 1282TIP3    H1 3789   4.082   0.734   6.468
 1282TIP3    H2 3790   4.043   0.624   6.564
 1283TIP3   OH2 3791   1.138   4.369   2.214
 1283TIP3    H1 3792   1.210   4.344   2.155
 1283TIP3    H2 3793   1.174   4.441   2.266
 1284TIP3   OH2 3794   4.174   2.095   2.378
 1284TIP3    H1 3795   4.254   2.143   2.394
 1284TIP3    H2 3796   4.152   2.114   2.287
 1285TIP3   OH2 3797   5.087   2.494   5.835
 1285TIP3    H1 3798   5.015   2.514   5.776
 1285TIP3    H2 3799   5.139   2.429   5.787
 1286TIP3   OH2 3800   0.871   0.281  -0.021
 1286TIP3    H1 3801   0.880   0.347   0.048
 1286TIP3    H2 3802   0.810   0.217   0.015
 1287TIP3   OH2 3803   1.695   3.331   5.285
 1287TIP3    H1 3804   1.719   3.243   5.255
 1287TIP3    H2 3805   1.760   3.352   5.352
 1288TIP3   OH2 3806   2.793   6.370   0.994
 1288TIP3    H1 3807   2.788   6.323   1.078
 1288TIP3    H2 3808   2.793   6.301   0.928
 1289TIP3   OH2 3809   6.141   5.256   2.593
 1289TIP3    H1 3810   6.231   5.288   2.591
 1289TIP3    H2 3811   6.089   5.325   2.552
 1290TIP3   OH2 3812   3.475   7.396   3.832
 1290TIP3    H1 3813   3.485   7.426   3.922
 1290TIP3    H2 3814   3.525   7.458   3.780
 1291TIP3   OH2 3815   5.835   2.042   0.485
 1291TIP3    H1 3816   5.886   2.019   0.562
 1291TIP3    H2 3817   5.765   1.976   0.481
 1292TIP3   OH2 3818   8.109   4.699   6.316
 1292TIP3    H1 3819   8.183   4.700   6.255
 1292TIP3    H2 3820   8.111   4.785   6.357
 1293TIP3   OH2 3821   0.736   0.782   0.864
 1293TIP3    H1 3822   0.647   0.747   0.868
 1293TIP3    H2 3823   0.791   0.707   0.844
 1294TIP3   OH2 3824   6.394   1.672   3.967
 1294TIP3    H1 3825   6.327   1.610   3.993
 1294TIP3    H2 3826   6.416   1.720   4.047
 1295TIP3   OH2 3827   2.681   6.354   3.143
 1295TIP3    H1 3828   2.746   6.319   3.082
 1295TIP3    H2 3829   2.731   6.374   3.222
 1296TIP3   OH2 3830   5.225   0.215   2.396
 1296TIP3    H1 3831   5.138   0.252   2.410
 1296TIP3    H2 3832   5.284   0.290   2.400
 1297TIP3   OH2 3833   1.355   6.471   3.244
 1297TIP3    H1 3834   1.294   6.517   3.302
 1297TIP3    H2 3835   1.299   6.414   3.191
 1298TIP3   OH2 3836   4.674   4.983   3.441
 1298TIP3    H1 3837   4.607   4.916   3.432
 1298TIP3    H2 3838   4.641   5.057   3.391
 1299TIP3   OH2 3839   5.062   3.556   5.342
 1299TIP3    H1 3840   5.003   3.630   5.325
 1299TIP3    H2 3841   5.032   3.520   5.426
 1300TIP3   OH2 3842   6.224   5.806   2.359
 1300TIP3    H1 3843   6.202   5.738   2.424
 1300TIP3    H2 3844   6.236   5.758   2.277
 1301TIP3   OH2 3845   5.914   0.374   3.142
 1301TIP3    H1 3846   5.995   0.323   3.148
 1301TIP3    H2 3847   5.891   0.393   3.233
 1302TIP3   OH2 3848   2.559   5.376   5.966
 1302TIP3    H1 3849   2.605   5.451   6.003
 1302TIP3    H2 3850   2.468   5.407   5.956
 1303TIP3   OH2 3851   8.015   1.911   5.856
 1303TIP3    H1 3852   8.039   1.818   5.856
 1303TIP3    H2 3853   8.098   1.957   5.869
 1304TIP3   OH2 3854   4.746   2.175   5.903
 1304TIP3    H1 3855   4.717   2.175   5.994
 1304TIP3    H2 3856   4.733   2.265   5.873
 1305TIP3   OH2 3857   2.919   4.182   5.080
 1305TIP3    H1 3858   3.003   4.205   5.040
 1305TIP3    H2 3859   2.854   4.221   5.021
 1306TIP3   OH2 3860   1.159   6.715   3.362
 1306TIP3    H1 3861   1.243   6.743   3.326
 1306TIP3    H2 3862   1.106   6.795   3.365
 1307TIP3   OH2 3863   0.994   0.136   5.626
 1307TIP3    H1 3864   0.936   0.074   5.672
 1307TIP3    H2 3865   1.068   0.148   5.685
 1308TIP3   OH2 3866   4.605   7.674   4.151
 1308TIP3    H1 3867   4.671   7.606   4.160
 1308TIP3    H2 3868   4.648   7.754   4.183
 1309TIP3   OH2 3869   2.090   0.573   5.819
 1309TIP3    H1 3870   2.088   0.497   5.877
 1309TIP3    H2 3871   2.020   0.557   5.756
 1310TIP3   OH2 3872   5.870   1.263   6.044
 1310TIP3    H1 3873   5.782   1.234   6.068
 1310TIP3    H2 3874   5.914   1.276   6.128
 1311TIP3   OH2 3875   3.141   2.503   3.229
 1311TIP3    H1 3876   3.143   2.558   3.151
 1311TIP3    H2 3877   3.069   2.443   3.214
 1312TIP3   OH2 3878   1.596   0.727   0.034
 1312TIP3    H1 3879   1.581   0.775   0.116
 1312TIP3    H2 3880   1.651   0.654   0.060
 1313TIP3   OH2 3881   6.281   7.490   3.162
 1313TIP3    H1 3882   6.280   7.461   3.253
 1313TIP3    H2 3883   6.330   7.572   3.164
 1314TIP3   OH2 3884   5.661   3.222   4.791
 1314TIP3    H1 3885   5.639   3.172   4.713
 1314TIP3    H2 3886   5.631   3.168   4.864
 1315TIP3   OH2 3887   2.389   1.737   6.763
 1315TIP3    H1 3888   2.376   1.789   6.843
 1315TIP3    H2 3889   2.379   1.801   6.692
 1316TIP3   OH2 3890   6.498   4.814   4.092
 1316TIP3    H1 3891   6.462   4.875   4.156
 1316TIP3    H2 3892   6.567   4.768   4.139
 1317TIP3   OH2 3893   4.547   0.197   6.639
 1317TIP3    H1 3894   4.622   0.223   6.692
 1317TIP3    H2 3895   4.584   0.164   6.558
 1318TIP3   OH2 3896   7.061   4.584   3.801
 1318TIP3    H1 3897   7.040   4.668   3.759
 1318TIP3    H2 3898   7.081   4.608   3.892
 1319TIP3   OH2 3899   2.998   4.495   3.964
 1319TIP3    H1 3900   2.974   4.483   3.872
 1319TIP3    H2 3901   2.969   4.414   4.007
 1320TIP3   OH2 3902   8.253   0.215   4.915
 1320TIP3    H1 3903   8.345   0.191   4.929
 1320TIP3    H2 3904   8.239   0.291   4.971
 1321TIP3   OH2 3905   2.868   2.794   5.653
 1321TIP3    H1 3906   2.785   2.772   5.611
 1321TIP3    H2 3907   2.843   2.835   5.736
 1322TIP3   OH2 3908   5.825   0.338   6.610
 1322TIP3    H1 3909   5.827   0.290   6.693
 1322TIP3    H2 3910   5.905   0.391   6.611
 1323TIP3   OH2 3911   1.216   3.679   0.520
 1323TIP3    H1 3912   1.255   3.662   0.434
 1323TIP3    H2 3913   1.282   3.648   0.583
 1324TIP3   OH2 3914   2.872   3.150   2.490
 1324TIP3    H1 3915   2.967   3.139   2.486
 1324TIP3    H2 3916   2.846   3.161   2.398
 1325TIP3   OH2 3917   2.684   5.878   3.198
 1325TIP3    H1 3918   2.590   5.885   3.180
 1325TIP3    H2 3919   2.702   5.946   3.263
 1326TIP3   OH2 3920   0.907   0.051   2.110
 1326TIP3    H1 3921   0.962  -0.027   2.114
 1326TIP3    H2 3922   0.968   0.124   2.115
 1327TIP3   OH2 3923   6.585   5.321   2.215
 1327TIP3    H1 3924   6.496   5.338   2.183
 1327TIP3    H2 3925   6.638   5.311   2.136
 1328TIP3   OH2 3926   0.829   6.458   5.842
 1328TIP3    H1 3927   0.786   6.384   5.886
 1328TIP3    H2 3928   0.904   6.419   5.797
 1329TIP3   OH2 3929   5.971   4.136   4.006
 1329TIP3    H1 3930   5.985   4.044   4.030
 1329TIP3    H2 3931   6.055   4.178   4.025
 1330TIP3   OH2 3932   4.976   3.747   1.579
 1330TIP3    H1 3933   5.012   3.811   1.517
 1330TIP3    H2 3934   4.917   3.694   1.526
 1331TIP3   OH2 3935   3.130   6.020   1.211
 1331TIP3    H1 3936   3.113   6.042   1.120
 1331TIP3    H2 3937   3.134   5.924   1.212
 1332TIP3   OH2 3938   2.541   7.725   5.917
 1332TIP3    H1 3939   2.617   7.728   5.859
 1332TIP3    H2 3940   2.515   7.633   5.918
 1333TIP3   OH2 3941   2.847   4.547   0.186
 1333TIP3    H1 3942   2.889   4.495   0.117
 1333TIP3    H2 3943   2.852   4.492   0.264
 1334TIP3   OH2 3944   3.741   7.351   4.552
 1334TIP3    H1 3945   3.659   7.396   4.574
 1334TIP3    H2 3946   3.731   7.263   4.589
 1335TIP3   OH2 3947   8.259   3.073   0.999
 1335TIP3    H1 3948   8.249   2.978   0.988
 1335TIP3    H2 3949   8.184   3.098   1.054
 1336TIP3   OH2 3950   5.555   3.251   3.024
 1336TIP3    H1 3951   5.620   3.184   3.048
 1336TIP3    H2 3952   5.541   3.239   2.930
 1337TIP3   OH2 3953   3.886   6.689   5.855
 1337TIP3    H1 3954   3.849   6.602   5.869
 1337TIP3    H2 3955   3.926   6.684   5.768
 1338TIP3   OH2 3956   0.328   0.942   3.531
 1338TIP3    H1 3957   0.269   0.869   3.548
 1338TIP3    H2 3958   0.311   1.004   3.602
 1339TIP3   OH2 3959   7.846   4.905   6.677
 1339TIP3    H1 3960   7.817   4.964   6.607
 1339TIP3    H2 3961   7.781   4.835   6.678
 1340TIP3   OH2 3962   2.599   3.088   1.334
 1340TIP3    H1 3963   2.690   3.062   1.349
 1340TIP3    H2 3964   2.569   3.121   1.419
 1341TIP3   OH2 3965   5.043   6.008   2.588
 1341TIP3    H1 3966   4.980   6.002   2.659
 1341TIP3    H2 3967   5.061   6.102   2.578
 1342TIP3   OH2 3968   4.396   5.196   3.772
 1342TIP3    H1 3969   4.315   5.233   3.807
 1342TIP3    H2 3970   4.375   5.171   3.682
 1343TIP3   OH2 3971   6.145   4.436   0.499
 1343TIP3    H1 3972   6.119   4.528   0.503
 1343TIP3    H2 3973   6.076   4.389   0.546
 1344TIP3   OH2 3974   2.739   7.475   2.984
 1344TIP3    H1 3975   2.680   7.550   2.980
 1344TIP3    H2 3976   2.722   7.436   3.070
 1345TIP3   OH2 3977   7.973   6.958   5.903
 1345TIP3    H1 3978   7.916   6.893   5.944
 1345TIP3    H2 3979   8.051   6.960   5.958
 1346TIP3   OH2 3980   7.231   1.036   5.894
 1346TIP3    H1 3981   7.196   0.992   5.972
 1346TIP3    H2 3982   7.208   0.978   5.821
 1347TIP3   OH2 3983   3.787   2.925   1.971
 1347TIP3    H1 3984   3.694   2.919   1.948
 1347TIP3    H2 3985   3.815   3.009   1.935
 1348TIP3   OH2 3986   5.472   0.399   4.586
 1348TIP3    H1 3987   5.567   0.410   4.582
 1348TIP3    H2 3988   5.449   0.351   4.507
 1349TIP3   OH2 3989   6.408   1.063   1.272
 1349TIP3    H1 3990   6.503   1.070   1.268
 1349TIP3    H2 3991   6.391   0.972   1.297
 1350TIP3   OH2 3992   4.800   3.392   3.264
 1350TIP3    H1 3993   4.790   3.391   3.359
 1350TIP3    H2 3994   4.879   3.340   3.248
 1351TIP3   OH2 3995   1.744   4.635   3.535
 1351TIP3    H1 3996   1.676   4.573   3.511
 1351TIP3    H2 3997   1.704   4.721   3.524
 1352TIP3   OH2 3998   1.902   7.193   2.452
 1352TIP3    H1 3999   1.843   7.181   2.526
 1352TIP3    H2 4000   1.979   7.141   2.474
 1353TIP3   OH2 4001   1.367   2.209   5.016
 1353TIP3    H1 4002   1.461   2.204   4.997
 1353TIP3    H2 4003   1.328   2.239   4.934
 1354TIP3   OH2 4004   1.223   2.265   2.609
 1354TIP3    H1 4005   1.230   2.298   2.698
 1354TIP3    H2 4006   1.158   2.322   2.568
 1355TIP3   OH2 4007   6.253   7.346   0.582
 1355TIP3    H1 4008   6.172   7.357   0.530
 1355TIP3    H2 4009   6.223   7.345   0.673
 1356TIP3   OH2 4010   7.157   3.068   0.552
 1356TIP3    H1 4011   7.195   3.065   0.464
 1356TIP3    H2 4012   7.206   3.137   0.596
 1357TIP3   OH2 4013   2.876   7.012   1.468
 1357TIP3    H1 4014   2.932   6.939   1.494
 1357TIP3    H2 4015   2.937   7.085   1.455
 1358TIP3   OH2 4016   4.484   4.911   6.680
 1358TIP3    H1 4017   4.419   4.921   6.749
 1358TIP3    H2 4018   4.488   4.816   6.664
 1359TIP3   OH2 4019   3.702   0.594   3.373
 1359TIP3    H1 4020   3.697   0.546   3.290
 1359TIP3    H2 4021   3.779   0.557   3.416
 1360TIP3   OH2 4022   3.358   6.645   6.527
 1360TIP3    H1 4023   3.372   6.682   6.440
 1360TIP3    H2 4024   3.315   6.715   6.576
 1361TIP3   OH2 4025   2.792   7.223   0.919
 1361TIP3    H1 4026   2.843   7.302   0.903
 1361TIP3    H2 4027   2.835   7.180   0.993
 1362TIP3   OH2 4028   3.151   3.245   2.487
 1362TIP3    H1 4029   3.136   3.306   2.559
 1362TIP3    H2 4030   3.198   3.295   2.421
 1363TIP3   OH2 4031   0.524   2.058   6.796
 1363TIP3    H1 4032   0.598   2.031   6.850
 1363TIP3    H2 4033   0.548   2.030   6.707
 1364TIP3   OH2 4034   7.097   6.664   4.638
 1364TIP3    H1 4035   7.130   6.688   4.724
 1364TIP3    H2 4036   7.003   6.650   4.650
 1365TIP3   OH2 4037   7.793   3.606   3.643
 1365TIP3    H1 4038   7.698   3.604   3.636
 1365TIP3    H2 4039   7.812   3.691   3.683
 1366TIP3   OH2 4040   8.115   0.728   5.220
 1366TIP3    H1 4041   8.175   0.654   5.235
 1366TIP3    H2 4042   8.165   0.805   5.247
 1367TIP3   OH2 4043   5.932   7.316   2.609
 1367TIP3    H1 4044   5.989   7.241   2.626
 1367TIP3    H2 4045   5.855   7.300   2.664
 1368TIP3   OH2 4046   1.116   3.176   1.227
 1368TIP3    H1 4047   1.022   3.169   1.242
 1368TIP3    H2 4048   1.139   3.264   1.258
 1369TIP3   OH2 4049   7.023   3.955   5.694
 1369TIP3    H1 4050   7.090   4.024   5.691
 1369TIP3    H2 4051   7.007   3.942   5.788
 1370TIP3   OH2 4052   3.090   2.628   3.755
 1370TIP3    H1 4053   3.145   2.693   3.710
 1370TIP3    H2 4054   3.108   2.546   3.709
 1371TIP3   OH2 4055   3.685   4.028   0.765
 1371TIP3    H1 4056   3.676   3.980   0.682
 1371TIP3    H2 4057   3.727   4.111   0.740
 1372TIP3   OH2 4058   2.259   1.151   0.820
 1372TIP3    H1 4059   2.330   1.134   0.759
 1372TIP3    H2 4060   2.204   1.073   0.816
 1373TIP3   OH2 4061   0.233   2.816   5.828
 1373TIP3    H1 4062   0.277   2.886   5.876
 1373TIP3    H2 4063   0.270   2.819   5.740
 1374TIP3   OH2 4064   2.680   4.342   6.521
 1374TIP3    H1 4065   2.622   4.415   6.500
 1374TIP3    H2 4066   2.739   4.376   6.588
 1375TIP3   OH2 4067   1.764   2.810   1.370
 1375TIP3    H1 4068   1.689   2.868   1.369
 1375TIP3    H2 4069   1.800   2.819   1.459
 1376TIP3   OH2 4070   3.866   0.791   0.570
 1376TIP3    H1 4071   3.811   0.722   0.532
 1376TIP3    H2 4072   3.941   0.797   0.511
 1377TIP3   OH2 4073   6.048   3.486   6.102
 1377TIP3    H1 4074   6.079   3.439   6.024
 1377TIP3    H2 4075   6.097   3.447   6.174
 1378TIP3   OH2 4076   6.777   1.261   3.758
 1378TIP3    H1 4077   6.699   1.204   3.764
 1378TIP3    H2 4078   6.779   1.287   3.666
 1379TIP3   OH2 4079   8.211   0.482   0.425
 1379TIP3    H1 4080   8.163   0.462   0.345
 1379TIP3    H2 4081   8.266   0.405   0.440
 1380TIP3   OH2 4082   5.559   5.497   1.668
 1380TIP3    H1 4083   5.650   5.512   1.693
 1380TIP3    H2 4084   5.512   5.488   1.751
 1381TIP3   OH2 4085   0.357   2.169   4.119
 1381TIP3    H1 4086   0.353   2.079   4.087
 1381TIP3    H2 4087   0.417   2.213   4.060
 1382TIP3   OH2 4088   2.724   4.988   0.182
 1382TIP3    H1 4089   2.788   4.921   0.204
 1382TIP3    H2 4090   2.641   4.941   0.175
 1383TIP3   OH2 4091   3.258   4.054   6.092
 1383TIP3    H1 4092   3.175   4.088   6.124
 1383TIP3    H2 4093   3.265   3.966   6.129
 1384TIP3   OH2 4094   5.464   0.588   3.408
 1384TIP3    H1 4095   5.425   0.585   3.320
 1384TIP3    H2 4096   5.538   0.528   3.403
 1385TIP3   OH2 4097   3.758   2.901   6.664
 1385TIP3    H1 4098   3.799   2.818   6.641
 1385TIP3    H2 4099   3.779   2.914   6.757
 1386TIP3   OH2 4100   3.020   7.433   3.081
 1386TIP3    H1 4101   3.051   7.426   2.991
 1386TIP3    H2 4102   2.927   7.456   3.073
 1387TIP3   OH2 4103   1.274   1.977   1.302
 1387TIP3    H1 4104   1.255   2.070   1.292
 1387TIP3    H2 4105   1.260   1.940   1.215
 1388TIP3   OH2 4106   0.806   2.117   2.270
 1388TIP3    H1 4107   0.855   2.186   2.315
 1388TIP3    H2 4108   0.832   2.036   2.313
 1389TIP3   OH2 4109   4.074   7.163   4.068
 1389TIP3    H1 4110   4.127   7.085   4.051
 1389TIP3    H2 4111   4.089   7.181   4.161
 1390TIP3   OH2 4112   0.184   5.328   0.960
 1390TIP3    H1 4113   0.160   5.319   1.052
 1390TIP3    H2 4114   0.277   5.303   0.956
 1391TIP3   OH2 4115   3.137   7.817   0.930
 1391TIP3    H1 4116   3.128   7.770   0.847
 1391TIP3    H2 4117   3.091   7.900   0.916
 1392TIP3   OH2 4118   7.182   7.138   3.484
 1392TIP3    H1 4119   7.206   7.099   3.568
 1392TIP3    H2 4120   7.265   7.160   3.443
 1393TIP3   OH2 4121   6.421   2.692   3.771
 1393TIP3    H1 4122   6.365   2.660   3.701
 1393TIP3    H2 4123   6.366   2.753   3.820
 1394TIP3   OH2 4124   4.109   0.789   0.449
 1394TIP3    H1 4125   4.144   0.701   0.450
 1394TIP3    H2 4126   4.133   0.824   0.363
 1395TIP3   OH2 4127   4.966   0.454   5.436
 1395TIP3    H1 4128   5.044   0.494   5.476
 1395TIP3    H2 4129   4.952   0.374   5.486
 1396TIP3   OH2 4130   3.875   4.921   5.187
 1396TIP3    H1 4131   3.802   4.973   5.153
 1396TIP3    H2 4132   3.895   4.960   5.273
 1397TIP3   OH2 4133   5.368   3.680   5.409
 1397TIP3    H1 4134   5.396   3.588   5.410
 1397TIP3    H2 4135   5.372   3.705   5.317
 1398TIP3   OH2 4136   0.309   1.872   0.371
 1398TIP3    H1 4137   0.220   1.907   0.371
 1398TIP3    H2 4138   0.354   1.923   0.438
 1399TIP3   OH2 4139   1.666   3.279   3.318
 1399TIP3    H1 4140   1.627   3.222   3.385
 1399TIP3    H2 4141   1.727   3.334   3.367
 1400TIP3   OH2 4142   8.238   2.473   3.766
 1400TIP3    H1 4143   8.156   2.427   3.748
 1400TIP3    H2 4144   8.276   2.489   3.680
 1401TIP3   OH2 4145   3.307   5.440   1.076
 1401TIP3    H1 4146   3.364   5.501   1.031
 1401TIP3    H2 4147   3.221   5.452   1.035
 1402TIP3   OH2 4148   2.684   2.870   0.046
 1402TIP3    H1 4149   2.735   2.950   0.056
 1402TIP3    H2 4150   2.705   2.840  -0.043
 1403TIP3   OH2 4151   0.530   5.407   4.226
 1403TIP3    H1 4152   0.577   5.486   4.198
 1403TIP3    H2 4153   0.558   5.393   4.316
 1404TIP3   OH2 4154   7.426   5.871   6.660
 1404TIP3    H1 4155   7.435   5.959   6.622
 1404TIP3    H2 4156   7.332   5.862   6.676
 1405TIP3   OH2 4157   0.878   3.832   3.586
 1405TIP3    H1 4158   0.810   3.851   3.650
 1405TIP3    H2 4159   0.960   3.850   3.632
 1406TIP3   OH2 4160   7.110   6.768   3.749
 1406TIP3    H1 4161   7.155   6.841   3.707
 1406TIP3    H2 4162   7.153   6.759   3.834
 1407TIP3   OH2 4163   0.472   4.234   5.863
 1407TIP3    H1 4164   0.384   4.200   5.848
 1407TIP3    H2 4165   0.530   4.159   5.848
 1408TIP3   OH2 4166   1.675   7.330   0.562
 1408TIP3    H1 4167   1.596   7.277   0.567
 1408TIP3    H2 4168   1.656   7.406   0.618
 1409TIP3   OH2 4169   4.337   5.205   5.402
 1409TIP3    H1 4170   4.417   5.207   5.350
 1409TIP3    H2 4171   4.268   5.184   5.340
 1410TIP3   OH2 4172   0.768   3.511   5.307
 1410TIP3    H1 4173   0.846   3.516   5.361
 1410TIP3    H2 4174   0.702   3.560   5.355
 1411TIP3   OH2 4175   5.022   3.188   1.325
 1411TIP3    H1 4176   4.997   3.261   1.381
 1411TIP3    H2 4177   4.938   3.153   1.292
 1412TIP3   OH2 4178   3.142   6.556   6.314
 1412TIP3    H1 4179   3.088   6.484   6.347
 1412TIP3    H2 4180   3.166   6.605   6.392
 1413TIP3   OH2 4181   4.137   2.543   0.120
 1413TIP3    H1 4182   4.178   2.575   0.039
 1413TIP3    H2 4183   4.045   2.570   0.112
 1414TIP3   OH2 4184   2.833   2.172   5.243
 1414TIP3    H1 4185   2.881   2.104   5.195
 1414TIP3    H2 4186   2.810   2.130   5.326
 1415TIP3   OH2 4187   7.174   1.450   0.866
 1415TIP3    H1 4188   7.092   1.496   0.849
 1415TIP3    H2 4189   7.223   1.456   0.784
 1416TIP3   OH2 4190   3.102   4.374   2.331
 1416TIP3    H1 4191   3.030   4.427   2.366
 1416TIP3    H2 4192   3.167   4.438   2.302
 1417TIP3   OH2 4193   3.026   5.653   2.113
 1417TIP3    H1 4194   2.948   5.705   2.095
 1417TIP3    H2 4195   3.065   5.695   2.190
 1418TIP3   OH2 4196   7.750   7.279   4.024
 1418TIP3    H1 4197   7.708   7.223   4.089
 1418TIP3    H2 4198   7.835   7.301   4.063
 1419TIP3   OH2 4199   3.510   6.305   0.647
 1419TIP3    H1 4200   3.562   6.225   0.645
 1419TIP3    H2 4201   3.425   6.280   0.611
 1420TIP3   OH2 4202   2.999   4.585   0.764
 1420TIP3    H1 4203   2.910   4.560   0.788
 1420TIP3    H2 4204   2.989   4.644   0.689
 1421TIP3   OH2 4205   7.960   6.794   1.144
 1421TIP3    H1 4206   7.928   6.726   1.085
 1421TIP3    H2 4207   7.881   6.839   1.175
 1422TIP3   OH2 4208   7.543   2.695   2.416
 1422TIP3    H1 4209   7.637   2.692   2.433
 1422TIP3    H2 4210   7.519   2.786   2.431
 1423TIP3   OH2 4211   7.181   1.986   4.897
 1423TIP3    H1 4212   7.210   1.902   4.861
 1423TIP3    H2 4213   7.210   2.051   4.832
 1424TIP3   OH2 4214   6.935   7.094   6.275
 1424TIP3    H1 4215   6.895   7.177   6.248
 1424TIP3    H2 4216   6.882   7.027   6.231
 1425TIP3   OH2 4217   0.168  -0.022   1.142
 1425TIP3    H1 4218   0.221   0.056   1.160
 1425TIP3    H2 4219   0.124  -0.002   1.060
 1426TIP3   OH2 4220   2.807   5.987   1.433
 1426TIP3    H1 4221   2.732   6.045   1.414
 1426TIP3    H2 4222   2.776   5.931   1.504
 1427TIP3   OH2 4223   5.958   2.150   2.276
 1427TIP3    H1 4224   5.915   2.071   2.309
 1427TIP3    H2 4225   6.000   2.122   2.194
 1428TIP3   OH2 4226   1.956   0.248   3.272
 1428TIP3    H1 4227   1.912   0.283   3.350
 1428TIP3    H2 4228   2.043   0.224   3.302
 1429TIP3   OH2 4229   4.198   6.140   6.377
 1429TIP3    H1 4230   4.207   6.234   6.392
 1429TIP3    H2 4231   4.226   6.100   6.459
 1430TIP3   OH2 4232   3.412   4.378   0.775
 1430TIP3    H1 4233   3.362   4.329   0.710
 1430TIP3    H2 4234   3.346   4.414   0.834
 1431TIP3   OH2 4235   2.893   0.679   2.899
 1431TIP3    H1 4236   2.978   0.701   2.859
 1431TIP3    H2 4237   2.915   0.638   2.982
 1432TIP3   OH2 4238   7.925   4.684   1.949
 1432TIP3    H1 4239   7.857   4.656   1.888
 1432TIP3    H2 4240   8.003   4.634   1.924
 1433TIP3   OH2 4241   2.011   6.705   4.277
 1433TIP3    H1 4242   1.995   6.687   4.370
 1433TIP3    H2 4243   1.975   6.629   4.231
 1434TIP3   OH2 4244   3.319   5.527   3.705
 1434TIP3    H1 4245   3.366   5.475   3.640
 1434TIP3    H2 4246   3.228   5.496   3.699
 1435TIP3   OH2 4247   7.909   5.877   1.849
 1435TIP3    H1 4248   8.004   5.891   1.844
 1435TIP3    H2 4249   7.890   5.877   1.943
 1436TIP3   OH2 4250   7.924   2.627   4.355
 1436TIP3    H1 4251   7.856   2.584   4.303
 1436TIP3    H2 4252   7.945   2.706   4.305
 1437TIP3   OH2 4253   3.183   7.576   1.999
 1437TIP3    H1 4254   3.104   7.628   2.017
 1437TIP3    H2 4255   3.244   7.638   1.959
 1438TIP3   OH2 4256   3.562   2.254   1.976
 1438TIP3    H1 4257   3.648   2.213   1.975
 1438TIP3    H2 4258   3.534   2.256   1.885
 1439TIP3   OH2 4259   5.226   4.949   5.667
 1439TIP3    H1 4260   5.306   4.994   5.694
 1439TIP3    H2 4261   5.234   4.861   5.705
 1440TIP3   OH2 4262   8.119   6.856   3.144
 1440TIP3    H1 4263   8.151   6.813   3.066
 1440TIP3    H2 4264   8.072   6.788   3.192
 1441TIP3   OH2 4265   6.633   1.588   0.469
 1441TIP3    H1 4266   6.572   1.643   0.519
 1441TIP3    H2 4267   6.625   1.502   0.509
 1442TIP3   OH2 4268   5.268   3.794   2.788
 1442TIP3    H1 4269   5.326   3.752   2.852
 1442TIP3    H2 4270   5.313   3.875   2.763
 1443TIP3   OH2 4271   1.021   7.010   5.907
 1443TIP3    H1 4272   1.051   7.067   5.836
 1443TIP3    H2 4273   0.938   6.975   5.876
 1444TIP3   OH2 4274   3.030   3.807   3.888
 1444TIP3    H1 4275   2.972   3.875   3.921
 1444TIP3    H2 4276   3.108   3.853   3.859
 1445TIP3   OH2 4277   1.065   1.132   1.842
 1445TIP3    H1 4278   1.070   1.038   1.863
 1445TIP3    H2 4279   0.974   1.146   1.818
 1446TIP3   OH2 4280   2.977   6.455   2.649
 1446TIP3    H1 4281   2.965   6.365   2.620
 1446TIP3    H2 4282   3.071   6.471   2.640
 1447TIP3   OH2 4283   8.114   6.798   1.560
 1447TIP3    H1 4284   8.051   6.726   1.560
 1447TIP3    H2 4285   8.154   6.794   1.473
 1448TIP3   OH2 4286   3.569   0.860   3.308
 1448TIP3    H1 4287   3.637   0.856   3.241
 1448TIP3    H2 4288   3.609   0.909   3.380
 1449TIP3   OH2 4289   1.752   0.339   3.719
 1449TIP3    H1 4290   1.798   0.397   3.658
 1449TIP3    H2 4291   1.659   0.354   3.700
 1450TIP3   OH2 4292   6.877   4.854   1.269
 1450TIP3    H1 4293   6.782   4.865   1.274
 1450TIP3    H2 4294   6.898   4.862   1.176
 1451TIP3   OH2 4295   3.810   7.237   3.918
 1451TIP3    H1 4296   3.884   7.220   3.977
 1451TIP3    H2 4297   3.785   7.150   3.886
 1452TIP3   OH2 4298   1.794   4.381   6.710
 1452TIP3    H1 4299   1.839   4.333   6.780
 1452TIP3    H2 4300   1.727   4.433   6.755
 1453TIP3   OH2 4301   7.437   5.082   4.910
 1453TIP3    H1 4302   7.496   5.147   4.948
 1453TIP3    H2 4303   7.496   5.020   4.867
 1454TIP3   OH2 4304   5.577   2.823   5.882
 1454TIP3    H1 4305   5.560   2.912   5.910
 1454TIP3    H2 4306   5.656   2.829   5.827
 1455TIP3   OH2 4307   7.165   0.726   3.943
 1455TIP3    H1 4308   7.205   0.810   3.964
 1455TIP3    H2 4309   7.234   0.679   3.895
 1456TIP3   OH2 4310   7.918   0.283   3.395
 1456TIP3    H1 4311   8.005   0.245   3.387
 1456TIP3    H2 4312   7.898   0.278   3.489
 1457TIP3   OH2 4313   7.598   4.883   1.787
 1457TIP3    H1 4314   7.597   4.939   1.865
 1457TIP3    H2 4315   7.576   4.796   1.820
 1458TIP3   OH2 4316   3.304   1.959   6.306
 1458TIP3    H1 4317   3.221   2.003   6.290
 1458TIP3    H2 4318   3.281   1.868   6.323
 1459TIP3   OH2 4319   0.745   0.056   2.369
 1459TIP3    H1 4320   0.654   0.032   2.352
 1459TIP3    H2 4321   0.781   0.077   2.283
 1460TIP3   OH2 4322   0.951   5.057   2.866
 1460TIP3    H1 4323   0.958   5.124   2.798
 1460TIP3    H2 4324   1.017   4.992   2.842
 1461TIP3   OH2 4325   8.130   0.140   3.346
 1461TIP3    H1 4326   8.193   0.108   3.411
 1461TIP3    H2 4327   8.073   0.066   3.328
 1462TIP3   OH2 4328   0.659   1.714   0.513
 1462TIP3    H1 4329   0.738   1.661   0.518
 1462TIP3    H2 4330   0.625   1.700   0.425
 1463TIP3   OH2 4331   4.874   5.428   5.652
 1463TIP3    H1 4332   4.906   5.491   5.588
 1463TIP3    H2 4333   4.798   5.471   5.692
 1464TIP3   OH2 4334   1.278   0.390   0.716
 1464TIP3    H1 4335   1.263   0.311   0.768
 1464TIP3    H2 4336   1.247   0.366   0.628
 1465TIP3   OH2 4337   1.149   4.909   4.282
 1465TIP3    H1 4338   1.056   4.916   4.303
 1465TIP3    H2 4339   1.151   4.898   4.186
 1466TIP3   OH2 4340   3.259   5.174   2.735
 1466TIP3    H1 4341   3.297   5.192   2.821
 1466TIP3    H2 4342   3.211   5.254   2.713
 1467TIP3   OH2 4343   1.005   7.164   4.248
 1467TIP3    H1 4344   0.925   7.205   4.279
 1467TIP3    H2 4345   1.068   7.177   4.319
 1468TIP3   OH2 4346   0.525   2.123   0.791
 1468TIP3    H1 4347   0.572   2.183   0.732
 1468TIP3    H2 4348   0.531   2.038   0.749
 1469TIP3   OH2 4349   7.272   1.296   4.714
 1469TIP3    H1 4350   7.363   1.312   4.739
 1469TIP3    H2 4351   7.231   1.382   4.715
 1470TIP3   OH2 4352   5.967   7.101   3.528
 1470TIP3    H1 4353   5.939   7.069   3.443
 1470TIP3    H2 4354   6.053   7.060   3.542
 1471TIP3   OH2 4355   5.044   1.200   4.482
 1471TIP3    H1 4356   4.992   1.188   4.403
 1471TIP3    H2 4357   5.133   1.174   4.457
 1472TIP3   OH2 4358   3.793   2.168   0.427
 1472TIP3    H1 4359   3.837   2.252   0.430
 1472TIP3    H2 4360   3.862   2.104   0.447
 1473TIP3   OH2 4361   7.491   3.640   1.210
 1473TIP3    H1 4362   7.449   3.693   1.277
 1473TIP3    H2 4363   7.565   3.692   1.181
 1474TIP3   OH2 4364   7.666   5.994   0.003
 1474TIP3    H1 4365   7.668   5.899   0.017
 1474TIP3    H2 4366   7.698   6.031   0.085
 1475TIP3   OH2 4367   7.302   6.984   1.605
 1475TIP3    H1 4368   7.363   6.909   1.605
 1475TIP3    H2 4369   7.277   6.995   1.696
 1476TIP3   OH2 4370   1.250   3.358   3.122
 1476TIP3    H1 4371   1.261   3.354   3.217
 1476TIP3    H2 4372   1.155   3.354   3.109
 1477TIP3   OH2 4373   7.631   2.481   5.638
 1477TIP3    H1 4374   7.544   2.449   5.614
 1477TIP3    H2 4375   7.684   2.403   5.649
 1478TIP3   OH2 4376   7.942   0.544   2.901
 1478TIP3    H1 4377   7.983   0.481   2.960
 1478TIP3    H2 4378   7.985   0.529   2.817
 1479TIP3   OH2 4379   0.328   3.229   0.129
 1479TIP3    H1 4380   0.364   3.151   0.171
 1479TIP3    H2 4381   0.374   3.234   0.045
 1480TIP3   OH2 4382   2.977   5.611   6.688
 1480TIP3    H1 4383   3.002   5.699   6.659
 1480TIP3    H2 4384   2.896   5.624   6.737
 1481TIP3   OH2 4385   7.242   6.557   2.275
 1481TIP3    H1 4386   7.206   6.575   2.187
 1481TIP3    H2 4387   7.232   6.463   2.286
 1482TIP3   OH2 4388   4.657   3.303   1.702
 1482TIP3    H1 4389   4.741   3.314   1.656
 1482TIP3    H2 4390   4.681   3.285   1.793
 1483TIP3   OH2 4391   2.657   2.328   2.977
 1483TIP3    H1 4392   2.588   2.270   3.009
 1483TIP3    H2 4393   2.672   2.390   3.049
 1484TIP3   OH2 4394   1.592   3.291   0.921
 1484TIP3    H1 4395   1.499   3.269   0.915
 1484TIP3    H2 4396   1.624   3.283   0.831
 1485TIP3   OH2 4397   3.031   0.300   4.481
 1485TIP3    H1 4398   3.101   0.365   4.486
 1485TIP3    H2 4399   2.985   0.319   4.399
 1486TIP3   OH2 4400   0.772   4.501   0.956
 1486TIP3    H1 4401   0.717   4.451   0.895
 1486TIP3    H2 4402   0.860   4.466   0.943
 1487TIP3   OH2 4403   1.289   1.674   2.602
 1487TIP3    H1 4404   1.365   1.724   2.573
 1487TIP3    H2 4405   1.279   1.605   2.537
 1488TIP3   OH2 4406   8.116   4.742   0.487
 1488TIP3    H1 4407   8.143   4.821   0.533
 1488TIP3    H2 4408   8.121   4.673   0.552
 1489TIP3   OH2 4409   5.287   4.941   4.672
 1489TIP3    H1 4410   5.344   4.883   4.620
 1489TIP3    H2 4411   5.343   4.972   4.743
 1490TIP3   OH2 4412   0.823   3.644   4.841
 1490TIP3    H1 4413   0.883   3.697   4.788
 1490TIP3    H2 4414   0.835   3.555   4.809
 1491TIP3   OH2 4415   7.942   5.216   5.720
 1491TIP3    H1 4416   8.011   5.166   5.676
 1491TIP3    H2 4417   7.988   5.260   5.792
 1492TIP3   OH2 4418   5.340   0.218   3.410
 1492TIP3    H1 4419   5.278   0.279   3.451
 1492TIP3    H2 4420   5.287   0.167   3.349
 1493TIP3   OH2 4421   1.820   0.673   4.528
 1493TIP3    H1 4422   1.802   0.628   4.611
 1493TIP3    H2 4423   1.834   0.764   4.554
 1494TIP3   OH2 4424   0.530   0.150   4.950
 1494TIP3    H1 4425   0.512   0.241   4.974
 1494TIP3    H2 4426   0.601   0.123   5.008
 1495TIP3   OH2 4427   3.291   0.690   3.584
 1495TIP3    H1 4428   3.237   0.758   3.625
 1495TIP3    H2 4429   3.294   0.714   3.492
 1496TIP3   OH2 4430   3.170   2.164   4.114
 1496TIP3    H1 4431   3.187   2.185   4.023
 1496TIP3    H2 4432   3.248   2.195   4.161
 1497TIP3   OH2 4433   3.979   5.869   5.445
 1497TIP3    H1 4434   4.056   5.813   5.437
 1497TIP3    H2 4435   3.955   5.864   5.537
 1498TIP3   OH2 4436   6.636   2.491   2.483
 1498TIP3    H1 4437   6.643   2.447   2.398
 1498TIP3    H2 4438   6.726   2.493   2.517
 1499TIP3   OH2 4439   3.175   2.122   5.631
 1499TIP3    H1 4440   3.120   2.176   5.575
 1499TIP3    H2 4441   3.262   2.161   5.624
 1500TIP3   OH2 4442   4.767   0.653   5.628
 1500TIP3    H1 4443   4.727   0.631   5.543
 1500TIP3    H2 4444   4.860   0.663   5.609
 1501TIP3   OH2 4445   4.234   1.128   0.239
 1501TIP3    H1 4446   4.276   1.147   0.323
 1501TIP3    H2 4447   4.250   1.034   0.226
 1502TIP3   OH2 4448   7.174   0.494   0.331
 1502TIP3    H1 4449   7.218   0.544   0.399
 1502TIP3    H2 4450   7.210   0.526   0.249
 1503TIP3   OH2 4451   2.393   5.751   2.280
 1503TIP3    H1 4452   2.368   5.824   2.337
 1503TIP3    H2 4453   2.382   5.674   2.334
 1504TIP3   OH2 4454   5.009   0.114   0.169
 1504TIP3    H1 4455   4.982   0.174   0.100
 1504TIP3    H2 4456   5.024   0.031   0.125
 1505TIP3   OH2 4457   2.713   5.311   1.646
 1505TIP3    H1 4458   2.697   5.295   1.739
 1505TIP3    H2 4459   2.756   5.232   1.615
 1506TIP3   OH2 4460   0.973   3.214   5.684
 1506TIP3    H1 4461   1.035   3.270   5.638
 1506TIP3    H2 4462   1.017   3.129   5.689
 1507TIP3   OH2 4463   8.084   6.798   0.250
 1507TIP3    H1 4464   8.147   6.804   0.322
 1507TIP3    H2 4465   8.050   6.887   0.241
 1508TIP3   OH2 4466   3.406   4.811   0.780
 1508TIP3    H1 4467   3.382   4.839   0.691
 1508TIP3    H2 4468   3.450   4.727   0.767
 1509TIP3   OH2 4469   3.275   1.140   4.238
 1509TIP3    H1 4470   3.238   1.228   4.225
 1509TIP3    H2 4471   3.198   1.083   4.244
 1510TIP3   OH2 4472   2.022   4.097   2.264
 1510TIP3    H1 4473   1.980   4.183   2.258
 1510TIP3    H2 4474   2.023   4.078   2.358
 1511TIP3   OH2 4475   4.485   6.349   6.115
 1511TIP3    H1 4476   4.506   6.439   6.139
 1511TIP3    H2 4477   4.523   6.338   6.028
 1512TIP3   OH2 4478   7.621   3.176   0.951
 1512TIP3    H1 4479   7.695   3.134   0.996
 1512TIP3    H2 4480   7.651   3.264   0.931
 1513TIP3   OH2 4481   7.150   0.528   1.352
 1513TIP3    H1 4482   7.177   0.450   1.304
 1513TIP3    H2 4483   7.055   0.534   1.337
 1514TIP3   OH2 4484   4.305   6.038   2.112
 1514TIP3    H1 4485   4.237   6.048   2.046
 1514TIP3    H2 4486   4.262   5.990   2.184
 1515TIP3   OH2 4487   4.860   2.689   5.146
 1515TIP3    H1 4488   4.772   2.726   5.150
 1515TIP3    H2 4489   4.907   2.733   5.216
 1516TIP3   OH2 4490   1.654   5.359   2.589
 1516TIP3    H1 4491   1.636   5.437   2.536
 1516TIP3    H2 4492   1.711   5.305   2.535
 1517TIP3   OH2 4493   4.047   6.033   5.048
 1517TIP3    H1 4494   3.972   6.077   5.008
 1517TIP3    H2 4495   4.096   5.997   4.973
 1518TIP3   OH2 4496   3.300   7.029   1.263
 1518TIP3    H1 4497   3.318   7.056   1.173
 1518TIP3    H2 4498   3.226   6.967   1.254
 1519TIP3   OH2 4499   4.170   6.730   1.114
 1519TIP3    H1 4500   4.184   6.638   1.091
 1519TIP3    H2 4501   4.244   6.776   1.073
 1520TIP3   OH2 4502   3.801   3.976   2.560
 1520TIP3    H1 4503   3.855   4.010   2.632
 1520TIP3    H2 4504   3.837   4.017   2.481
 1521TIP3   OH2 4505   6.370   4.596   6.510
 1521TIP3    H1 4506   6.410   4.618   6.594
 1521TIP3    H2 4507   6.422   4.645   6.446
 1522TIP3   OH2 4508   3.393   3.259   1.606
 1522TIP3    H1 4509   3.338   3.324   1.562
 1522TIP3    H2 4510   3.334   3.214   1.666
 1523TIP3   OH2 4511   1.574   0.011   5.335
 1523TIP3    H1 4512   1.664   0.043   5.330
 1523TIP3    H2 4513   1.522   0.081   5.297
 1524TIP3   OH2 4514   7.044   5.006   1.456
 1524TIP3    H1 4515   7.016   5.017   1.547
 1524TIP3    H2 4516   6.987   4.937   1.422
 1525TIP3   OH2 4517   7.378   3.186   4.965
 1525TIP3    H1 4518   7.352   3.264   5.013
 1525TIP3    H2 4519   7.388   3.216   4.875
 1526TIP3   OH2 4520   6.580   0.444   0.742
 1526TIP3    H1 4521   6.603   0.373   0.803
 1526TIP3    H2 4522   6.514   0.405   0.684
 1527TIP3   OH2 4523   3.772   2.963   5.226
 1527TIP3    H1 4524   3.750   2.939   5.316
 1527TIP3    H2 4525   3.848   2.910   5.205
 1528TIP3   OH2 4526   0.552   6.794   1.589
 1528TIP3    H1 4527   0.624   6.769   1.647
 1528TIP3    H2 4528   0.473   6.773   1.639
 1529TIP3   OH2 4529   7.968   3.132   0.880
 1529TIP3    H1 4530   7.944   3.175   0.798
 1529TIP3    H2 4531   7.974   3.039   0.857
 1530TIP3   OH2 4532   0.803   2.521   1.286
 1530TIP3    H1 4533   0.893   2.511   1.316
 1530TIP3    H2 4534   0.756   2.552   1.364
 1531TIP3   OH2 4535   4.721   1.945   0.197
 1531TIP3    H1 4536   4.701   1.883   0.126
 1531TIP3    H2 4537   4.686   2.028   0.166
 1532TIP3   OH2 4538   3.306   2.252   5.081
 1532TIP3    H1 4539   3.376   2.270   5.144
 1532TIP3    H2 4540   3.296   2.157   5.082
 1533TIP3   OH2 4541   1.809   1.535   1.997
 1533TIP3    H1 4542   1.762   1.452   2.004
 1533TIP3    H2 4543   1.745   1.595   1.958
 1534TIP3   OH2 4544   1.801   6.400   2.336
 1534TIP3    H1 4545   1.853   6.343   2.280
 1534TIP3    H2 4546   1.848   6.483   2.336
 1535TIP3   OH2 4547   8.001   0.454   5.484
 1535TIP3    H1 4548   7.969   0.525   5.428
 1535TIP3    H2 4549   8.093   0.476   5.500
 1536TIP3   OH2 4550   0.402   5.462   5.532
 1536TIP3    H1 4551   0.337   5.532   5.528
 1536TIP3    H2 4552   0.415   5.446   5.626
 1537TIP3   OH2 4553   3.754   3.420   2.256
 1537TIP3    H1 4554   3.686   3.457   2.312
 1537TIP3    H2 4555   3.835   3.432   2.305
 1538TIP3   OH2 4556   1.212   4.917   1.036
 1538TIP3    H1 4557   1.131   4.896   0.990
 1538TIP3    H2 4558   1.210   5.013   1.044
 1539TIP3   OH2 4559   7.708   7.024   5.320
 1539TIP3    H1 4560   7.741   7.114   5.319
 1539TIP3    H2 4561   7.667   7.013   5.234
 1540TIP3   OH2 4562   5.741   2.666   1.364
 1540TIP3    H1 4563   5.658   2.702   1.331
 1540TIP3    H2 4564   5.807   2.698   1.303
 1541TIP3   OH2 4565   8.155   3.532   1.243
 1541TIP3    H1 4566   8.149   3.456   1.186
 1541TIP3    H2 4567   8.074   3.532   1.294
 1542TIP3   OH2 4568   3.142   1.159   2.946
 1542TIP3    H1 4569   3.136   1.248   2.911
 1542TIP3    H2 4570   3.063   1.115   2.914
 1543TIP3   OH2 4571   5.699   0.838   5.076
 1543TIP3    H1 4572   5.706   0.758   5.023
 1543TIP3    H2 4573   5.610   0.837   5.111
 1544TIP3   OH2 4574   1.431   3.887   2.552
 1544TIP3    H1 4575   1.378   3.814   2.522
 1544TIP3    H2 4576   1.504   3.892   2.490
 1545TIP3   OH2 4577   2.276   1.737   3.539
 1545TIP3    H1 4578   2.190   1.695   3.533
 1545TIP3    H2 4579   2.261   1.827   3.512
 1546TIP3   OH2 4580   3.670   2.364   2.565
 1546TIP3    H1 4581   3.742   2.303   2.550
 1546TIP3    H2 4582   3.643   2.348   2.655
 1547TIP3   OH2 4583   5.157   2.783   6.565
 1547TIP3    H1 4584   5.115   2.814   6.485
 1547TIP3    H2 4585   5.201   2.702   6.540
 1548TIP3   OH2 4586   0.991   3.931   6.251
 1548TIP3    H1 4587   1.023   3.866   6.314
 1548TIP3    H2 4588   0.945   3.996   6.303
 1549TIP3   OH2 4589   2.900   1.556   0.586
 1549TIP3    H1 4590   2.872   1.481   0.532
 1549TIP3    H2 4591   2.925   1.517   0.669
 1550TIP3   OH2 4592   5.709   1.546   2.087
 1550TIP3    H1 4593   5.614   1.549   2.077
 1550TIP3    H2 4594   5.732   1.629   2.129
 1551TIP3   OH2 4595   4.203   0.889   2.850
 1551TIP3    H1 4596   4.111   0.916   2.850
 1551TIP3    H2 4597   4.207   0.818   2.786
 1552TIP3   OH2 4598   0.036   5.413   6.039
 1552TIP3    H1 4599   0.111   5.459   6.002
 1552TIP3    H2 4600  -0.033   5.479   6.042
 1553TIP3   OH2 4601   2.448   3.962   5.899
 1553TIP3    H1 4602   2.406   3.933   5.818
 1553TIP3    H2 4603   2.489   3.883   5.935
 1554TIP3   OH2 4604   3.278   6.192   3.493
 1554TIP3    H1 4605   3.240   6.114   3.532
 1554TIP3    H2 4606   3.369   6.193   3.524
 1555TIP3   OH2 4607   0.708   0.836   3.449
 1555TIP3    H1 4608   0.737   0.750   3.480
 1555TIP3    H2 4609   0.784   0.870   3.400
 1556TIP3   OH2 4610   6.880   5.278   0.558
 1556TIP3    H1 4611   6.896   5.276   0.464
 1556TIP3    H2 4612   6.807   5.339   0.569
 1557TIP3   OH2 4613   3.420   1.611   5.928
 1557TIP3    H1 4614   3.506   1.570   5.931
 1557TIP3    H2 4615   3.362   1.549   5.972
 1558TIP3   OH2 4616   3.538   5.797   2.305
 1558TIP3    H1 4617   3.481   5.854   2.252
 1558TIP3    H2 4618   3.482   5.722   2.327
 1559TIP3   OH2 4619   0.763   3.627   3.415
 1559TIP3    H1 4620   0.705   3.591   3.482
 1559TIP3    H2 4621   0.790   3.712   3.449
 1560TIP3   OH2 4622   3.285   4.873   3.713
 1560TIP3    H1 4623   3.205   4.877   3.661
 1560TIP3    H2 4624   3.343   4.813   3.665
 1561TIP3   OH2 4625   3.232   5.303   4.441
 1561TIP3    H1 4626   3.138   5.291   4.456
 1561TIP3    H2 4627   3.273   5.264   4.518
 1562TIP3   OH2 4628   7.368   2.654   1.511
 1562TIP3    H1 4629   7.335   2.744   1.499
 1562TIP3    H2 4630   7.348   2.610   1.428
 1563TIP3   OH2 4631   8.251   1.162   0.488
 1563TIP3    H1 4632   8.192   1.139   0.560
 1563TIP3    H2 4633   8.313   1.088   0.483
 1564TIP3   OH2 4634   7.789   2.219   1.994
 1564TIP3    H1 4635   7.777   2.278   1.919
 1564TIP3    H2 4636   7.715   2.237   2.051
 1565TIP3   OH2 4637   3.190   1.305   2.202
 1565TIP3    H1 4638   3.166   1.395   2.226
 1565TIP3    H2 4639   3.213   1.311   2.109
 1566TIP3   OH2 4640   4.222   4.890   4.377
 1566TIP3    H1 4641   4.203   4.977   4.413
 1566TIP3    H2 4642   4.304   4.901   4.329
 1567TIP3   OH2 4643   3.497   4.073   5.762
 1567TIP3    H1 4644   3.422   4.126   5.734
 1567TIP3    H2 4645   3.508   4.009   5.692
 1568TIP3   OH2 4646   7.777   6.720   0.039
 1568TIP3    H1 4647   7.802   6.656  -0.027
 1568TIP3    H2 4648   7.854   6.775   0.050
 1569TIP3   OH2 4649   6.895   4.822   2.050
 1569TIP3    H1 4650   6.947   4.747   2.020
 1569TIP3    H2 4651   6.874   4.870   1.970
 1570TIP3   OH2 4652   5.408   4.836   4.185
 1570TIP3    H1 4653   5.368   4.788   4.258
 1570TIP3    H2 4654   5.428   4.922   4.221
 1571TIP3   OH2 4655   5.097   4.981   4.434
 1571TIP3    H1 4656   5.127   4.958   4.522
 1571TIP3    H2 4657   5.032   4.914   4.413
 1572TIP3   OH2 4658   3.874   3.999   0.975
 1572TIP3    H1 4659   3.793   3.999   0.925
 1572TIP3    H2 4660   3.870   4.078   1.029
 1573TIP3   OH2 4661   0.216   1.968   5.579
 1573TIP3    H1 4662   0.177   2.029   5.516
 1573TIP3    H2 4663   0.229   2.021   5.658
 1574TIP3   OH2 4664   2.506   5.226   2.879
 1574TIP3    H1 4665   2.419   5.265   2.886
 1574TIP3    H2 4666   2.490   5.131   2.882
 1575TIP3   OH2 4667   2.417   4.360   4.388
 1575TIP3    H1 4668   2.340   4.305   4.374
 1575TIP3    H2 4669   2.429   4.407   4.306
 1576TIP3   OH2 4670   1.224   5.703   2.482
 1576TIP3    H1 4671   1.230   5.636   2.550
 1576TIP3    H2 4672   1.290   5.679   2.418
 1577TIP3   OH2 4673   1.731   7.066   3.254
 1577TIP3    H1 4674   1.719   6.972   3.265
 1577TIP3    H2 4675   1.660   7.105   3.305
 1578TIP3   OH2 4676   2.708   0.791   4.782
 1578TIP3    H1 4677   2.796   0.828   4.770
 1578TIP3    H2 4678   2.708   0.761   4.873
 1579TIP3   OH2 4679   0.397   4.891   2.437
 1579TIP3    H1 4680   0.457   4.934   2.376
 1579TIP3    H2 4681   0.443   4.812   2.465
 1580TIP3   OH2 4682   4.921   3.371   6.563
 1580TIP3    H1 4683   4.863   3.352   6.637
 1580TIP3    H2 4684   4.864   3.371   6.486
 1581TIP3   OH2 4685   1.294   7.105   0.436
 1581TIP3    H1 4686   1.293   7.010   0.449
 1581TIP3    H2 4687   1.358   7.118   0.366
 1582TIP3   OH2 4688   2.605   5.225   5.177
 1582TIP3    H1 4689   2.515   5.196   5.160
 1582TIP3    H2 4690   2.603   5.259   5.266
 1583TIP3   OH2 4691   7.603   5.847   1.514
 1583TIP3    H1 4692   7.556   5.836   1.431
 1583TIP3    H2 4693   7.550   5.798   1.578
 1584TIP3   OH2 4694   5.959   0.416   6.077
 1584TIP3    H1 4695   5.915   0.335   6.103
 1584TIP3    H2 4696   6.041   0.416   6.127
 1585TIP3   OH2 4697   1.986   7.220   2.900
 1585TIP3    H1 4698   2.060   7.271   2.932
 1585TIP3    H2 4699   2.025   7.138   2.869
 1586TIP3   OH2 4700   2.536   1.879   1.587
 1586TIP3    H1 4701   2.605   1.815   1.570
 1586TIP3    H2 4702   2.525   1.878   1.682
 1587TIP3   OH2 4703   2.567   5.944   3.860
 1587TIP3    H1 4704   2.638   5.986   3.812
 1587TIP3    H2 4705   2.610   5.896   3.931
 1588TIP3   OH2 4706   4.027   6.887   0.264
 1588TIP3    H1 4707   4.036   6.978   0.235
 1588TIP3    H2 4708   4.011   6.893   0.358
 1589TIP3   OH2 4709   2.947   0.762   4.002
 1589TIP3    H1 4710   2.873   0.703   4.016
 1589TIP3    H2 4711   2.936   0.793   3.912
 1590TIP3   OH2 4712   1.339   0.517   1.284
 1590TIP3    H1 4713   1.406   0.482   1.344
 1590TIP3    H2 4714   1.256   0.491   1.323
 1591TIP3   OH2 4715   7.184   1.500   0.421
 1591TIP3    H1 4716   7.203   1.499   0.327
 1591TIP3    H2 4717   7.216   1.585   0.451
 1592TIP3   OH2 4718   1.216   3.251   6.425
 1592TIP3    H1 4719   1.123   3.257   6.445
 1592TIP3    H2 4720   1.256   3.325   6.471
 1593TIP3   OH2 4721   2.408   4.621   2.749
 1593TIP3    H1 4722   2.423   4.691   2.812
 1593TIP3    H2 4723   2.315   4.600   2.759
 1594TIP3   OH2 4724   5.447   0.063   4.036
 1594TIP3    H1 4725   5.496   0.145   4.043
 1594TIP3    H2 4726   5.495   0.012   3.971
 1595TIP3   OH2 4727   0.589   2.131   2.087
 1595TIP3    H1 4728   0.665   2.133   2.145
 1595TIP3    H2 4729   0.625   2.137   1.999
 1596TIP3   OH2 4730   7.185   4.533   1.126
 1596TIP3    H1 4731   7.140   4.453   1.153
 1596TIP3    H2 4732   7.137   4.562   1.048
 1597TIP3   OH2 4733   5.367   3.149   0.490
 1597TIP3    H1 4734   5.447   3.191   0.521
 1597TIP3    H2 4735   5.330   3.107   0.568
 1598TIP3   OH2 4736   0.010   5.012   1.370
 1598TIP3    H1 4737  -0.018   4.921   1.366
 1598TIP3    H2 4738  -0.055   5.056   1.425
 1599TIP3   OH2 4739   3.337   7.398   2.771
 1599TIP3    H1 4740   3.384   7.382   2.853
 1599TIP3    H2 4741   3.245   7.405   2.798
 1600TIP3   OH2 4742   0.069   2.184   3.770
 1600TIP3    H1 4743   0.145   2.172   3.713
 1600TIP3    H2 4744   0.099   2.247   3.835
 1601TIP3   OH2 4745   4.957   5.235   4.170
 1601TIP3    H1 4746   4.869   5.251   4.205
 1601TIP3    H2 4747   4.950   5.150   4.127
 1602TIP3   OH2 4748   6.972   1.147   4.963
 1602TIP3    H1 4749   7.041   1.136   4.898
 1602TIP3    H2 4750   6.926   1.226   4.936
 1603TIP3   OH2 4751   0.021   7.546   0.529
 1603TIP3    H1 4752   0.027   7.514   0.440
 1603TIP3    H2 4753   0.015   7.641   0.520
 1604TIP3   OH2 4754   2.301   2.869   2.363
 1604TIP3    H1 4755   2.224   2.821   2.332
 1604TIP3    H2 4756   2.362   2.866   2.290
 1605TIP3   OH2 4757   6.475   2.594   6.635
 1605TIP3    H1 4758   6.472   2.682   6.672
 1605TIP3    H2 4759   6.566   2.566   6.648
 1606TIP3   OH2 4760   2.052   6.246   3.191
 1606TIP3    H1 4761   2.110   6.270   3.263
 1606TIP3    H2 4762   2.104   6.263   3.112
 1607TIP3   OH2 4763   0.281   1.683   4.520
 1607TIP3    H1 4764   0.344   1.685   4.592
 1607TIP3    H2 4765   0.267   1.776   4.498
 1608TIP3   OH2 4766   1.981   2.724   0.932
 1608TIP3    H1 4767   1.952   2.800   0.881
 1608TIP3    H2 4768   2.022   2.667   0.867
 1609TIP3   OH2 4769   5.811   5.313   3.411
 1609TIP3    H1 4770   5.761   5.378   3.363
 1609TIP3    H2 4771   5.841   5.251   3.345
 1610TIP3   OH2 4772   1.332   0.993   4.046
 1610TIP3    H1 4773   1.274   1.020   4.117
 1610TIP3    H2 4774   1.276   0.944   3.986
 1611TIP3   OH2 4775   2.114   3.986   6.160
 1611TIP3    H1 4776   2.056   3.999   6.235
 1611TIP3    H2 4777   2.176   3.919   6.188
 1612TIP3   OH2 4778   2.829   3.108   3.207
 1612TIP3    H1 4779   2.867   3.093   3.120
 1612TIP3    H2 4780   2.744   3.148   3.189
 1613TIP3   OH2 4781   1.994   6.892   0.343
 1613TIP3    H1 4782   2.030   6.892   0.431
 1613TIP3    H2 4783   2.053   6.835   0.293
 1614TIP3   OH2 4784   0.578   2.903   5.270
 1614TIP3    H1 4785   0.557   2.990   5.303
 1614TIP3    H2 4786   0.496   2.854   5.275
 1615TIP3   OH2 4787   4.591   6.637   4.706
 1615TIP3    H1 4788   4.666   6.578   4.717
 1615TIP3    H2 4789   4.549   6.638   4.792
 1616TIP3   OH2 4790   5.545   3.962   4.346
 1616TIP3    H1 4791   5.548   3.894   4.414
 1616TIP3    H2 4792   5.455   3.960   4.314
 1617TIP3   OH2 4793   6.898   5.857   0.460
 1617TIP3    H1 4794   6.934   5.772   0.486
 1617TIP3    H2 4795   6.814   5.836   0.419
 1618TIP3   OH2 4796   5.784   3.262   1.594
 1618TIP3    H1 4797   5.837   3.211   1.655
 1618TIP3    H2 4798   5.844   3.288   1.525
 1619TIP3   OH2 4799   4.913   6.230   4.928
 1619TIP3    H1 4800   4.834   6.246   4.877
 1619TIP3    H2 4801   4.980   6.209   4.863
 1620TIP3   OH2 4802   3.993   1.146   0.656
 1620TIP3    H1 4803   4.076   1.119   0.695
 1620TIP3    H2 4804   3.975   1.232   0.694
 1621TIP3   OH2 4805   6.162   1.759   1.081
 1621TIP3    H1 4806   6.211   1.686   1.043
 1621TIP3    H2 4807   6.217   1.790   1.153
 1622TIP3   OH2 4808   7.836   5.376   1.680
 1622TIP3    H1 4809   7.826   5.470   1.664
 1622TIP3    H2 4810   7.926   5.357   1.655
 1623TIP3   OH2 4811   5.946   2.152   4.994
 1623TIP3    H1 4812   5.934   2.216   4.924
 1623TIP3    H2 4813   5.998   2.082   4.955
 1624TIP3   OH2 4814   7.013   0.350   4.652
 1624TIP3    H1 4815   7.058   0.424   4.612
 1624TIP3    H2 4816   7.036   0.357   4.745
 1625TIP3   OH2 4817   5.220   3.052   6.598
 1625TIP3    H1 4818   5.196   2.960   6.610
 1625TIP3    H2 4819   5.147   3.089   6.547
 1626TIP3   OH2 4820   1.897   7.283   5.449
 1626TIP3    H1 4821   1.870   7.192   5.434
 1626TIP3    H2 4822   1.992   7.277   5.465
 1627TIP3   OH2 4823   7.931   2.159   3.244
 1627TIP3    H1 4824   7.981   2.105   3.182
 1627TIP3    H2 4825   7.984   2.237   3.258
 1628TIP3   OH2 4826   0.490   6.949   5.195
 1628TIP3    H1 4827   0.422   7.014   5.211
 1628TIP3    H2 4828   0.492   6.940   5.099
 1629TIP3   OH2 4829   1.972   7.555   0.763
 1629TIP3    H1 4830   2.020   7.473   0.773
 1629TIP3    H2 4831   2.017   7.601   0.691
 1630TIP3   OH2 4832   4.552   1.648   3.654
 1630TIP3    H1 4833   4.563   1.644   3.749
 1630TIP3    H2 4834   4.481   1.711   3.640
 1631TIP3   OH2 4835   7.102   5.472   1.606
 1631TIP3    H1 4836   7.048   5.410   1.557
 1631TIP3    H2 4837   7.174   5.420   1.639
 1632TIP3   OH2 4838   5.024   2.692   3.573
 1632TIP3    H1 4839   5.118   2.698   3.557
 1632TIP3    H2 4840   5.007   2.758   3.641
 1633TIP3   OH2 4841   1.633   5.822   2.565
 1633TIP3    H1 4842   1.620   5.916   2.550
 1633TIP3    H2 4843   1.595   5.807   2.652
 1634TIP3   OH2 4844   2.022   0.945   0.785
 1634TIP3    H1 4845   1.934   0.909   0.792
 1634TIP3    H2 4846   2.068   0.885   0.727
 1635TIP3   OH2 4847   3.805   0.231   1.952
 1635TIP3    H1 4848   3.736   0.200   1.893
 1635TIP3    H2 4849   3.809   0.165   2.022
 1636TIP3   OH2 4850   4.468   4.484   3.067
 1636TIP3    H1 4851   4.472   4.495   2.972
 1636TIP3    H2 4852   4.557   4.504   3.097
 1637TIP3   OH2 4853   6.990   5.205   0.298
 1637TIP3    H1 4854   6.953   5.219   0.210
 1637TIP3    H2 4855   6.993   5.110   0.308
 1638TIP3   OH2 4856   3.538   7.274   5.480
 1638TIP3    H1 4857   3.472   7.227   5.531
 1638TIP3    H2 4858   3.532   7.235   5.392
 1639TIP3   OH2 4859   6.936   2.989   5.890
 1639TIP3    H1 4860   6.970   2.997   5.800
 1639TIP3    H2 4861   6.986   3.053   5.940
 1640TIP3   OH2 4862   4.668   2.113   2.433
 1640TIP3    H1 4863   4.603   2.181   2.451
 1640TIP3    H2 4864   4.629   2.060   2.364
 1641TIP3   OH2 4865   0.523   2.078   3.079
 1641TIP3    H1 4866   0.512   1.987   3.053
 1641TIP3    H2 4867   0.442   2.099   3.126
 1642TIP3   OH2 4868   6.069   0.627   5.445
 1642TIP3    H1 4869   6.049   0.644   5.353
 1642TIP3    H2 4870   6.029   0.541   5.462
 1643TIP3   OH2 4871   3.545   0.437   1.553
 1643TIP3    H1 4872   3.530   0.510   1.493
 1643TIP3    H2 4873   3.553   0.478   1.639
 1644TIP3   OH2 4874   2.883   4.196   6.345
 1644TIP3    H1 4875   2.883   4.113   6.393
 1644TIP3    H2 4876   2.823   4.252   6.394
 1645TIP3   OH2 4877   4.282   0.553   3.340
 1645TIP3    H1 4878   4.286   0.639   3.383
 1645TIP3    H2 4879   4.359   0.550   3.284
 1646TIP3   OH2 4880   0.743   0.295   3.402
 1646TIP3    H1 4881   0.800   0.246   3.461
 1646TIP3    H2 4882   0.664   0.312   3.453
 1647TIP3   OH2 4883   4.106   6.109   1.293
 1647TIP3    H1 4884   4.133   6.199   1.273
 1647TIP3    H2 4885   4.085   6.111   1.386
 1648TIP3   OH2 4886   7.763   4.511   5.111
 1648TIP3    H1 4887   7.779   4.432   5.163
 1648TIP3    H2 4888   7.849   4.553   5.103
 1649TIP3   OH2 4889   7.376   0.910   1.461
 1649TIP3    H1 4890   7.343   0.847   1.525
 1649TIP3    H2 4891   7.352   0.872   1.376
 1650TIP3   OH2 4892   4.619   2.022   0.857
 1650TIP3    H1 4893   4.575   2.072   0.926
 1650TIP3    H2 4894   4.570   1.940   0.851
 1651TIP3   OH2 4895   4.492   5.724   3.153
 1651TIP3    H1 4896   4.586   5.709   3.167
 1651TIP3    H2 4897   4.459   5.640   3.122
 1652TIP3   OH2 4898   1.285   1.426   3.748
 1652TIP3    H1 4899   1.277   1.362   3.818
 1652TIP3    H2 4900   1.354   1.486   3.777
 1653TIP3   OH2 4901   0.353   1.450   5.539
 1653TIP3    H1 4902   0.344   1.530   5.487
 1653TIP3    H2 4903   0.370   1.381   5.475
 1654TIP3   OH2 4904   3.203   4.170   5.721
 1654TIP3    H1 4905   3.166   4.140   5.638
 1654TIP3    H2 4906   3.170   4.108   5.786
 1655TIP3   OH2 4907   6.258   7.751   4.357
 1655TIP3    H1 4908   6.219   7.708   4.433
 1655TIP3    H2 4909   6.189   7.810   4.326
 1656TIP3   OH2 4910   6.775   0.774   0.588
 1656TIP3    H1 4911   6.699   0.807   0.540
 1656TIP3    H2 4912   6.849   0.825   0.556
 1657TIP3   OH2 4913   7.300   5.264   1.721
 1657TIP3    H1 4914   7.305   5.204   1.795
 1657TIP3    H2 4915   7.352   5.222   1.652
 1658TIP3   OH2 4916   2.796   5.611   0.926
 1658TIP3    H1 4917   2.741   5.673   0.975
 1658TIP3    H2 4918   2.809   5.653   0.841
 1659TIP3   OH2 4919   7.206   1.434   4.381
 1659TIP3    H1 4920   7.189   1.477   4.464
 1659TIP3    H2 4921   7.247   1.351   4.404
 1660TIP3   OH2 4922   5.431   1.052   1.113
 1660TIP3    H1 4923   5.428   0.961   1.082
 1660TIP3    H2 4924   5.512   1.087   1.076
 1661TIP3   OH2 4925   6.200   6.602   6.573
 1661TIP3    H1 4926   6.291   6.624   6.556
 1661TIP3    H2 4927   6.184   6.523   6.522
 1662TIP3   OH2 4928   3.644   3.915   6.519
 1662TIP3    H1 4929   3.723   3.885   6.564
 1662TIP3    H2 4930   3.654   4.010   6.513
 1663TIP3   OH2 4931   3.939   3.302   1.556
 1663TIP3    H1 4932   3.967   3.374   1.499
 1663TIP3    H2 4933   3.845   3.318   1.570
 1664TIP3   OH2 4934   3.469   2.428   2.795
 1664TIP3    H1 4935   3.511   2.345   2.818
 1664TIP3    H2 4936   3.390   2.430   2.850
 1665TIP3   OH2 4937   1.470   2.242   2.408
 1665TIP3    H1 4938   1.412   2.196   2.468
 1665TIP3    H2 4939   1.493   2.176   2.342
 1666TIP3   OH2 4940   6.554   4.265   2.710
 1666TIP3    H1 4941   6.499   4.214   2.649
 1666TIP3    H2 4942   6.610   4.317   2.653
 1667TIP3   OH2 4943   0.104   3.417   0.112
 1667TIP3    H1 4944   0.069   3.381   0.031
 1667TIP3    H2 4945   0.185   3.368   0.128
 1668TIP3   OH2 4946   3.562   7.588   6.214
 1668TIP3    H1 4947   3.653   7.583   6.243
 1668TIP3    H2 4948   3.532   7.497   6.209
 1669TIP3   OH2 4949   2.155   5.127   0.946
 1669TIP3    H1 4950   2.213   5.172   0.885
 1669TIP3    H2 4951   2.103   5.068   0.892
 1670TIP3   OH2 4952   5.274   3.688   0.509
 1670TIP3    H1 4953   5.255   3.598   0.482
 1670TIP3    H2 4954   5.219   3.701   0.587
 1671TIP3   OH2 4955   6.257   6.042   4.092
 1671TIP3    H1 4956   6.191   5.974   4.102
 1671TIP3    H2 4957   6.251   6.069   4.001
 1672TIP3   OH2 4958   4.457   1.639   0.575
 1672TIP3    H1 4959   4.435   1.549   0.599
 1672TIP3    H2 4960   4.471   1.684   0.659
 1673TIP3   OH2 4961   1.436   2.940   2.572
 1673TIP3    H1 4962   1.523   2.964   2.602
 1673TIP3    H2 4963   1.443   2.849   2.546
 1674TIP3   OH2 4964   8.271   2.528   0.959
 1674TIP3    H1 4965   8.359   2.523   0.997
 1674TIP3    H2 4966   8.233   2.442   0.973
 1675TIP3   OH2 4967   5.812   4.525   0.976
 1675TIP3    H1 4968   5.792   4.615   0.950
 1675TIP3    H2 4969   5.898   4.531   1.017
 1676TIP3   OH2 4970   2.021   0.608   4.342
 1676TIP3    H1 4971   1.950   0.617   4.406
 1676TIP3    H2 4972   2.036   0.696   4.309
 1677TIP3   OH2 4973   5.459   6.287   0.035
 1677TIP3    H1 4974   5.393   6.355   0.021
 1677TIP3    H2 4975   5.535   6.333   0.071
 1678TIP3   OH2 4976   4.026   2.089   6.496
 1678TIP3    H1 4977   4.109   2.079   6.542
 1678TIP3    H2 4978   4.048   2.076   6.404
 1679TIP3   OH2 4979   4.845   2.218   1.726
 1679TIP3    H1 4980   4.884   2.142   1.769
 1679TIP3    H2 4981   4.764   2.234   1.774
 1680TIP3   OH2 4982   2.902   2.259   5.764
 1680TIP3    H1 4983   2.906   2.312   5.844
 1680TIP3    H2 4984   2.988   2.218   5.759
 1681TIP3   OH2 4985   1.882   2.575   1.948
 1681TIP3    H1 4986   1.830   2.655   1.946
 1681TIP3    H2 4987   1.900   2.556   1.855
 1682TIP3   OH2 4988   7.543   3.877   3.608
 1682TIP3    H1 4989   7.539   3.906   3.517
 1682TIP3    H2 4990   7.626   3.912   3.641
 1683TIP3   OH2 4991   0.685   6.085   5.509
 1683TIP3    H1 4992   0.595   6.096   5.477
 1683TIP3    H2 4993   0.712   5.999   5.478
 1684TIP3   OH2 4994   0.683   7.326   6.759
 1684TIP3    H1 4995   0.764   7.298   6.716
 1684TIP3    H2 4996   0.634   7.371   6.689
 1685TIP3   OH2 4997   2.178   3.267   2.279
 1685TIP3    H1 4998   2.135   3.237   2.199
 1685TIP3    H2 4999   2.241   3.333   2.249
 1686TIP3   OH2 5000   5.301   5.190   4.610
 1686TIP3    H1 5001   5.385   5.180   4.565
 1686TIP3    H2 5002   5.284   5.103   4.647
 1687TIP3   OH2 5003   5.445   7.294   2.918
 1687TIP3    H1 5004   5.449   7.366   2.982
 1687TIP3    H2 5005   5.382   7.324   2.852
 1688TIP3   OH2 5006   3.243   1.080   1.165
 1688TIP3    H1 5007   3.195   1.123   1.094
 1688TIP3    H2 5008   3.306   1.146   1.194
 1689TIP3   OH2 5009   3.339   1.072   0.548
 1689TIP3    H1 5010   3.346   0.994   0.603
 1689TIP3    H2 5011   3.412   1.065   0.487
 1690TIP3   OH2 5012   3.638   5.558   3.651
 1690TIP3    H1 5013   3.641   5.651   3.674
 1690TIP3    H2 5014   3.601   5.515   3.728
 1691TIP3   OH2 5015   5.052   2.134   5.053
 1691TIP3    H1 5016   5.081   2.058   5.103
 1691TIP3    H2 5017   5.042   2.203   5.118
 1692TIP3   OH2 5018   8.086   4.469   0.376
 1692TIP3    H1 5019   8.071   4.444   0.285
 1692TIP3    H2 5020   8.180   4.489   0.380
 1693TIP3   OH2 5021   5.799   1.470   1.571
 1693TIP3    H1 5022   5.782   1.532   1.642
 1693TIP3    H2 5023   5.850   1.520   1.507
 1694TIP3   OH2 5024   0.085   7.770   0.391
 1694TIP3    H1 5025   0.156   7.721   0.348
 1694TIP3    H2 5026   0.048   7.823   0.321
 1695TIP3   OH2 5027   1.806   6.764   5.550
 1695TIP3    H1 5028   1.774   6.827   5.614
 1695TIP3    H2 5029   1.777   6.679   5.582
 1696TIP3   OH2 5030   2.542   1.686   1.875
 1696TIP3    H1 5031   2.528   1.608   1.929
 1696TIP3    H2 5032   2.634   1.683   1.850
 1697TIP3   OH2 5033   3.618   0.707   1.670
 1697TIP3    H1 5034   3.577   0.723   1.586
 1697TIP3    H2 5035   3.699   0.757   1.668
 1698TIP3   OH2 5036   1.470   4.172   4.366
 1698TIP3    H1 5037   1.379   4.176   4.337
 1698TIP3    H2 5038   1.520   4.211   4.294
 1699TIP3   OH2 5039   3.875   5.101   2.319
 1699TIP3    H1 5040   3.893   5.140   2.405
 1699TIP3    H2 5041   3.838   5.173   2.268
 1700TIP3   OH2 5042   0.448   0.684   6.685
 1700TIP3    H1 5043   0.480   0.614   6.742
 1700TIP3    H2 5044   0.480   0.661   6.598
 1701TIP3   OH2 5045   3.149   7.789   3.275
 1701TIP3    H1 5046   3.070   7.792   3.330
 1701TIP3    H2 5047   3.216   7.749   3.331
 1702TIP3   OH2 5048   6.145   0.629   0.060
 1702TIP3    H1 5049   6.136   0.554   0.002
 1702TIP3    H2 5050   6.084   0.694   0.025
 1703TIP3   OH2 5051   3.345   2.842   0.767
 1703TIP3    H1 5052   3.429   2.815   0.728
 1703TIP3    H2 5053   3.324   2.773   0.830
 1704TIP3   OH2 5054   2.177   4.952   5.413
 1704TIP3    H1 5055   2.251   5.012   5.427
 1704TIP3    H2 5056   2.196   4.878   5.471
 1705TIP3   OH2 5057   1.221   6.700   1.442
 1705TIP3    H1 5058   1.309   6.663   1.436
 1705TIP3    H2 5059   1.195   6.687   1.533
 1706TIP3   OH2 5060   0.442   1.883   3.407
 1706TIP3    H1 5061   0.522   1.848   3.448
 1706TIP3    H2 5062   0.450   1.859   3.315
 1707TIP3   OH2 5063   5.363   2.099   5.471
 1707TIP3    H1 5064   5.329   2.025   5.421
 1707TIP3    H2 5065   5.331   2.085   5.560
 1708TIP3   OH2 5066   4.785   7.558   2.506
 1708TIP3    H1 5067   4.817   7.484   2.557
 1708TIP3    H2 5068   4.690   7.548   2.506
 1709TIP3   OH2 5069   6.714   6.334   6.535
 1709TIP3    H1 5070   6.632   6.325   6.583
 1709TIP3    H2 5071   6.688   6.325   6.443
 1710TIP3   OH2 5072   1.831   6.071   6.186
 1710TIP3    H1 5073   1.742   6.106   6.177
 1710TIP3    H2 5074   1.844   6.016   6.109
 1711TIP3   OH2 5075   1.683   2.023   3.514
 1711TIP3    H1 5076   1.634   2.021   3.597
 1711TIP3    H2 5077   1.696   1.931   3.492
 1712TIP3   OH2 5078   0.933   6.971   3.217
 1712TIP3    H1 5079   0.971   6.912   3.152
 1712TIP3    H2 5080   1.003   6.983   3.281
 1713TIP3   OH2 5081   5.940   2.147   1.415
 1713TIP3    H1 5082   5.859   2.178   1.457
 1713TIP3    H2 5083   5.940   2.188   1.329
 1714TIP3   OH2 5084   7.461   1.352   2.987
 1714TIP3    H1 5085   7.451   1.359   3.082
 1714TIP3    H2 5086   7.415   1.272   2.964
 1715TIP3   OH2 5087   2.471   3.435   3.839
 1715TIP3    H1 5088   2.550   3.459   3.790
 1715TIP3    H2 5089   2.434   3.362   3.790
 1716TIP3   OH2 5090   1.797   5.075   1.749
 1716TIP3    H1 5091   1.799   5.043   1.659
 1716TIP3    H2 5092   1.889   5.084   1.774
 1717TIP3   OH2 5093   2.122   2.176   3.306
 1717TIP3    H1 5094   2.066   2.202   3.379
 1717TIP3    H2 5095   2.110   2.244   3.240
 1718TIP3   OH2 5096   2.000   1.314   2.735
 1718TIP3    H1 5097   1.923   1.287   2.685
 1718TIP3    H2 5098   2.070   1.318   2.670
 1719TIP3   OH2 5099   0.604   6.614   5.839
 1719TIP3    H1 5100   0.689   6.572   5.832
 1719TIP3    H2 5101   0.541   6.544   5.819
 1720TIP3   OH2 5102   1.885   5.673   4.711
 1720TIP3    H1 5103   1.883   5.765   4.740
 1720TIP3    H2 5104   1.950   5.672   4.641
 1721TIP3   OH2 5105   2.221   5.981   4.784
 1721TIP3    H1 5106   2.142   6.025   4.816
 1721TIP3    H2 5107   2.288   6.049   4.785
 1722TIP3   OH2 5108   6.591   2.065   0.984
 1722TIP3    H1 5109   6.524   2.078   1.052
 1722TIP3    H2 5110   6.551   2.002   0.924
 1723TIP3   OH2 5111   0.331   2.164   1.956
 1723TIP3    H1 5112   0.421   2.135   1.968
 1723TIP3    H2 5113   0.306   2.200   2.042
 1724TIP3   OH2 5114   4.451   7.660   3.224
 1724TIP3    H1 5115   4.413   7.748   3.228
 1724TIP3    H2 5116   4.405   7.617   3.152
 1725TIP3   OH2 5117   5.899   2.998   3.066
 1725TIP3    H1 5118   5.915   2.945   3.144
 1725TIP3    H2 5119   5.804   2.998   3.055
 1726TIP3   OH2 5120   3.754   7.590   6.419
 1726TIP3    H1 5121   3.753   7.559   6.510
 1726TIP3    H2 5122   3.805   7.671   6.422
 1727TIP3   OH2 5123   1.200   2.335   2.875
 1727TIP3    H1 5124   1.121   2.315   2.924
 1727TIP3    H2 5125   1.246   2.400   2.928
 1728TIP3   OH2 5126   7.372   2.988   4.422
 1728TIP3    H1 5127   7.466   2.995   4.403
 1728TIP3    H2 5128   7.331   2.980   4.336
 1729TIP3   OH2 5129   7.080   4.896   6.435
 1729TIP3    H1 5130   7.026   4.831   6.392
 1729TIP3    H2 5131   7.034   4.979   6.421
 1730TIP3   OH2 5132   5.039   0.206   2.767
 1730TIP3    H1 5133   4.995   0.292   2.767
 1730TIP3    H2 5134   5.065   0.193   2.676
 1731TIP3   OH2 5135   0.825   1.754   6.767
 1731TIP3    H1 5136   0.735   1.733   6.743
 1731TIP3    H2 5137   0.844   1.836   6.722
 1732TIP3   OH2 5138   1.127   4.550   5.374
 1732TIP3    H1 5139   1.070   4.627   5.383
 1732TIP3    H2 5140   1.204   4.583   5.327
 1733TIP3   OH2 5141   7.878   3.038   6.389
 1733TIP3    H1 5142   7.803   3.083   6.429
 1733TIP3    H2 5143   7.869   3.054   6.295
 1734TIP3   OH2 5144   3.644   0.044   6.511
 1734TIP3    H1 5145   3.597   0.033   6.429
 1734TIP3    H2 5146   3.605   0.122   6.551
 1735TIP3   OH2 5147   4.573   5.902   0.867
 1735TIP3    H1 5148   4.555   5.867   0.780
 1735TIP3    H2 5149   4.533   5.989   0.867
 1736TIP3   OH2 5150   4.764   5.687   3.235
 1736TIP3    H1 5151   4.778   5.595   3.256
 1736TIP3    H2 5152   4.847   5.716   3.198
 1737TIP3   OH2 5153   4.292   5.315  -0.003
 1737TIP3    H1 5154   4.306   5.397  -0.051
 1737TIP3    H2 5155   4.200   5.295  -0.019
 1738TIP3   OH2 5156   2.752   6.088   2.982
 1738TIP3    H1 5157   2.768   6.021   3.049
 1738TIP3    H2 5158   2.659   6.082   2.964
 1739TIP3   OH2 5159   1.357   7.317   2.147
 1739TIP3    H1 5160   1.351   7.382   2.076
 1739TIP3    H2 5161   1.316   7.239   2.111
 1740TIP3   OH2 5162   3.482   7.800   3.883
 1740TIP3    H1 5163   3.569   7.805   3.922
 1740TIP3    H2 5164   3.498   7.766   3.795
 1741TIP3   OH2 5165   4.780   4.988   5.471
 1741TIP3    H1 5166   4.691   4.953   5.463
 1741TIP3    H2 5167   4.777   5.072   5.425
 1742TIP3   OH2 5168   2.151   6.346   6.496
 1742TIP3    H1 5169   2.070   6.316   6.455
 1742TIP3    H2 5170   2.220   6.297   6.451
 1743TIP3   OH2 5171   0.944   6.114   4.292
 1743TIP3    H1 5172   0.991   6.072   4.364
 1743TIP3    H2 5173   0.949   6.208   4.312
 1744TIP3   OH2 5174   1.376   4.142   0.938
 1744TIP3    H1 5175   1.401   4.181   1.022
 1744TIP3    H2 5176   1.457   4.104   0.904
 1745TIP3   OH2 5177   4.348   1.637   1.965
 1745TIP3    H1 5178   4.258   1.612   1.987
 1745TIP3    H2 5179   4.403   1.583   2.021
 1746TIP3   OH2 5180   1.208   0.567   4.891
 1746TIP3    H1 5181   1.226   0.536   4.802
 1746TIP3    H2 5182   1.132   0.624   4.881
 1747TIP3   OH2 5183   7.689   7.112   6.079
 1747TIP3    H1 5184   7.711   7.142   6.167
 1747TIP3    H2 5185   7.730   7.176   6.021
 1748TIP3   OH2 5186   3.421   3.857   5.914
 1748TIP3    H1 5187   3.427   3.952   5.922
 1748TIP3    H2 5188   3.457   3.838   5.827
 1749TIP3   OH2 5189   2.403   6.319   5.897
 1749TIP3    H1 5190   2.425   6.232   5.865
 1749TIP3    H2 5191   2.419   6.314   5.991
 1750TIP3   OH2 5192   2.554   6.149   2.410
 1750TIP3    H1 5193   2.597   6.233   2.423
 1750TIP3    H2 5194   2.527   6.149   2.318
 1751TIP3   OH2 5195   2.708   6.691   4.953
 1751TIP3    H1 5196   2.792   6.667   4.915
 1751TIP3    H2 5197   2.705   6.786   4.950
 1752TIP3   OH2 5198   0.065   4.267   0.739
 1752TIP3    H1 5199   0.139   4.224   0.696
 1752TIP3    H2 5200  -0.002   4.275   0.671
 1753TIP3   OH2 5201   6.425   4.517   2.518
 1753TIP3    H1 5202   6.421   4.611   2.502
 1753TIP3    H2 5203   6.515   4.493   2.498
 1754TIP3   OH2 5204   6.984   6.912   1.889
 1754TIP3    H1 5205   6.942   6.997   1.902
 1754TIP3    H2 5206   7.072   6.933   1.859
 1755TIP3   OH2 5207   4.893   2.438   3.644
 1755TIP3    H1 5208   4.972   2.389   3.621
 1755TIP3    H2 5209   4.911   2.527   3.616
 1756TIP3   OH2 5210   3.653   7.437   4.099
 1756TIP3    H1 5211   3.618   7.378   4.166
 1756TIP3    H2 5212   3.712   7.381   4.047
 1757TIP3   OH2 5213   2.539   7.221   0.025
 1757TIP3    H1 5214   2.506   7.308   0.048
 1757TIP3    H2 5215   2.481   7.192  -0.045
 1758TIP3   OH2 5216   2.853   4.590   5.098
 1758TIP3    H1 5217   2.819   4.535   5.028
 1758TIP3    H2 5218   2.940   4.553   5.117
 1759TIP3   OH2 5219   7.818   4.547   6.057
 1759TIP3    H1 5220   7.816   4.607   6.132
 1759TIP3    H2 5221   7.786   4.464   6.092
 1760TIP3   OH2 5222   0.961   3.712   0.230
 1760TIP3    H1 5223   0.952   3.808   0.227
 1760TIP3    H2 5224   0.881   3.682   0.274
 1761TIP3   OH2 5225   6.847   7.613   5.315
 1761TIP3    H1 5226   6.839   7.537   5.372
 1761TIP3    H2 5227   6.861   7.687   5.375
 1762TIP3   OH2 5228   2.430   6.469   2.304
 1762TIP3    H1 5229   2.504   6.408   2.302
 1762TIP3    H2 5230   2.465   6.550   2.267
 1763TIP3   OH2 5231   5.412   6.204   1.932
 1763TIP3    H1 5232   5.370   6.120   1.912
 1763TIP3    H2 5233   5.343   6.269   1.919
 1764TIP3   OH2 5234   3.464   7.051   5.646
 1764TIP3    H1 5235   3.492   7.028   5.735
 1764TIP3    H2 5236   3.413   6.975   5.616
 1765TIP3   OH2 5237   4.908   3.768   4.340
 1765TIP3    H1 5238   4.869   3.821   4.270
 1765TIP3    H2 5239   4.838   3.756   4.404
 1766TIP3   OH2 5240   6.074   7.736   2.282
 1766TIP3    H1 5241   6.076   7.676   2.356
 1766TIP3    H2 5242   6.038   7.684   2.210
 1767TIP3   OH2 5243   4.426   2.936   4.999
 1767TIP3    H1 5244   4.427   3.024   5.036
 1767TIP3    H2 5245   4.446   2.878   5.074
 1768TIP3   OH2 5246   7.844   5.835   2.137
 1768TIP3    H1 5247   7.808   5.886   2.210
 1768TIP3    H2 5248   7.895   5.766   2.179
 1769TIP3   OH2 5249   3.231   1.332   1.924
 1769TIP3    H1 5250   3.325   1.313   1.921
 1769TIP3    H2 5251   3.220   1.408   1.867
 1770TIP3   OH2 5252   7.706   4.758   2.157
 1770TIP3    H1 5253   7.796   4.733   2.136
 1770TIP3    H2 5254   7.711   4.788   2.248
 1771TIP3   OH2 5255   1.544   7.658   4.377
 1771TIP3    H1 5256   1.484   7.692   4.444
 1771TIP3    H2 5257   1.487   7.626   4.307
 1772TIP3   OH2 5258   5.496   2.087   4.102
 1772TIP3    H1 5259   5.576   2.102   4.050
 1772TIP3    H2 5260   5.521   2.020   4.166
 1773TIP3   OH2 5261   2.650   4.485   3.234
 1773TIP3    H1 5262   2.627   4.439   3.154
 1773TIP3    H2 5263   2.574   4.476   3.290
 1774TIP3   OH2 5264   5.655   5.245   6.196
 1774TIP3    H1 5265   5.575   5.206   6.161
 1774TIP3    H2 5266   5.638   5.254   6.290
 1775TIP3   OH2 5267   2.101   7.707   0.572
 1775TIP3    H1 5268   2.164   7.729   0.504
 1775TIP3    H2 5269   2.019   7.692   0.525
 1776TIP3   OH2 5270   1.631   4.722   5.177
 1776TIP3    H1 5271   1.608   4.686   5.091
 1776TIP3    H2 5272   1.707   4.671   5.204
 1777TIP3   OH2 5273   0.098   0.157   5.875
 1777TIP3    H1 5274   0.101   0.241   5.921
 1777TIP3    H2 5275   0.190   0.135   5.860
 1778TIP3   OH2 5276   1.945   2.505   5.726
 1778TIP3    H1 5277   2.032   2.532   5.695
 1778TIP3    H2 5278   1.889   2.579   5.706
 1779TIP3   OH2 5279   1.790   3.536   1.058
 1779TIP3    H1 5280   1.863   3.598   1.057
 1779TIP3    H2 5281   1.800   3.489   1.141
 1780TIP3   OH2 5282   3.602   3.274   3.443
 1780TIP3    H1 5283   3.544   3.236   3.509
 1780TIP3    H2 5284   3.682   3.223   3.449
 1781TIP3   OH2 5285   1.379   5.447   4.552
 1781TIP3    H1 5286   1.349   5.387   4.484
 1781TIP3    H2 5287   1.474   5.434   4.556
 1782TIP3   OH2 5288   2.471   7.805   6.181
 1782TIP3    H1 5289   2.459   7.777   6.090
 1782TIP3    H2 5290   2.563   7.786   6.199
 1783TIP3   OH2 5291   0.957   5.904   6.481
 1783TIP3    H1 5292   0.914   5.885   6.565
 1783TIP3    H2 5293   1.045   5.867   6.490
 1784TIP3   OH2 5294   1.856   5.435   4.129
 1784TIP3    H1 5295   1.813   5.442   4.044
 1784TIP3    H2 5296   1.939   5.391   4.111
 1785TIP3   OH2 5297   0.714   7.293   0.640
 1785TIP3    H1 5298   0.639   7.266   0.586
 1785TIP3    H2 5299   0.675   7.321   0.723
 1786TIP3   OH2 5300   5.984   2.554   5.359
 1786TIP3    H1 5301   5.904   2.565   5.411
 1786TIP3    H2 5302   5.970   2.472   5.311
 1787TIP3   OH2 5303   6.230   1.943   6.376
 1787TIP3    H1 5304   6.239   1.965   6.469
 1787TIP3    H2 5305   6.203   1.851   6.375
 1788TIP3   OH2 5306   1.357   2.502   4.208
 1788TIP3    H1 5307   1.318   2.575   4.160
 1788TIP3    H2 5308   1.444   2.492   4.169
 1789TIP3   OH2 5309   4.239   5.735   4.840
 1789TIP3    H1 5310   4.144   5.734   4.850
 1789TIP3    H2 5311   4.268   5.812   4.888
 1790TIP3   OH2 5312   3.138   2.830   0.589
 1790TIP3    H1 5313   3.190   2.850   0.512
 1790TIP3    H2 5314   3.192   2.858   0.663
 1791TIP3   OH2 5315   1.236   4.240   3.808
 1791TIP3    H1 5316   1.152   4.226   3.852
 1791TIP3    H2 5317   1.216   4.233   3.714
 1792TIP3   OH2 5318   8.194   4.084   0.937
 1792TIP3    H1 5319   8.194   4.179   0.942
 1792TIP3    H2 5320   8.102   4.059   0.948
 1793TIP3   OH2 5321   1.081   3.735   0.930
 1793TIP3    H1 5322   1.132   3.812   0.955
 1793TIP3    H2 5323   1.145   3.663   0.933
 1794TIP3   OH2 5324   8.200   2.801   6.299
 1794TIP3    H1 5325   8.194   2.735   6.367
 1794TIP3    H2 5326   8.228   2.753   6.221
 1795TIP3   OH2 5327   7.491   3.358   3.377
 1795TIP3    H1 5328   7.432   3.289   3.348
 1795TIP3    H2 5329   7.543   3.319   3.447
 1796TIP3   OH2 5330   1.004   7.448   3.883
 1796TIP3    H1 5331   0.928   7.500   3.858
 1796TIP3    H2 5332   0.967   7.375   3.933
 1797TIP3   OH2 5333   1.239   1.642   2.962
 1797TIP3    H1 5334   1.217   1.552   2.983
 1797TIP3    H2 5335   1.170   1.671   2.903
 1798TIP3   OH2 5336   5.852   3.178   0.794
 1798TIP3    H1 5337   5.768   3.204   0.832
 1798TIP3    H2 5338   5.888   3.259   0.759
 1799TIP3   OH2 5339   3.278   1.803   3.121
 1799TIP3    H1 5340   3.328   1.865   3.067
 1799TIP3    H2 5341   3.322   1.805   3.206
 1800TIP3   OH2 5342   3.735   1.038   0.599
 1800TIP3    H1 5343   3.820   1.082   0.602
 1800TIP3    H2 5344   3.752   0.957   0.552
 1801TIP3   OH2 5345   5.654   2.630   2.603
 1801TIP3    H1 5346   5.579   2.573   2.586
 1801TIP3    H2 5347   5.726   2.569   2.619
 1802TIP3   OH2 5348   6.011   0.869   1.007
 1802TIP3    H1 5349   5.997   0.777   0.983
 1802TIP3    H2 5350   6.103   0.885   0.988
 1803TIP3   OH2 5351   6.846   3.492   0.503
 1803TIP3    H1 5352   6.899   3.539   0.567
 1803TIP3    H2 5353   6.802   3.423   0.553
 1804TIP3   OH2 5354   0.947   3.774   2.079
 1804TIP3    H1 5355   1.005   3.762   2.154
 1804TIP3    H2 5356   0.962   3.696   2.025
 1805TIP3   OH2 5357   2.918   1.993   2.054
 1805TIP3    H1 5358   2.919   2.031   1.967
 1805TIP3    H2 5359   2.904   1.899   2.040
 1806TIP3   OH2 5360   0.311   6.013   0.804
 1806TIP3    H1 5361   0.290   5.921   0.791
 1806TIP3    H2 5362   0.259   6.059   0.738
 1807TIP3   OH2 5363   0.612   7.169   6.212
 1807TIP3    H1 5364   0.692   7.121   6.188
 1807TIP3    H2 5365   0.643   7.241   6.266
 1808TIP3   OH2 5366   3.204   4.231   0.332
 1808TIP3    H1 5367   3.230   4.306   0.385
 1808TIP3    H2 5368   3.149   4.179   0.391
 1809TIP3   OH2 5369   7.563   6.505   3.348
 1809TIP3    H1 5370   7.503   6.464   3.286
 1809TIP3    H2 5371   7.614   6.567   3.295
 1810TIP3   OH2 5372   5.843   0.421   3.407
 1810TIP3    H1 5373   5.933   0.453   3.413
 1810TIP3    H2 5374   5.840   0.346   3.466
 1811TIP3   OH2 5375   3.143   0.718   2.159
 1811TIP3    H1 5376   3.174   0.643   2.211
 1811TIP3    H2 5377   3.054   0.694   2.133
 1812TIP3   OH2 5378   2.405   3.653   1.444
 1812TIP3    H1 5379   2.424   3.746   1.435
 1812TIP3    H2 5380   2.484   3.616   1.483
 1813TIP3   OH2 5381   0.021   4.634   1.947
 1813TIP3    H1 5382   0.007   4.725   1.976
 1813TIP3    H2 5383  -0.043   4.583   1.996
 1814TIP3   OH2 5384   4.656   5.254   3.279
 1814TIP3    H1 5385   4.721   5.289   3.218
 1814TIP3    H2 5386   4.655   5.316   3.352
 1815TIP3   OH2 5387   8.156   0.196   3.950
 1815TIP3    H1 5388   8.231   0.136   3.952
 1815TIP3    H2 5389   8.094   0.159   4.012
 1816TIP3   OH2 5390   0.472   2.730   4.175
 1816TIP3    H1 5391   0.538   2.668   4.144
 1816TIP3    H2 5392   0.398   2.719   4.115
 1817TIP3   OH2 5393   2.591   1.517   3.210
 1817TIP3    H1 5394   2.534   1.593   3.216
 1817TIP3    H2 5395   2.588   1.478   3.297
 1818TIP3   OH2 5396   0.729   5.781   2.156
 1818TIP3    H1 5397   0.799   5.837   2.126
 1818TIP3    H2 5398   0.771   5.719   2.216
 1819TIP3   OH2 5399   0.911   6.202   5.463
 1819TIP3    H1 5400   0.849   6.263   5.424
 1819TIP3    H2 5401   0.858   6.128   5.491
 1820TIP3   OH2 5402   5.287   0.461   4.108
 1820TIP3    H1 5403   5.260   0.370   4.114
 1820TIP3    H2 5404   5.283   0.493   4.198
 1821TIP3   OH2 5405   1.476   2.199   4.244
 1821TIP3    H1 5406   1.528   2.265   4.290
 1821TIP3    H2 5407   1.386   2.217   4.271
 1822TIP3   OH2 5408   3.925   2.987   6.254
 1822TIP3    H1 5409   3.993   2.957   6.314
 1822TIP3    H2 5410   3.848   2.934   6.274
 1823TIP3   OH2 5411   7.374   7.636   3.076
 1823TIP3    H1 5412   7.465   7.614   3.093
 1823TIP3    H2 5413   7.362   7.621   2.982
 1824TIP3   OH2 5414   3.636   5.663   1.363
 1824TIP3    H1 5415   3.638   5.719   1.441
 1824TIP3    H2 5416   3.636   5.574   1.398
 1825TIP3   OH2 5417   0.755   7.721   4.864
 1825TIP3    H1 5418   0.739   7.813   4.847
 1825TIP3    H2 5419   0.850   7.711   4.859
 1826TIP3   OH2 5420   0.633   6.103   2.885
 1826TIP3    H1 5421   0.573   6.160   2.838
 1826TIP3    H2 5422   0.597   6.015   2.874
 1827TIP3   OH2 5423   5.095   6.557   5.375
 1827TIP3    H1 5424   5.041   6.607   5.315
 1827TIP3    H2 5425   5.182   6.597   5.368
 1828TIP3   OH2 5426   6.163   6.233   3.486
 1828TIP3    H1 5427   6.072   6.207   3.472
 1828TIP3    H2 5428   6.157   6.316   3.535
 1829TIP3   OH2 5429   6.552   7.589   5.417
 1829TIP3    H1 5430   6.620   7.656   5.422
 1829TIP3    H2 5431   6.584   7.518   5.473
 1830TIP3   OH2 5432   1.605   4.410   0.219
 1830TIP3    H1 5433   1.605   4.480   0.284
 1830TIP3    H2 5434   1.615   4.330   0.270
 1831TIP3   OH2 5435   4.319   7.677   4.166
 1831TIP3    H1 5436   4.412   7.654   4.160
 1831TIP3    H2 5437   4.282   7.612   4.226
 1832TIP3   OH2 5438   7.484   0.621   1.533
 1832TIP3    H1 5439   7.483   0.548   1.472
 1832TIP3    H2 5440   7.542   0.685   1.493
 1833TIP3   OH2 5441   6.052   3.402   0.402
 1833TIP3    H1 5442   6.105   3.446   0.335
 1833TIP3    H2 5443   6.099   3.321   0.420
 1834TIP3   OH2 5444   2.372   5.844   0.988
 1834TIP3    H1 5445   2.289   5.796   0.991
 1834TIP3    H2 5446   2.356   5.924   1.037
 1835TIP3   OH2 5447   3.457   2.520   1.743
 1835TIP3    H1 5448   3.516   2.542   1.671
 1835TIP3    H2 5449   3.504   2.549   1.821
 1836TIP3   OH2 5450   2.278   7.626   3.390
 1836TIP3    H1 5451   2.203   7.587   3.435
 1836TIP3    H2 5452   2.238   7.678   3.319
 1837TIP3   OH2 5453   3.698   1.911   0.997
 1837TIP3    H1 5454   3.608   1.938   1.016
 1837TIP3    H2 5455   3.738   1.897   1.082
 1838TIP3   OH2 5456   6.278   0.892   1.956
 1838TIP3    H1 5457   6.338   0.965   1.942
 1838TIP3    H2 5458   6.210   0.904   1.889
 1839TIP3   OH2 5459   2.807   1.179   6.743
 1839TIP3    H1 5460   2.844   1.166   6.656
 1839TIP3    H2 5461   2.882   1.200   6.798
 1840TIP3   OH2 5462   5.276   1.003   3.902
 1840TIP3    H1 5463   5.287   0.909   3.884
 1840TIP3    H2 5464   5.359   1.029   3.943
 1841TIP3   OH2 5465   6.926   2.936   5.298
 1841TIP3    H1 5466   6.845   2.931   5.246
 1841TIP3    H2 5467   6.987   2.984   5.242
 1842TIP3   OH2 5468   5.538   2.558   0.366
 1842TIP3    H1 5469   5.610   2.544   0.304
 1842TIP3    H2 5470   5.508   2.470   0.388
 1843TIP3   OH2 5471   6.651   0.766   4.972
 1843TIP3    H1 5472   6.732   0.795   4.931
 1843TIP3    H2 5473   6.638   0.826   5.046
 1844TIP3   OH2 5474   1.740   5.388   1.572
 1844TIP3    H1 5475   1.769   5.347   1.653
 1844TIP3    H2 5476   1.676   5.327   1.535
 1845TIP3   OH2 5477   4.351   6.907   0.962
 1845TIP3    H1 5478   4.335   6.907   0.868
 1845TIP3    H2 5479   4.375   6.998   0.982
 1846TIP3   OH2 5480   7.235   3.133   4.611
 1846TIP3    H1 5481   7.278   3.083   4.541
 1846TIP3    H2 5482   7.214   3.067   4.677
 1847TIP3   OH2 5483   0.443   0.929   1.322
 1847TIP3    H1 5484   0.520   0.882   1.290
 1847TIP3    H2 5485   0.419   0.886   1.403
 1848TIP3   OH2 5486   1.457   4.752   2.448
 1848TIP3    H1 5487   1.528   4.751   2.384
 1848TIP3    H2 5488   1.405   4.675   2.427
 1849TIP3   OH2 5489   2.713   3.300   4.608
 1849TIP3    H1 5490   2.763   3.375   4.639
 1849TIP3    H2 5491   2.775   3.228   4.609
 1850TIP3   OH2 5492   4.720   6.153   2.074
 1850TIP3    H1 5493   4.735   6.182   2.164
 1850TIP3    H2 5494   4.711   6.234   2.023
 1851TIP3   OH2 5495   0.254   7.376   3.787
 1851TIP3    H1 5496   0.281   7.462   3.755
 1851TIP3    H2 5497   0.308   7.361   3.864
 1852TIP3   OH2 5498   2.138   3.503   2.445
 1852TIP3    H1 5499   2.101   3.542   2.366
 1852TIP3    H2 5500   2.132   3.409   2.430
 1853TIP3   OH2 5501   7.186   0.100   4.062
 1853TIP3    H1 5502   7.258   0.049   4.024
 1853TIP3    H2 5503   7.116   0.036   4.074
 1854TIP3   OH2 5504   0.855   0.095   1.766
 1854TIP3    H1 5505   0.944   0.123   1.788
 1854TIP3    H2 5506   0.808   0.094   1.849
 1855TIP3   OH2 5507   1.296   7.518   1.957
 1855TIP3    H1 5508   1.341   7.589   1.911
 1855TIP3    H2 5509   1.203   7.532   1.940
 1856TIP3   OH2 5510   2.074   1.053   4.114
 1856TIP3    H1 5511   1.988   1.093   4.125
 1856TIP3    H2 5512   2.097   1.021   4.202
 1857TIP3   OH2 5513   0.906   1.507   6.633
 1857TIP3    H1 5514   0.975   1.445   6.658
 1857TIP3    H2 5515   0.923   1.585   6.686
 1858TIP3   OH2 5516   4.810   7.529   6.525
 1858TIP3    H1 5517   4.891   7.560   6.566
 1858TIP3    H2 5518   4.807   7.435   6.545
 1859TIP3   OH2 5519   0.102   3.218   1.193
 1859TIP3    H1 5520   0.066   3.177   1.114
 1859TIP3    H2 5521   0.084   3.155   1.263
 1860TIP3   OH2 5522   5.529   7.251   1.580
 1860TIP3    H1 5523   5.593   7.191   1.616
 1860TIP3    H2 5524   5.455   7.246   1.641
 1861TIP3   OH2 5525   7.078   3.757   3.087
 1861TIP3    H1 5526   7.062   3.780   3.179
 1861TIP3    H2 5527   7.052   3.835   3.039
 1862TIP3   OH2 5528   6.226   3.178   0.831
 1862TIP3    H1 5529   6.215   3.097   0.782
 1862TIP3    H2 5530   6.306   3.165   0.882
 1863TIP3   OH2 5531   0.404   4.587   3.608
 1863TIP3    H1 5532   0.313   4.556   3.605
 1863TIP3    H2 5533   0.449   4.522   3.662
 1864TIP3   OH2 5534   3.816   4.975   2.046
 1864TIP3    H1 5535   3.852   4.990   2.133
 1864TIP3    H2 5536   3.756   5.048   2.032
 1865TIP3   OH2 5537   6.254   5.234   1.756
 1865TIP3    H1 5538   6.201   5.237   1.836
 1865TIP3    H2 5539   6.281   5.143   1.748
 1866TIP3   OH2 5540   1.490   0.683   5.412
 1866TIP3    H1 5541   1.539   0.642   5.341
 1866TIP3    H2 5542   1.409   0.714   5.371
 1867TIP3   OH2 5543   1.042   2.935   2.000
 1867TIP3    H1 5544   0.965   2.976   1.961
 1867TIP3    H2 5545   1.113   2.952   1.938
 1868TIP3   OH2 5546   6.548   0.135   0.168
 1868TIP3    H1 5547   6.555   0.170   0.258
 1868TIP3    H2 5548   6.541   0.040   0.180
 1869TIP3   OH2 5549   0.274   4.085   0.624
 1869TIP3    H1 5550   0.343   4.033   0.583
 1869TIP3    H2 5551   0.192   4.051   0.586
 1870TIP3   OH2 5552   6.939   1.180   0.687
 1870TIP3    H1 5553   7.025   1.138   0.696
 1870TIP3    H2 5554   6.960   1.271   0.668
 1871TIP3   OH2 5555   0.598   4.435   2.275
 1871TIP3    H1 5556   0.612   4.496   2.203
 1871TIP3    H2 5557   0.535   4.479   2.332
 1872TIP3   OH2 5558   4.525   4.225   2.190
 1872TIP3    H1 5559   4.455   4.174   2.232
 1872TIP3    H2 5560   4.481   4.273   2.120
 1873TIP3   OH2 5561   1.840   1.491   4.584
 1873TIP3    H1 5562   1.915   1.455   4.631
 1873TIP3    H2 5563   1.824   1.429   4.513
 1874TIP3   OH2 5564   4.929   4.148   5.462
 1874TIP3    H1 5565   4.957   4.122   5.374
 1874TIP3    H2 5566   4.874   4.226   5.447
 1875TIP3   OH2 5567   6.800   4.898   5.804
 1875TIP3    H1 5568   6.807   4.893   5.709
 1875TIP3    H2 5569   6.791   4.807   5.832
 1876TIP3   OH2 5570   6.046   4.799   2.224
 1876TIP3    H1 5571   6.100   4.789   2.302
 1876TIP3    H2 5572   6.095   4.752   2.156
 1877TIP3   OH2 5573   5.287   5.786   1.365
 1877TIP3    H1 5574   5.217   5.773   1.301
 1877TIP3    H2 5575   5.365   5.800   1.313
 1878TIP3   OH2 5576   0.156   6.693   4.379
 1878TIP3    H1 5577   0.108   6.709   4.460
 1878TIP3    H2 5578   0.107   6.624   4.335
 1879TIP3   OH2 5579   2.653   7.203   0.376
 1879TIP3    H1 5580   2.626   7.288   0.409
 1879TIP3    H2 5581   2.749   7.206   0.377
 1880TIP3   OH2 5582   1.246   2.198   0.257
 1880TIP3    H1 5583   1.203   2.118   0.226
 1880TIP3    H2 5584   1.216   2.207   0.348
 1881TIP3   OH2 5585   7.589   2.370   0.633
 1881TIP3    H1 5586   7.556   2.333   0.551
 1881TIP3    H2 5587   7.510   2.390   0.683
 1882TIP3   OH2 5588   0.469   3.764   3.233
 1882TIP3    H1 5589   0.508   3.823   3.298
 1882TIP3    H2 5590   0.541   3.744   3.173
 1883TIP3   OH2 5591   7.708   4.066   2.192
 1883TIP3    H1 5592   7.665   4.150   2.176
 1883TIP3    H2 5593   7.744   4.074   2.280
 1884TIP3   OH2 5594   7.015   5.483   0.984
 1884TIP3    H1 5595   7.065   5.403   0.969
 1884TIP3    H2 5596   7.026   5.501   1.078
 1885TIP3   OH2 5597   3.355   3.236   5.027
 1885TIP3    H1 5598   3.446   3.263   5.032
 1885TIP3    H2 5599   3.312   3.284   5.098
 1886TIP3   OH2 5600   3.230   1.919   1.496
 1886TIP3    H1 5601   3.193   1.977   1.562
 1886TIP3    H2 5602   3.157   1.896   1.440
 1887TIP3   OH2 5603   0.528   3.386   4.153
 1887TIP3    H1 5604   0.564   3.443   4.222
 1887TIP3    H2 5605   0.604   3.343   4.115
 1888TIP3   OH2 5606   6.514   3.924   5.758
 1888TIP3    H1 5607   6.520   3.984   5.683
 1888TIP3    H2 5608   6.458   3.853   5.726
 1889TIP3   OH2 5609   7.445   3.906   4.108
 1889TIP3    H1 5610   7.537   3.902   4.136
 1889TIP3    H2 5611   7.428   3.819   4.071
 1890TIP3   OH2 5612   4.269   3.543   5.889
 1890TIP3    H1 5613   4.338   3.583   5.837
 1890TIP3    H2 5614   4.308   3.462   5.924
 1891TIP3   OH2 5615   0.808   7.207   2.917
 1891TIP3    H1 5616   0.875   7.150   2.878
 1891TIP3    H2 5617   0.847   7.294   2.916
 1892TIP3   OH2 5618   7.540   0.089   0.964
 1892TIP3    H1 5619   7.571   0.083   0.874
 1892TIP3    H2 5620   7.457   0.043   0.965
 1893TIP3   OH2 5621   4.584   7.363   5.688
 1893TIP3    H1 5622   4.615   7.451   5.709
 1893TIP3    H2 5623   4.493   7.376   5.660
 1894TIP3   OH2 5624   2.509   2.011   1.836
 1894TIP3    H1 5625   2.535   1.931   1.883
 1894TIP3    H2 5626   2.506   2.078   1.904
 1895TIP3   OH2 5627   1.760   1.844   5.551
 1895TIP3    H1 5628   1.758   1.928   5.505
 1895TIP3    H2 5629   1.683   1.847   5.609
 1896TIP3   OH2 5630   6.633   7.138   2.944
 1896TIP3    H1 5631   6.684   7.093   2.876
 1896TIP3    H2 5632   6.684   7.216   2.965
 1897TIP3   OH2 5633   3.353   4.095   3.948
 1897TIP3    H1 5634   3.363   4.187   3.925
 1897TIP3    H2 5635   3.310   4.056   3.872
 1898TIP3   OH2 5636   7.094   0.878   0.503
 1898TIP3    H1 5637   7.158   0.807   0.496
 1898TIP3    H2 5638   7.133   0.939   0.567
 1899TIP3   OH2 5639   4.291   4.394   1.799
 1899TIP3    H1 5640   4.295   4.489   1.784
 1899TIP3    H2 5641   4.203   4.379   1.833
 1900TIP3   OH2 5642   4.653   6.624   5.858
 1900TIP3    H1 5643   4.627   6.532   5.866
 1900TIP3    H2 5644   4.694   6.630   5.772
 1901TIP3   OH2 5645   1.132   1.136   5.062
 1901TIP3    H1 5646   1.083   1.203   5.015
 1901TIP3    H2 5647   1.188   1.096   4.995
 1902TIP3   OH2 5648   2.645   6.302   3.973
 1902TIP3    H1 5649   2.615   6.282   3.884
 1902TIP3    H2 5650   2.673   6.394   3.968
 1903TIP3   OH2 5651   2.097   5.337   1.180
 1903TIP3    H1 5652   2.114   5.390   1.103
 1903TIP3    H2 5653   2.055   5.398   1.242
 1904TIP3   OH2 5654   6.443   4.772   5.402
 1904TIP3    H1 5655   6.354   4.756   5.430
 1904TIP3    H2 5656   6.498   4.726   5.466
 1905TIP3   OH2 5657   2.264   6.019   3.701
 1905TIP3    H1 5658   2.186   5.988   3.748
 1905TIP3    H2 5659   2.327   6.040   3.771
 1906TIP3   OH2 5660   6.568   6.958   0.950
 1906TIP3    H1 5661   6.564   6.921   1.037
 1906TIP3    H2 5662   6.660   6.950   0.924
 1907TIP3   OH2 5663   6.923   4.870   3.237
 1907TIP3    H1 5664   6.964   4.788   3.265
 1907TIP3    H2 5665   6.980   4.903   3.167
 1908TIP3   OH2 5666   6.579   6.444   2.755
 1908TIP3    H1 5667   6.539   6.357   2.750
 1908TIP3    H2 5668   6.593   6.469   2.664
 1909TIP3   OH2 5669   1.028   0.659   1.327
 1909TIP3    H1 5670   0.955   0.709   1.364
 1909TIP3    H2 5671   1.037   0.584   1.386
 1910TIP3   OH2 5672   7.489   6.219   0.616
 1910TIP3    H1 5673   7.487   6.181   0.704
 1910TIP3    H2 5674   7.523   6.150   0.560
 1911TIP3   OH2 5675   6.064   1.922   4.891
 1911TIP3    H1 5676   6.158   1.931   4.910
 1911TIP3    H2 5677   6.061   1.873   4.808
 1912TIP3   OH2 5678   1.386   4.111   3.127
 1912TIP3    H1 5679   1.308   4.144   3.171
 1912TIP3    H2 5680   1.428   4.054   3.191
 1913TIP3   OH2 5681   2.519   4.769   3.769
 1913TIP3    H1 5682   2.448   4.719   3.809
 1913TIP3    H2 5683   2.474   4.837   3.718
 1914TIP3   OH2 5684   4.597   4.274   6.417
 1914TIP3    H1 5685   4.637   4.204   6.468
 1914TIP3    H2 5686   4.513   4.238   6.388
 1915TIP3   OH2 5687   8.108   3.991   4.209
 1915TIP3    H1 5688   8.151   3.916   4.252
 1915TIP3    H2 5689   8.068   4.040   4.281
 1916TIP3   OH2 5690   5.993   1.165   0.513
 1916TIP3    H1 5691   5.931   1.233   0.542
 1916TIP3    H2 5692   5.939   1.090   0.492
 1917TIP3   OH2 5693   0.140   7.040   6.134
 1917TIP3    H1 5694   0.131   7.101   6.062
 1917TIP3    H2 5695   0.213   6.983   6.109
 1918TIP3   OH2 5696   3.691   1.043   5.042
 1918TIP3    H1 5697   3.749   0.968   5.056
 1918TIP3    H2 5698   3.613   1.023   5.094
 1919TIP3   OH2 5699   5.235   2.052   6.513
 1919TIP3    H1 5700   5.253   1.994   6.439
 1919TIP3    H2 5701   5.139   2.059   6.514
 1920TIP3   OH2 5702   2.918   1.723   4.131
 1920TIP3    H1 5703   2.890   1.660   4.065
 1920TIP3    H2 5704   2.926   1.671   4.212
 1921TIP3   OH2 5705   5.974   1.148   6.638
 1921TIP3    H1 5706   5.973   1.202   6.717
 1921TIP3    H2 5707   6.010   1.206   6.570
 1922TIP3   OH2 5708   7.472   7.454   0.498
 1922TIP3    H1 5709   7.427   7.389   0.445
 1922TIP3    H2 5710   7.564   7.445   0.473
 1923TIP3   OH2 5711   7.288   4.935   4.715
 1923TIP3    H1 5712   7.283   4.980   4.799
 1923TIP3    H2 5713   7.282   4.842   4.738
 1924TIP3   OH2 5714   7.953   5.130   0.059
 1924TIP3    H1 5715   7.951   5.204  -0.001
 1924TIP3    H2 5716   7.930   5.054   0.005
 1925TIP3   OH2 5717   1.590   3.390   6.558
 1925TIP3    H1 5718   1.648   3.314   6.554
 1925TIP3    H2 5719   1.617   3.445   6.484
 1926TIP3   OH2 5720   1.642   2.230   6.302
 1926TIP3    H1 5721   1.592   2.157   6.340
 1926TIP3    H2 5722   1.652   2.292   6.374
 1927TIP3   OH2 5723   2.610   4.057   6.497
 1927TIP3    H1 5724   2.635   4.149   6.507
 1927TIP3    H2 5725   2.549   4.057   6.424
 1928TIP3   OH2 5726   5.747   1.335   5.307
 1928TIP3    H1 5727   5.810   1.334   5.235
 1928TIP3    H2 5728   5.770   1.259   5.361
 1929TIP3   OH2 5729   2.713   6.491   1.586
 1929TIP3    H1 5730   2.713   6.564   1.524
 1929TIP3    H2 5731   2.801   6.491   1.623
 1930TIP3   OH2 5732   0.589   5.147   6.680
 1930TIP3    H1 5733   0.530   5.180   6.613
 1930TIP3    H2 5734   0.664   5.111   6.631
 1931TIP3   OH2 5735   0.951   7.697   1.056
 1931TIP3    H1 5736   0.993   7.754   1.121
 1931TIP3    H2 5737   0.991   7.722   0.973
 1932TIP3   OH2 5738   2.840   3.240   2.240
 1932TIP3    H1 5739   2.912   3.296   2.211
 1932TIP3    H2 5740   2.763   3.295   2.232
 1933TIP3   OH2 5741   6.044   1.673   1.642
 1933TIP3    H1 5742   5.961   1.681   1.688
 1933TIP3    H2 5743   6.026   1.706   1.554
 1934TIP3   OH2 5744   7.404   5.792   1.311
 1934TIP3    H1 5745   7.435   5.703   1.328
 1934TIP3    H2 5746   7.456   5.822   1.236
 1935TIP3   OH2 5747   2.264   4.807   3.937
 1935TIP3    H1 5748   2.226   4.805   4.025
 1935TIP3    H2 5749   2.348   4.852   3.948
 1936TIP3   OH2 5750   5.078   6.756   6.763
 1936TIP3    H1 5751   5.107   6.803   6.685
 1936TIP3    H2 5752   5.112   6.668   6.752
 1937TIP3   OH2 5753   7.068   6.175   2.041
 1937TIP3    H1 5754   7.068   6.271   2.041
 1937TIP3    H2 5755   7.160   6.150   2.047
 1938TIP3   OH2 5756   6.001   4.203   0.655
 1938TIP3    H1 5757   5.915   4.161   0.658
 1938TIP3    H2 5758   6.004   4.258   0.733
 1939TIP3   OH2 5759   4.600   0.755   6.270
 1939TIP3    H1 5760   4.547   0.821   6.226
 1939TIP3    H2 5761   4.656   0.805   6.330
 1940TIP3   OH2 5762   7.346   4.076   3.750
 1940TIP3    H1 5763   7.412   4.040   3.691
 1940TIP3    H2 5764   7.348   4.170   3.733
 1941TIP3   OH2 5765   4.077   1.646   2.273
 1941TIP3    H1 5766   4.164   1.639   2.312
 1941TIP3    H2 5767   4.089   1.614   2.183
 1942TIP3   OH2 5768   3.005   5.903   2.927
 1942TIP3    H1 5769   2.937   5.951   2.881
 1942TIP3    H2 5770   3.087   5.942   2.898
 1943TIP3   OH2 5771   1.951   4.747   6.574
 1943TIP3    H1 5772   1.964   4.654   6.553
 1943TIP3    H2 5773   1.988   4.793   6.499
 1944TIP3   OH2 5774   1.758   1.179   4.856
 1944TIP3    H1 5775   1.794   1.143   4.775
 1944TIP3    H2 5776   1.818   1.151   4.925
 1945TIP3   OH2 5777   5.856   7.164   5.691
 1945TIP3    H1 5778   5.763   7.185   5.685
 1945TIP3    H2 5779   5.899   7.226   5.631
 1946TIP3   OH2 5780   4.335   0.353   6.696
 1946TIP3    H1 5781   4.395   0.303   6.642
 1946TIP3    H2 5782   4.358   0.330   6.786
 1947TIP3   OH2 5783   2.385   1.705   5.837
 1947TIP3    H1 5784   2.369   1.747   5.752
 1947TIP3    H2 5785   2.316   1.639   5.844
 1948TIP3   OH2 5786   0.540   0.089   4.199
 1948TIP3    H1 5787   0.478   0.148   4.240
 1948TIP3    H2 5788   0.491   0.045   4.131
 1949TIP3   OH2 5789   6.446   1.430   1.032
 1949TIP3    H1 5790   6.431   1.506   0.975
 1949TIP3    H2 5791   6.369   1.426   1.088
 1950TIP3   OH2 5792   1.586   5.599   1.792
 1950TIP3    H1 5793   1.548   5.533   1.734
 1950TIP3    H2 5794   1.548   5.580   1.878
 1951TIP3   OH2 5795   5.564   1.593   6.562
 1951TIP3    H1 5796   5.586   1.533   6.633
 1951TIP3    H2 5797   5.596   1.678   6.591
 1952TIP3   OH2 5798   5.752   5.339   5.453
 1952TIP3    H1 5799   5.744   5.401   5.526
 1952TIP3    H2 5800   5.689   5.370   5.388
 1953TIP3   OH2 5801   1.577   2.014   0.475
 1953TIP3    H1 5802   1.619   2.064   0.544
 1953TIP3    H2 5803   1.535   2.079   0.419
 1954TIP3   OH2 5804   1.351   5.175   2.897
 1954TIP3    H1 5805   1.309   5.218   2.972
 1954TIP3    H2 5806   1.363   5.084   2.926
 1955TIP3   OH2 5807   1.583   3.894   4.956
 1955TIP3    H1 5808   1.500   3.938   4.939
 1955TIP3    H2 5809   1.559   3.804   4.976
 1956TIP3   OH2 5810   5.858   2.102   3.632
 1956TIP3    H1 5811   5.869   2.157   3.710
 1956TIP3    H2 5812   5.942   2.108   3.586
 1957TIP3   OH2 5813   7.413   4.080   4.348
 1957TIP3    H1 5814   7.453   4.159   4.312
 1957TIP3    H2 5815   7.410   4.019   4.274
 1958TIP3   OH2 5816   3.541   0.391   4.352
 1958TIP3    H1 5817   3.614   0.453   4.356
 1958TIP3    H2 5818   3.560   0.338   4.275
 1959TIP3   OH2 5819   6.671   5.265   1.537
 1959TIP3    H1 5820   6.636   5.329   1.475
 1959TIP3    H2 5821   6.660   5.306   1.623
 1960TIP3   OH2 5822   5.679   6.276   4.266
 1960TIP3    H1 5823   5.599   6.255   4.218
 1960TIP3    H2 5824   5.673   6.371   4.282
 1961TIP3   OH2 5825   4.257   4.363   0.243
 1961TIP3    H1 5826   4.313   4.435   0.270
 1961TIP3    H2 5827   4.180   4.370   0.298
 1962TIP3   OH2 5828   0.388   1.401   2.151
 1962TIP3    H1 5829   0.404   1.479   2.204
 1962TIP3    H2 5830   0.313   1.424   2.095
 1963TIP3   OH2 5831   1.518   7.445   1.423
 1963TIP3    H1 5832   1.506   7.464   1.516
 1963TIP3    H2 5833   1.466   7.367   1.407
 1964TIP3   OH2 5834   1.994   1.369   4.024
 1964TIP3    H1 5835   2.063   1.305   4.008
 1964TIP3    H2 5836   1.913   1.318   4.022
 1965TIP3   OH2 5837   7.307   3.670   4.015
 1965TIP3    H1 5838   7.274   3.582   4.032
 1965TIP3    H2 5839   7.361   3.661   3.937
 1966TIP3   OH2 5840   5.579   6.871   6.468
 1966TIP3    H1 5841   5.580   6.874   6.372
 1966TIP3    H2 5842   5.533   6.951   6.494
 1967TIP3   OH2 5843   4.262   0.161   0.807
 1967TIP3    H1 5844   4.293   0.093   0.867
 1967TIP3    H2 5845   4.185   0.123   0.765
 1968TIP3   OH2 5846   0.039   1.182   1.657
 1968TIP3    H1 5847   0.087   1.153   1.579
 1968TIP3    H2 5848   0.013   1.101   1.700
 1969TIP3   OH2 5849   3.315   7.293   5.872
 1969TIP3    H1 5850   3.395   7.267   5.826
 1969TIP3    H2 5851   3.246   7.286   5.807
 1970TIP3   OH2 5852   7.578   1.750   4.918
 1970TIP3    H1 5853   7.588   1.661   4.886
 1970TIP3    H2 5854   7.492   1.750   4.962
 1971TIP3   OH2 5855   1.758   1.661   1.372
 1971TIP3    H1 5856   1.670   1.690   1.345
 1971TIP3    H2 5857   1.801   1.741   1.403
 1972TIP3   OH2 5858   0.623   6.878   4.644
 1972TIP3    H1 5859   0.611   6.811   4.577
 1972TIP3    H2 5860   0.717   6.875   4.664
 1973TIP3   OH2 5861   2.030   5.775   4.030
 1973TIP3    H1 5862   2.083   5.756   3.953
 1973TIP3    H2 5863   2.084   5.748   4.104
 1974TIP3   OH2 5864   2.993   3.412   3.725
 1974TIP3    H1 5865   3.028   3.341   3.779
 1974TIP3    H2 5866   2.918   3.374   3.679
 1975TIP3   OH2 5867   4.033   6.852   0.573
 1975TIP3    H1 5868   4.038   6.945   0.596
 1975TIP3    H2 5869   4.021   6.807   0.656
 1976TIP3   OH2 5870   4.934   1.908   3.667
 1976TIP3    H1 5871   5.023   1.936   3.645
 1976TIP3    H2 5872   4.879   1.952   3.601
 1977TIP3   OH2 5873   6.658   6.008   6.023
 1977TIP3    H1 5874   6.743   5.979   6.054
 1977TIP3    H2 5875   6.597   5.984   6.093
 1978TIP3   OH2 5876   2.766   7.209   6.258
 1978TIP3    H1 5877   2.812   7.284   6.294
 1978TIP3    H2 5878   2.710   7.246   6.189
 1979TIP3   OH2 5879   2.929   0.669   1.985
 1979TIP3    H1 5880   2.979   0.618   1.921
 1979TIP3    H2 5881   2.877   0.729   1.932
 1980TIP3   OH2 5882   3.844   0.491   3.096
 1980TIP3    H1 5883   3.775   0.553   3.072
 1980TIP3    H2 5884   3.925   0.541   3.085
 1981TIP3   OH2 5885   6.977   0.947   5.593
 1981TIP3    H1 5886   7.058   0.895   5.599
 1981TIP3    H2 5887   6.999   1.018   5.533
 1982TIP3   OH2 5888   5.791   7.338   3.013
 1982TIP3    H1 5889   5.749   7.273   3.069
 1982TIP3    H2 5890   5.877   7.352   3.052
 1983TIP3   OH2 5891   1.497   6.367   4.062
 1983TIP3    H1 5892   1.495   6.282   4.018
 1983TIP3    H2 5893   1.547   6.423   4.003
 1984TIP3   OH2 5894   5.670   6.473   4.786
 1984TIP3    H1 5895   5.643   6.383   4.768
 1984TIP3    H2 5896   5.757   6.481   4.747
 1985TIP3   OH2 5897   6.167   7.564   4.542
 1985TIP3    H1 5898   6.250   7.549   4.587
 1985TIP3    H2 5899   6.106   7.586   4.611
 1986TIP3   OH2 5900   7.778   4.300   2.963
 1986TIP3    H1 5901   7.847   4.238   2.940
 1986TIP3    H2 5902   7.697   4.252   2.948
 1987TIP3   OH2 5903   0.900   7.471   2.970
 1987TIP3    H1 5904   0.809   7.484   2.944
 1987TIP3    H2 5905   0.921   7.548   3.024
 1988TIP3   OH2 5906   4.826   4.930   2.118
 1988TIP3    H1 5907   4.745   4.930   2.169
 1988TIP3    H2 5908   4.820   4.851   2.064
 1989TIP3   OH2 5909   2.076   4.710   1.120
 1989TIP3    H1 5910   2.012   4.769   1.080
 1989TIP3    H2 5911   2.042   4.622   1.103
 1990TIP3   OH2 5912   0.154   6.102   3.150
 1990TIP3    H1 5913   0.184   6.191   3.131
 1990TIP3    H2 5914   0.194   6.081   3.234
 1991TIP3   OH2 5915   5.194   4.816   6.152
 1991TIP3    H1 5916   5.149   4.892   6.116
 1991TIP3    H2 5917   5.142   4.790   6.227
 1992TIP3   OH2 5918   4.138   3.804   1.148
 1992TIP3    H1 5919   4.174   3.887   1.182
 1992TIP3    H2 5920   4.091   3.767   1.222
 1993TIP3   OH2 5921   6.077   2.277   5.230
 1993TIP3    H1 5922   6.028   2.242   5.156
 1993TIP3    H2 5923   6.026   2.251   5.307
 1994TIP3   OH2 5924   1.052   4.223   0.227
 1994TIP3    H1 5925   1.132   4.267   0.255
 1994TIP3    H2 5926   1.005   4.288   0.175
 1995TIP3   OH2 5927   7.326   4.203   2.733
 1995TIP3    H1 5928   7.403   4.210   2.676
 1995TIP3    H2 5929   7.305   4.293   2.756
 1996TIP3   OH2 5930   7.442   3.615   3.332
 1996TIP3    H1 5931   7.439   3.580   3.243
 1996TIP3    H2 5932   7.459   3.538   3.388
 1997TIP3   OH2 5933   1.052   3.064   2.973
 1997TIP3    H1 5934   0.963   3.086   2.999
 1997TIP3    H2 5935   1.065   3.108   2.889
 1998TIP3   OH2 5936   1.811   5.466   4.867
 1998TIP3    H1 5937   1.726   5.487   4.906
 1998TIP3    H2 5938   1.839   5.547   4.825
 1999TIP3   OH2 5939   4.847   7.165   3.985
 1999TIP3    H1 5940   4.841   7.095   3.920
 1999TIP3    H2 5941   4.756   7.190   4.003
 2000TIP3   OH2 5942   3.006   4.271   3.713
 2000TIP3    H1 5943   2.977   4.206   3.648
 2000TIP3    H2 5944   3.082   4.230   3.755
 2001TIP3   OH2 5945   4.288   0.990   1.742
 2001TIP3    H1 5946   4.348   1.049   1.786
 2001TIP3    H2 5947   4.230   1.047   1.692
 2002TIP3   OH2 5948   5.387   0.913   1.656
 2002TIP3    H1 5949   5.362   0.980   1.719
 2002TIP3    H2 5950   5.442   0.959   1.592
 2003TIP3   OH2 5951   4.650   6.163   3.098
 2003TIP3    H1 5952   4.693   6.242   3.130
 2003TIP3    H2 5953   4.719   6.097   3.095
 2004TIP3   OH2 5954   1.423   4.365   2.031
 2004TIP3    H1 5955   1.448   4.388   1.942
 2004TIP3    H2 5956   1.363   4.291   2.021
 2005TIP3   OH2 5957   4.718   1.785   4.428
 2005TIP3    H1 5958   4.719   1.802   4.334
 2005TIP3    H2 5959   4.689   1.867   4.467
 2006TIP3   OH2 5960   6.644   1.931   6.355
 2006TIP3    H1 5961   6.582   1.983   6.304
 2006TIP3    H2 5962   6.682   1.993   6.417
 2007TIP3   OH2 5963   5.883   1.013   1.453
 2007TIP3    H1 5964   5.796   1.053   1.459
 2007TIP3    H2 5965   5.906   0.993   1.544
 2008TIP3   OH2 5966   5.569   5.903   5.735
 2008TIP3    H1 5967   5.510   5.952   5.791
 2008TIP3    H2 5968   5.657   5.930   5.763
 2009TIP3   OH2 5969   2.153   7.864   0.781
 2009TIP3    H1 5970   2.243   7.846   0.806
 2009TIP3    H2 5971   2.133   7.801   0.713
 2010TIP3   OH2 5972   2.193   0.576   3.612
 2010TIP3    H1 5973   2.283   0.577   3.579
 2010TIP3    H2 5974   2.160   0.664   3.595
 2011TIP3   OH2 5975   3.653   0.828   0.970
 2011TIP3    H1 5976   3.573   0.839   0.919
 2011TIP3    H2 5977   3.677   0.737   0.958
 2012TIP3   OH2 5978   5.398   0.210   5.197
 2012TIP3    H1 5979   5.345   0.285   5.224
 2012TIP3    H2 5980   5.334   0.147   5.164
 2013TIP3   OH2 5981   7.972   6.166   5.598
 2013TIP3    H1 5982   8.047   6.206   5.553
 2013TIP3    H2 5983   7.910   6.237   5.610
 2014TIP3   OH2 5984   3.384   7.115   1.511
 2014TIP3    H1 5985   3.349   7.098   1.424
 2014TIP3    H2 5986   3.318   7.079   1.571
 2015TIP3   OH2 5987   5.341   3.082   1.058
 2015TIP3    H1 5988   5.319   3.172   1.033
 2015TIP3    H2 5989   5.436   3.082   1.065
 2016TIP3   OH2 5990   1.001   2.783   4.295
 2016TIP3    H1 5991   0.923   2.731   4.312
 2016TIP3    H2 5992   1.023   2.821   4.380
 2017TIP3   OH2 5993   0.663   4.965   6.463
 2017TIP3    H1 5994   0.575   4.951   6.427
 2017TIP3    H2 5995   0.704   4.878   6.459
 2018TIP3   OH2 5996   3.165   7.386   0.930
 2018TIP3    H1 5997   3.077   7.417   0.953
 2018TIP3    H2 5998   3.220   7.464   0.936
 2019TIP3   OH2 5999   7.099   0.047   4.345
 2019TIP3    H1 6000   7.093  -0.028   4.287
 2019TIP3    H2 6001   7.139   0.116   4.292
 2020TIP3   OH2 6002   6.651   0.033   0.753
 2020TIP3    H1 6003   6.608   0.058   0.671
 2020TIP3    H2 6004   6.704  -0.043   0.729
 2021TIP3   OH2 6005   1.436   1.026   3.739
 2021TIP3    H1 6006   1.481   0.956   3.692
 2021TIP3    H2 6007   1.362   0.982   3.781
 2022TIP3   OH2 6008   2.830   0.887   2.339
 2022TIP3    H1 6009   2.882   0.843   2.406
 2022TIP3    H2 6010   2.894   0.930   2.283
 2023TIP3   OH2 6011   7.668   3.130   6.481
 2023TIP3    H1 6012   7.594   3.076   6.509
 2023TIP3    H2 6013   7.644   3.219   6.506
 2024TIP3   OH2 6014   5.378   4.695   0.171
 2024TIP3    H1 6015   5.297   4.676   0.124
 2024TIP3    H2 6016   5.358   4.674   0.263
 2025TIP3   OH2 6017   0.103   1.473   2.958
 2025TIP3    H1 6018   0.098   1.488   2.864
 2025TIP3    H2 6019   0.176   1.529   2.987
 2026TIP3   OH2 6020   1.125   2.573   2.534
 2026TIP3    H1 6021   1.157   2.630   2.604
 2026TIP3    H2 6022   1.186   2.589   2.461
 2027TIP3   OH2 6023   6.943   6.864   2.350
 2027TIP3    H1 6024   6.976   6.825   2.270
 2027TIP3    H2 6025   7.000   6.939   2.366
 2028TIP3   OH2 6026   1.299   3.969   4.970
 2028TIP3    H1 6027   1.208   3.993   4.985
 2028TIP3    H2 6028   1.346   4.004   5.045
 2029TIP3   OH2 6029   0.493   7.181   3.892
 2029TIP3    H1 6030   0.453   7.095   3.886
 2029TIP3    H2 6031   0.463   7.215   3.977
 2030TIP3   OH2 6032   3.986   5.017  -0.011
 2030TIP3    H1 6033   3.986   4.925   0.015
 2030TIP3    H2 6034   3.919   5.022  -0.080
 2031TIP3   OH2 6035   1.391   1.018   2.983
 2031TIP3    H1 6036   1.377   0.924   2.994
 2031TIP3    H2 6037   1.309   1.050   2.943
 2032TIP3   OH2 6038   4.027   1.344   4.471
 2032TIP3    H1 6039   4.032   1.401   4.547
 2032TIP3    H2 6040   3.933   1.339   4.451
 2033TIP3   OH2 6041   3.522   4.525   2.047
 2033TIP3    H1 6042   3.532   4.556   1.957
 2033TIP3    H2 6043   3.591   4.458   2.056
 2034TIP3   OH2 6044   0.961   2.313   2.392
 2034TIP3    H1 6045   1.052   2.333   2.367
 2034TIP3    H2 6046   0.908   2.372   2.338
 2035TIP3   OH2 6047   1.268   6.009   4.329
 2035TIP3    H1 6048   1.356   5.973   4.331
 2035TIP3    H2 6049   1.211   5.932   4.322
 2036TIP3   OH2 6050   5.953   3.193   3.910
 2036TIP3    H1 6051   5.937   3.104   3.878
 2036TIP3    H2 6052   5.876   3.243   3.882
 2037TIP3   OH2 6053   5.753   5.526   5.680
 2037TIP3    H1 6054   5.704   5.492   5.754
 2037TIP3    H2 6055   5.751   5.621   5.691
 2038TIP3   OH2 6056   7.429   4.541   6.662
 2038TIP3    H1 6057   7.340   4.576   6.653
 2038TIP3    H2 6058   7.485   4.619   6.668
 2039TIP3   OH2 6059   3.260   1.693   6.368
 2039TIP3    H1 6060   3.217   1.626   6.314
 2039TIP3    H2 6061   3.209   1.695   6.449
 2040TIP3   OH2 6062   2.906   0.349   5.451
 2040TIP3    H1 6063   2.973   0.296   5.496
 2040TIP3    H2 6064   2.850   0.381   5.521
 2041TIP3   OH2 6065   1.043   2.913   3.511
 2041TIP3    H1 6066   1.070   2.863   3.434
 2041TIP3    H2 6067   1.099   2.881   3.581
 2042TIP3   OH2 6068   4.140   6.037   0.271
 2042TIP3    H1 6069   4.118   6.000   0.356
 2042TIP3    H2 6070   4.212   5.984   0.238
 2043TIP3   OH2 6071   3.645   7.140   0.210
 2043TIP3    H1 6072   3.612   7.124   0.122
 2043TIP3    H2 6073   3.625   7.059   0.257
 2044TIP3   OH2 6074   0.317   2.308   6.032
 2044TIP3    H1 6075   0.230   2.349   6.030
 2044TIP3    H2 6076   0.362   2.345   5.956
 2045TIP3   OH2 6077   7.908   3.774   2.429
 2045TIP3    H1 6078   7.825   3.821   2.437
 2045TIP3    H2 6079   7.931   3.750   2.519
 2046TIP3   OH2 6080   0.946   7.131   4.863
 2046TIP3    H1 6081   0.938   7.226   4.858
 2046TIP3    H2 6082   0.945   7.111   4.956
 2047TIP3   OH2 6083   1.657   0.071   0.016
 2047TIP3    H1 6084   1.651  -0.003   0.076
 2047TIP3    H2 6085   1.591   0.054  -0.051
 2048TIP3   OH2 6086   4.235   5.223   3.183
 2048TIP3    H1 6087   4.174   5.194   3.115
 2048TIP3    H2 6088   4.311   5.166   3.172
 2049TIP3   OH2 6089   0.596   5.981   3.142
 2049TIP3    H1 6090   0.597   6.041   3.067
 2049TIP3    H2 6091   0.684   5.989   3.179
 2050TIP3   OH2 6092   5.257   0.867   0.292
 2050TIP3    H1 6093   5.285   0.930   0.359
 2050TIP3    H2 6094   5.179   0.825   0.330
 2051TIP3   OH2 6095   0.925   0.622   4.702
 2051TIP3    H1 6096   0.887   0.680   4.636
 2051TIP3    H2 6097   0.920   0.672   4.784
 2052TIP3   OH2 6098   1.453   6.214   6.520
 2052TIP3    H1 6099   1.540   6.253   6.509
 2052TIP3    H2 6100   1.409   6.231   6.437
 2053TIP3   OH2 6101   4.707   5.830   0.136
 2053TIP3    H1 6102   4.735   5.889   0.205
 2053TIP3    H2 6103   4.633   5.782   0.173
 2054TIP3   OH2 6104   4.465   4.402   1.996
 2054TIP3    H1 6105   4.395   4.387   1.932
 2054TIP3    H2 6106   4.546   4.396   1.946
 2055TIP3   OH2 6107   3.294   0.643   0.393
 2055TIP3    H1 6108   3.207   0.637   0.431
 2055TIP3    H2 6109   3.286   0.605   0.306
 2056TIP3   OH2 6110   1.891   5.492   5.972
 2056TIP3    H1 6111   1.884   5.398   5.957
 2056TIP3    H2 6112   1.938   5.525   5.896
 2057TIP3   OH2 6113   6.517   2.991   3.820
 2057TIP3    H1 6114   6.483   2.916   3.868
 2057TIP3    H2 6115   6.505   3.065   3.880
 2058TIP3   OH2 6116   3.950   6.334   2.888
 2058TIP3    H1 6117   3.883   6.311   2.824
 2058TIP3    H2 6118   4.033   6.308   2.847
 2059TIP3   OH2 6119   0.716   5.481   4.613
 2059TIP3    H1 6120   0.643   5.513   4.560
 2059TIP3    H2 6121   0.793   5.524   4.577
 2060TIP3   OH2 6122   5.507   2.239   2.288
 2060TIP3    H1 6123   5.552   2.319   2.263
 2060TIP3    H2 6124   5.430   2.270   2.336
 2061TIP3   OH2 6125   1.809   2.911   3.524
 2061TIP3    H1 6126   1.841   2.916   3.434
 2061TIP3    H2 6127   1.869   2.967   3.573
 2062TIP3   OH2 6128   6.364   3.337   0.570
 2062TIP3    H1 6129   6.407   3.309   0.652
 2062TIP3    H2 6130   6.436   3.363   0.513
 2063TIP3   OH2 6131   8.197   0.551   5.829
 2063TIP3    H1 6132   8.125   0.502   5.868
 2063TIP3    H2 6133   8.275   0.521   5.876
 2064TIP3   OH2 6134   6.736   1.748   3.903
 2064TIP3    H1 6135   6.746   1.843   3.914
 2064TIP3    H2 6136   6.724   1.715   3.992
 2065TIP3   OH2 6137   7.677   5.111   4.385
 2065TIP3    H1 6138   7.615   5.083   4.453
 2065TIP3    H2 6139   7.735   5.035   4.373
 2066TIP3   OH2 6140   0.280   0.203   2.384
 2066TIP3    H1 6141   0.357   0.221   2.437
 2066TIP3    H2 6142   0.315   0.183   2.297
 2067TIP3   OH2 6143   7.346   2.502   5.545
 2067TIP3    H1 6144   7.351   2.597   5.555
 2067TIP3    H2 6145   7.267   2.477   5.595
 2068TIP3   OH2 6146   4.139   4.007   0.293
 2068TIP3    H1 6147   4.052   3.968   0.301
 2068TIP3    H2 6148   4.134   4.059   0.213
 2069TIP3   OH2 6149   2.590   6.230   0.655
 2069TIP3    H1 6150   2.661   6.242   0.592
 2069TIP3    H2 6151   2.619   6.158   0.711
 2070TIP3   OH2 6152   1.840   5.820   2.760
 2070TIP3    H1 6153   1.867   5.912   2.765
 2070TIP3    H2 6154   1.776   5.818   2.689
 2071TIP3   OH2 6155   4.694   1.262   0.972
 2071TIP3    H1 6156   4.742   1.196   1.021
 2071TIP3    H2 6157   4.674   1.330   1.037
 2072TIP3   OH2 6158   7.086   6.439   5.180
 2072TIP3    H1 6159   6.991   6.442   5.170
 2072TIP3    H2 6160   7.099   6.407   5.270
 2073TIP3   OH2 6161   3.324   3.316   2.292
 2073TIP3    H1 6162   3.357   3.318   2.202
 2073TIP3    H2 6163   3.373   3.246   2.334
 2074TIP3   OH2 6164   1.330   6.506   6.577
 2074TIP3    H1 6165   1.300   6.533   6.490
 2074TIP3    H2 6166   1.270   6.437   6.603
 2075TIP3   OH2 6167   5.281   2.283   1.986
 2075TIP3    H1 6168   5.369   2.311   1.961
 2075TIP3    H2 6169   5.230   2.286   1.905
 2076TIP3   OH2 6170   1.866   4.270   0.436
 2076TIP3    H1 6171   1.790   4.256   0.379
 2076TIP3    H2 6172   1.937   4.290   0.375
 2077TIP3   OH2 6173   0.431   2.301   4.650
 2077TIP3    H1 6174   0.392   2.229   4.699
 2077TIP3    H2 6175   0.395   2.293   4.562
 2078TIP3   OH2 6176   2.710   1.754   0.956
 2078TIP3    H1 6177   2.671   1.672   0.985
 2078TIP3    H2 6178   2.659   1.779   0.879
 2079TIP3   OH2 6179   7.553   2.248   3.697
 2079TIP3    H1 6180   7.573   2.280   3.785
 2079TIP3    H2 6181   7.586   2.158   3.696
 2080TIP3   OH2 6182   7.026   2.055   5.107
 2080TIP3    H1 6183   7.096   2.033   5.046
 2080TIP3    H2 6184   6.983   1.972   5.126
 2081TIP3   OH2 6185   3.055   4.951   3.273
 2081TIP3    H1 6186   3.002   4.968   3.196
 2081TIP3    H2 6187   3.102   4.870   3.253
 2082TIP3   OH2 6188   2.122   4.513   0.085
 2082TIP3    H1 6189   2.137   4.419   0.094
 2082TIP3    H2 6190   2.198   4.545   0.037
 2083TIP3   OH2 6191   4.488   7.239   2.663
 2083TIP3    H1 6192   4.434   7.170   2.624
 2083TIP3    H2 6193   4.557   7.192   2.710
 2084TIP3   OH2 6194   6.735   4.870   3.552
 2084TIP3    H1 6195   6.718   4.937   3.617
 2084TIP3    H2 6196   6.721   4.787   3.597
 2085TIP3   OH2 6197   7.709   4.107   5.914
 2085TIP3    H1 6198   7.720   4.030   5.970
 2085TIP3    H2 6199   7.723   4.182   5.972
 2086TIP3   OH2 6200   3.449   3.365   6.320
 2086TIP3    H1 6201   3.541   3.383   6.298
 2086TIP3    H2 6202   3.433   3.418   6.398
 2087TIP3   OH2 6203   3.899   7.362   6.403
 2087TIP3    H1 6204   3.848   7.441   6.383
 2087TIP3    H2 6205   3.842   7.289   6.378
 2088TIP3   OH2 6206   7.950   3.230   4.221
 2088TIP3    H1 6207   7.972   3.280   4.142
 2088TIP3    H2 6208   7.889   3.286   4.268
 2089TIP3   OH2 6209   4.057   4.778   5.676
 2089TIP3    H1 6210   4.051   4.797   5.769
 2089TIP3    H2 6211   4.143   4.736   5.665
 2090TIP3   OH2 6212   1.347   2.085   3.555
 2090TIP3    H1 6213   1.383   2.034   3.628
 2090TIP3    H2 6214   1.378   2.040   3.476
 2091TIP3   OH2 6215   2.162   6.509   1.046
 2091TIP3    H1 6216   2.255   6.512   1.025
 2091TIP3    H2 6217   2.159   6.513   1.141
 2092TIP3   OH2 6218   4.584   4.046   1.707
 2092TIP3    H1 6219   4.576   3.991   1.785
 2092TIP3    H2 6220   4.662   4.099   1.723
 2093TIP3   OH2 6221   5.887   4.783   3.751
 2093TIP3    H1 6222   5.965   4.816   3.706
 2093TIP3    H2 6223   5.834   4.861   3.768
 2094TIP3   OH2 6224   0.258   5.768   4.825
 2094TIP3    H1 6225   0.273   5.674   4.812
 2094TIP3    H2 6226   0.346   5.806   4.823
 2095TIP3   OH2 6227   8.158   6.484   1.323
 2095TIP3    H1 6228   8.209   6.563   1.308
 2095TIP3    H2 6229   8.096   6.507   1.392
 2096TIP3   OH2 6230   8.012   1.713   2.977
 2096TIP3    H1 6231   7.963   1.725   3.058
 2096TIP3    H2 6232   7.989   1.625   2.948
 2097TIP3   OH2 6233   3.697   1.193   1.360
 2097TIP3    H1 6234   3.702   1.278   1.402
 2097TIP3    H2 6235   3.770   1.193   1.297
 2098TIP3   OH2 6236   1.101   6.931   5.496
 2098TIP3    H1 6237   1.020   6.881   5.506
 2098TIP3    H2 6238   1.114   6.971   5.582
 2099TIP3   OH2 6239   3.890   0.814   1.305
 2099TIP3    H1 6240   3.876   0.744   1.241
 2099TIP3    H2 6241   3.954   0.872   1.264
 2100TIP3   OH2 6242   5.198   0.323   5.558
 2100TIP3    H1 6243   5.232   0.235   5.541
 2100TIP3    H2 6244   5.276   0.378   5.560
 2101TIP3   OH2 6245   1.597   3.818   5.398
 2101TIP3    H1 6246   1.636   3.851   5.317
 2101TIP3    H2 6247   1.504   3.811   5.378
 2102TIP3   OH2 6248   4.400   3.217   4.121
 2102TIP3    H1 6249   4.364   3.176   4.042
 2102TIP3    H2 6250   4.489   3.243   4.096
 2103TIP3   OH2 6251   3.147   1.685   3.583
 2103TIP3    H1 6252   3.074   1.719   3.532
 2103TIP3    H2 6253   3.137   1.590   3.578
 2104TIP3   OH2 6254   1.060   2.065   5.396
 2104TIP3    H1 6255   1.019   2.114   5.325
 2104TIP3    H2 6256   1.007   2.086   5.473
 2105TIP3   OH2 6257   7.715   3.608   0.862
 2105TIP3    H1 6258   7.766   3.572   0.934
 2105TIP3    H2 6259   7.759   3.577   0.783
 2106TIP3   OH2 6260   7.432   7.209   1.461
 2106TIP3    H1 6261   7.392   7.222   1.375
 2106TIP3    H2 6262   7.381   7.138   1.500
 2107TIP3   OH2 6263   0.284   3.764   3.851
 2107TIP3    H1 6264   0.258   3.735   3.938
 2107TIP3    H2 6265   0.271   3.687   3.795
 2108TIP3   OH2 6266   4.778   2.209   0.769
 2108TIP3    H1 6267   4.726   2.133   0.793
 2108TIP3    H2 6268   4.756   2.275   0.835
 2109TIP3   OH2 6269   4.320   0.570   0.180
 2109TIP3    H1 6270   4.247   0.555   0.119
 2109TIP3    H2 6271   4.279   0.566   0.267
 2110TIP3   OH2 6272   5.745   4.694   4.482
 2110TIP3    H1 6273   5.791   4.772   4.513
 2110TIP3    H2 6274   5.788   4.671   4.400
 2111TIP3   OH2 6275   2.640   5.170   6.120
 2111TIP3    H1 6276   2.614   5.247   6.070
 2111TIP3    H2 6277   2.705   5.127   6.065
 2112TIP3   OH2 6278   1.484   2.857   5.799
 2112TIP3    H1 6279   1.509   2.791   5.863
 2112TIP3    H2 6280   1.518   2.939   5.834
 2113TIP3   OH2 6281   5.828   7.227   0.785
 2113TIP3    H1 6282   5.867   7.152   0.829
 2113TIP3    H2 6283   5.791   7.280   0.856
 2114TIP3   OH2 6284   5.168   7.097   4.383
 2114TIP3    H1 6285   5.253   7.140   4.381
 2114TIP3    H2 6286   5.158   7.067   4.474
 2115TIP3   OH2 6287   6.405   2.341   2.989
 2115TIP3    H1 6288   6.393   2.248   3.004
 2115TIP3    H2 6289   6.434   2.348   2.899
 2116TIP3   OH2 6290   6.725   5.610   1.412
 2116TIP3    H1 6291   6.638   5.644   1.391
 2116TIP3    H2 6292   6.716   5.572   1.499
 2117TIP3   OH2 6293   6.159   7.673   6.433
 2117TIP3    H1 6294   6.095   7.609   6.401
 2117TIP3    H2 6295   6.144   7.676   6.528
 2118TIP3   OH2 6296   2.907   1.492   1.595
 2118TIP3    H1 6297   2.979   1.467   1.537
 2118TIP3    H2 6298   2.901   1.420   1.657
 2119TIP3   OH2 6299   2.740   1.781   4.898
 2119TIP3    H1 6300   2.720   1.708   4.956
 2119TIP3    H2 6301   2.756   1.741   4.813
 2120TIP3   OH2 6302   2.288   3.329   6.512
 2120TIP3    H1 6303   2.262   3.296   6.597
 2120TIP3    H2 6304   2.268   3.259   6.451
 2121TIP3   OH2 6305   7.595   5.875   5.705
 2121TIP3    H1 6306   7.661   5.810   5.728
 2121TIP3    H2 6307   7.644   5.957   5.698
 2122TIP3   OH2 6308   1.096   6.425   2.896
 2122TIP3    H1 6309   1.133   6.379   2.971
 2122TIP3    H2 6310   1.006   6.391   2.889
 2123TIP3   OH2 6311   4.256   2.249   1.379
 2123TIP3    H1 6312   4.180   2.223   1.431
 2123TIP3    H2 6313   4.224   2.320   1.324
 2124TIP3   OH2 6314   6.665   5.345   4.587
 2124TIP3    H1 6315   6.703   5.269   4.631
 2124TIP3    H2 6316   6.653   5.410   4.656
 2125TIP3   OH2 6317   5.957   2.912   1.566
 2125TIP3    H1 6318   5.905   2.959   1.500
 2125TIP3    H2 6319   5.999   2.982   1.616
 2126TIP3   OH2 6320   7.032   2.767   4.603
 2126TIP3    H1 6321   7.086   2.810   4.670
 2126TIP3    H2 6322   7.053   2.674   4.612
 2127TIP3   OH2 6323   5.972   4.540   1.354
 2127TIP3    H1 6324   5.878   4.534   1.338
 2127TIP3    H2 6325   5.981   4.536   1.449
 2128TIP3   OH2 6326   5.869   0.563   2.399
 2128TIP3    H1 6327   5.946   0.572   2.455
 2128TIP3    H2 6328   5.904   0.538   2.313
 2129TIP3   OH2 6329   7.753   3.571   4.630
 2129TIP3    H1 6330   7.701   3.649   4.651
 2129TIP3    H2 6331   7.812   3.599   4.561
 2130TIP3   OH2 6332   4.739   2.407   3.182
 2130TIP3    H1 6333   4.794   2.473   3.225
 2130TIP3    H2 6334   4.699   2.454   3.109
 2131TIP3   OH2 6335   7.116   5.786   2.960
 2131TIP3    H1 6336   7.209   5.763   2.965
 2131TIP3    H2 6337   7.082   5.732   2.889
 2132TIP3   OH2 6338   3.597   0.673   0.695
 2132TIP3    H1 6339   3.608   0.674   0.600
 2132TIP3    H2 6340   3.562   0.759   0.716
 2133TIP3   OH2 6341   1.642   4.661   0.815
 2133TIP3    H1 6342   1.682   4.719   0.751
 2133TIP3    H2 6343   1.585   4.717   0.867
 2134TIP3   OH2 6344   4.477   6.694   0.804
 2134TIP3    H1 6345   4.454   6.780   0.838
 2134TIP3    H2 6346   4.530   6.713   0.727
 2135TIP3   OH2 6347   1.878   2.361   5.981
 2135TIP3    H1 6348   1.857   2.441   6.028
 2135TIP3    H2 6349   1.906   2.391   5.895
 2136TIP3   OH2 6350   4.303   4.571   2.145
 2136TIP3    H1 6351   4.362   4.633   2.188
 2136TIP3    H2 6352   4.360   4.520   2.088
 2137TIP3   OH2 6353   7.821   3.099   1.133
 2137TIP3    H1 6354   7.848   3.062   1.217
 2137TIP3    H2 6355   7.883   3.062   1.070
 2138TIP3   OH2 6356   4.472   0.550   1.665
 2138TIP3    H1 6357   4.429   0.524   1.746
 2138TIP3    H2 6358   4.458   0.476   1.606
 2139TIP3   OH2 6359   7.394   0.645   6.516
 2139TIP3    H1 6360   7.431   0.651   6.428
 2139TIP3    H2 6361   7.376   0.736   6.540
 2140TIP3   OH2 6362   5.896   3.564   0.126
 2140TIP3    H1 6363   5.855   3.498   0.183
 2140TIP3    H2 6364   5.944   3.621   0.186
 2141TIP3   OH2 6365   1.215   6.466   3.518
 2141TIP3    H1 6366   1.241   6.481   3.609
 2141TIP3    H2 6367   1.179   6.550   3.489
 2142TIP3   OH2 6368   5.710   6.165   0.561
 2142TIP3    H1 6369   5.666   6.184   0.478
 2142TIP3    H2 6370   5.651   6.104   0.605
 2143TIP3   OH2 6371   2.906   3.968   6.514
 2143TIP3    H1 6372   2.884   3.889   6.562
 2143TIP3    H2 6373   2.891   4.040   6.576
 2144TIP3   OH2 6374   2.629   7.702   1.131
 2144TIP3    H1 6375   2.647   7.620   1.086
 2144TIP3    H2 6376   2.654   7.686   1.222
 2145TIP3   OH2 6377   6.668   1.372   5.502
 2145TIP3    H1 6378   6.691   1.435   5.434
 2145TIP3    H2 6379   6.578   1.393   5.526
 2146TIP3   OH2 6380   2.704   7.046   1.266
 2146TIP3    H1 6381   2.741   7.030   1.352
 2146TIP3    H2 6382   2.779   7.070   1.211
 2147TIP3   OH2 6383   4.658   0.496   4.141
 2147TIP3    H1 6384   4.673   0.405   4.168
 2147TIP3    H2 6385   4.613   0.536   4.215
 2148TIP3   OH2 6386   2.778   4.821   6.109
 2148TIP3    H1 6387   2.740   4.745   6.066
 2148TIP3    H2 6388   2.856   4.787   6.154
 2149TIP3   OH2 6389   3.247   1.455   3.173
 2149TIP3    H1 6390   3.292   1.458   3.088
 2149TIP3    H2 6391   3.297   1.392   3.224
 2150TIP3   OH2 6392   7.147   6.038   0.838
 2150TIP3    H1 6393   7.222   5.979   0.834
 2150TIP3    H2 6394   7.076   5.991   0.794
 2151TIP3   OH2 6395   5.310   0.556   5.073
 2151TIP3    H1 6396   5.279   0.484   5.128
 2151TIP3    H2 6397   5.232   0.608   5.054
 2152TIP3   OH2 6398   8.153   7.320   1.228
 2152TIP3    H1 6399   8.095   7.374   1.174
 2152TIP3    H2 6400   8.209   7.383   1.273
 2153TIP3   OH2 6401   4.661   4.456   3.567
 2153TIP3    H1 6402   4.741   4.494   3.604
 2153TIP3    H2 6403   4.590   4.507   3.605
 2154TIP3   OH2 6404   0.388   3.375   6.742
 2154TIP3    H1 6405   0.326   3.313   6.780
 2154TIP3    H2 6406   0.449   3.321   6.692
 2155TIP3   OH2 6407   8.101   2.631   4.824
 2155TIP3    H1 6408   8.122   2.643   4.732
 2155TIP3    H2 6409   8.009   2.658   4.832
 2156TIP3   OH2 6410   2.684   4.989   1.294
 2156TIP3    H1 6411   2.752   5.011   1.358
 2156TIP3    H2 6412   2.603   4.987   1.345
 2157TIP3   OH2 6413   0.870   1.743   1.820
 2157TIP3    H1 6414   0.853   1.831   1.786
 2157TIP3    H2 6415   0.793   1.722   1.873
 2158TIP3   OH2 6416   7.017   1.768   4.335
 2158TIP3    H1 6417   7.051   1.749   4.248
 2158TIP3    H2 6418   7.011   1.683   4.378
 2159TIP3   OH2 6419   6.177   5.364   1.098
 2159TIP3    H1 6420   6.145   5.294   1.040
 2159TIP3    H2 6421   6.132   5.348   1.181
 2160TIP3   OH2 6422   4.562   2.970   4.199
 2160TIP3    H1 6423   4.494   3.037   4.205
 2160TIP3    H2 6424   4.643   3.020   4.189
 2161TIP3   OH2 6425   6.876   6.607   6.090
 2161TIP3    H1 6426   6.838   6.524   6.119
 2161TIP3    H2 6427   6.929   6.584   6.014
 2162TIP3   OH2 6428   3.871   2.900   2.947
 2162TIP3    H1 6429   3.927   2.823   2.947
 2162TIP3    H2 6430   3.925   2.969   2.986
 2163TIP3   OH2 6431   2.232   0.265   3.313
 2163TIP3    H1 6432   2.271   0.247   3.227
 2163TIP3    H2 6433   2.250   0.357   3.328
 2164TIP3   OH2 6434   0.386   1.910   4.063
 2164TIP3    H1 6435   0.480   1.913   4.046
 2164TIP3    H2 6436   0.368   1.817   4.076
 2165TIP3   OH2 6437   3.306   2.532   5.136
 2165TIP3    H1 6438   3.282   2.440   5.141
 2165TIP3    H2 6439   3.263   2.564   5.057
 2166TIP3   OH2 6440   5.132   5.578   2.192
 2166TIP3    H1 6441   5.063   5.520   2.222
 2166TIP3    H2 6442   5.093   5.627   2.119
 2167TIP3   OH2 6443   6.423   2.867   4.686
 2167TIP3    H1 6444   6.402   2.774   4.691
 2167TIP3    H2 6445   6.418   2.897   4.777
 2168TIP3   OH2 6446   5.630   0.746   5.647
 2168TIP3    H1 6447   5.705   0.789   5.606
 2168TIP3    H2 6448   5.563   0.745   5.580
 2169TIP3   OH2 6449   0.572   7.361   2.263
 2169TIP3    H1 6450   0.568   7.289   2.200
 2169TIP3    H2 6451   0.524   7.432   2.221
 2170TIP3   OH2 6452   6.079   0.228   3.585
 2170TIP3    H1 6453   6.162   0.274   3.592
 2170TIP3    H2 6454   6.019   0.278   3.640
 2171TIP3   OH2 6455   5.761   0.164   1.192
 2171TIP3    H1 6456   5.767   0.113   1.110
 2171TIP3    H2 6457   5.851   0.187   1.212
 2172TIP3   OH2 6458   6.571   1.002   6.739
 2172TIP3    H1 6459   6.618   0.937   6.688
 2172TIP3    H2 6460   6.496   0.955   6.776
 2173TIP3   OH2 6461   4.549   4.961   2.594
 2173TIP3    H1 6462   4.541   4.986   2.686
 2173TIP3    H2 6463   4.480   5.011   2.550
 2174TIP3   OH2 6464   1.881   1.639   2.740
 2174TIP3    H1 6465   1.804   1.586   2.720
 2174TIP3    H2 6466   1.931   1.640   2.659
 2175TIP3   OH2 6467   3.937   5.709   4.713
 2175TIP3    H1 6468   3.851   5.668   4.719
 2175TIP3    H2 6469   3.941   5.767   4.788
 2176TIP3   OH2 6470   5.575   1.483   0.503
 2176TIP3    H1 6471   5.553   1.553   0.564
 2176TIP3    H2 6472   5.514   1.412   0.524
 2177TIP3   OH2 6473   2.739   2.904   5.879
 2177TIP3    H1 6474   2.672   2.836   5.876
 2177TIP3    H2 6475   2.799   2.877   5.948
 2178TIP3   OH2 6476   5.518   5.170   0.537
 2178TIP3    H1 6477   5.436   5.198   0.497
 2178TIP3    H2 6478   5.573   5.248   0.537
 2179TIP3   OH2 6479   6.400   5.720   2.143
 2179TIP3    H1 6480   6.458   5.780   2.095
 2179TIP3    H2 6481   6.450   5.694   2.220
 2180TIP3   OH2 6482   2.050   7.527   6.040
 2180TIP3    H1 6483   1.969   7.500   5.998
 2180TIP3    H2 6484   2.030   7.527   6.134
 2181TIP3   OH2 6485   4.268   0.168   3.610
 2181TIP3    H1 6486   4.231   0.206   3.530
 2181TIP3    H2 6487   4.210   0.198   3.680
 2182TIP3   OH2 6488   0.292   6.490   1.096
 2182TIP3    H1 6489   0.334   6.550   1.159
 2182TIP3    H2 6490   0.204   6.476   1.131
 2183TIP3   OH2 6491   3.196   4.816   1.926
 2183TIP3    H1 6492   3.169   4.893   1.876
 2183TIP3    H2 6493   3.143   4.820   2.006
 2184TIP3   OH2 6494   0.712   2.556   5.067
 2184TIP3    H1 6495   0.660   2.615   5.012
 2184TIP3    H2 6496   0.765   2.615   5.121
 2185TIP3   OH2 6497   1.921   6.474   4.125
 2185TIP3    H1 6498   1.960   6.390   4.148
 2185TIP3    H2 6499   1.901   6.467   4.031
 2186TIP3   OH2 6500   8.148   6.041   4.004
 2186TIP3    H1 6501   8.103   5.956   4.006
 2186TIP3    H2 6502   8.079   6.104   4.026
 2187TIP3   OH2 6503   0.407   5.921   4.479
 2187TIP3    H1 6504   0.410   5.911   4.574
 2187TIP3    H2 6505   0.315   5.907   4.456
 2188TIP3   OH2 6506   5.744   4.842   5.691
 2188TIP3    H1 6507   5.822   4.851   5.746
 2188TIP3    H2 6508   5.761   4.899   5.616
 2189TIP3   OH2 6509   1.445   6.732   3.233
 2189TIP3    H1 6510   1.436   6.641   3.204
 2189TIP3    H2 6511   1.438   6.783   3.152
 2190TIP3   OH2 6512   1.123   7.724   3.853
 2190TIP3    H1 6513   1.168   7.709   3.769
 2190TIP3    H2 6514   1.068   7.646   3.864
 2191TIP3   OH2 6515   3.949   7.007   0.825
 2191TIP3    H1 6516   3.858   7.026   0.849
 2191TIP3    H2 6517   3.964   6.918   0.854
 2192TIP3   OH2 6518   8.164   0.013   5.816
 2192TIP3    H1 6519   8.244   0.067   5.815
 2192TIP3    H2 6520   8.167  -0.036   5.734
 2193TIP3   OH2 6521   0.674   0.983   1.107
 2193TIP3    H1 6522   0.601   0.954   1.052
 2193TIP3    H2 6523   0.738   1.017   1.045
 2194TIP3   OH2 6524   2.883   6.727   4.358
 2194TIP3    H1 6525   2.847   6.800   4.309
 2194TIP3    H2 6526   2.863   6.746   4.450
 2195TIP3   OH2 6527   4.612   0.416   3.786
 2195TIP3    H1 6528   4.594   0.367   3.705
 2195TIP3    H2 6529   4.671   0.486   3.758
 2196TIP3   OH2 6530   8.101   7.552   0.746
 2196TIP3    H1 6531   8.083   7.463   0.774
 2196TIP3    H2 6532   8.182   7.546   0.695
 2197TIP3   OH2 6533   3.486   0.776   5.862
 2197TIP3    H1 6534   3.566   0.725   5.865
 2197TIP3    H2 6535   3.490   0.832   5.940
 2198TIP3   OH2 6536   7.503   5.250   4.626
 2198TIP3    H1 6537   7.518   5.156   4.615
 2198TIP3    H2 6538   7.588   5.285   4.653
 2199TIP3   OH2 6539   7.044   7.789   0.444
 2199TIP3    H1 6540   6.968   7.732   0.446
 2199TIP3    H2 6541   7.010   7.874   0.418
 2200TIP3   OH2 6542   5.238   1.435   3.447
 2200TIP3    H1 6543   5.321   1.421   3.493
 2200TIP3    H2 6544   5.178   1.466   3.515
 2201TIP3   OH2 6545   6.898   6.476   2.687
 2201TIP3    H1 6546   6.913   6.568   2.708
 2201TIP3    H2 6547   6.985   6.436   2.692
 2202TIP3   OH2 6548   7.914   7.658   6.713
 2202TIP3    H1 6549   7.838   7.688   6.662
 2202TIP3    H2 6550   7.990   7.685   6.661
 2203TIP3   OH2 6551   4.425   3.122   5.434
 2203TIP3    H1 6552   4.443   3.036   5.472
 2203TIP3    H2 6553   4.389   3.173   5.506
 2204TIP3   OH2 6554   6.311   0.484   4.803
 2204TIP3    H1 6555   6.406   0.474   4.794
 2204TIP3    H2 6556   6.292   0.449   4.890
 2205TIP3   OH2 6557   2.533   1.564   6.242
 2205TIP3    H1 6558   2.558   1.614   6.165
 2205TIP3    H2 6559   2.438   1.558   6.238
 2206TIP3   OH2 6560   4.746   2.092   2.118
 2206TIP3    H1 6561   4.802   2.022   2.152
 2206TIP3    H2 6562   4.658   2.069   2.147
 2207TIP3   OH2 6563   3.581   5.566   6.031
 2207TIP3    H1 6564   3.506   5.514   6.060
 2207TIP3    H2 6565   3.638   5.503   5.986
 2208TIP3   OH2 6566   6.982   4.924   2.664
 2208TIP3    H1 6567   7.072   4.950   2.680
 2208TIP3    H2 6568   6.934   5.006   2.652
 2209TIP3   OH2 6569   3.179   5.271   3.800
 2209TIP3    H1 6570   3.156   5.336   3.734
 2209TIP3    H2 6571   3.110   5.280   3.866
 2210TIP3   OH2 6572   2.070   6.553   1.583
 2210TIP3    H1 6573   2.140   6.488   1.583
 2210TIP3    H2 6574   2.115   6.637   1.583
 2211TIP3   OH2 6575   3.198   3.064   4.665
 2211TIP3    H1 6576   3.238   3.003   4.603
 2211TIP3    H2 6577   3.252   3.056   4.744
 2212TIP3   OH2 6578   7.333   6.709   0.453
 2212TIP3    H1 6579   7.418   6.665   0.445
 2212TIP3    H2 6580   7.289   6.665   0.526
 2213TIP3   OH2 6581   8.091   7.291   0.815
 2213TIP3    H1 6582   8.084   7.203   0.778
 2213TIP3    H2 6583   8.061   7.281   0.906
 2214TIP3   OH2 6584   0.258   5.794   5.497
 2214TIP3    H1 6585   0.231   5.873   5.545
 2214TIP3    H2 6586   0.199   5.726   5.529
 2215TIP3   OH2 6587   7.180   6.997   6.197
 2215TIP3    H1 6588   7.146   6.908   6.202
 2215TIP3    H2 6589   7.103   7.053   6.208
 2216TIP3   OH2 6590   1.569   4.206   6.278
 2216TIP3    H1 6591   1.487   4.233   6.320
 2216TIP3    H2 6592   1.559   4.231   6.186
 2217TIP3   OH2 6593   7.982   6.547   1.551
 2217TIP3    H1 6594   7.950   6.494   1.624
 2217TIP3    H2 6595   7.911   6.546   1.487
 2218TIP3   OH2 6596   4.188   0.612   4.854
 2218TIP3    H1 6597   4.179   0.546   4.923
 2218TIP3    H2 6598   4.263   0.665   4.881
 2219TIP3   OH2 6599   1.260   4.564   3.698
 2219TIP3    H1 6600   1.176   4.519   3.695
 2219TIP3    H2 6601   1.258   4.614   3.780
 2220TIP3   OH2 6602   0.437   6.365   5.768
 2220TIP3    H1 6603   0.406   6.381   5.679
 2220TIP3    H2 6604   0.528   6.335   5.756
 2221TIP3   OH2 6605   5.319   1.717   0.380
 2221TIP3    H1 6606   5.307   1.811   0.370
 2221TIP3    H2 6607   5.408   1.707   0.413
 2222TIP3   OH2 6608   1.480   3.787   0.338
 2222TIP3    H1 6609   1.422   3.831   0.277
 2222TIP3    H2 6610   1.493   3.700   0.301
 2223TIP3   OH2 6611   3.283   6.730   1.239
 2223TIP3    H1 6612   3.280   6.679   1.320
 2223TIP3    H2 6613   3.206   6.700   1.189
 2224TIP3   OH2 6614   3.847   4.381   5.736
 2224TIP3    H1 6615   3.759   4.363   5.769
 2224TIP3    H2 6616   3.900   4.395   5.814
 2225TIP3   OH2 6617   5.660   5.718   0.179
 2225TIP3    H1 6618   5.696   5.632   0.198
 2225TIP3    H2 6619   5.565   5.704   0.174
 2226TIP3   OH2 6620   7.230   6.133   0.405
 2226TIP3    H1 6621   7.240   6.041   0.427
 2226TIP3    H2 6622   7.178   6.134   0.325
 2227TIP3   OH2 6623   6.312   2.127   5.077
 2227TIP3    H1 6624   6.313   2.037   5.110
 2227TIP3    H2 6625   6.286   2.180   5.153
 2228TIP3   OH2 6626   5.308   4.313   3.067
 2228TIP3    H1 6627   5.301   4.396   3.021
 2228TIP3    H2 6628   5.347   4.253   3.003
 2229TIP3   OH2 6629   0.852   2.010   1.904
 2229TIP3    H1 6630   0.894   2.096   1.909
 2229TIP3    H2 6631   0.779   2.022   1.843
 2230TIP3   OH2 6632   3.705   1.551   2.057
 2230TIP3    H1 6633   3.659   1.631   2.080
 2230TIP3    H2 6634   3.726   1.510   2.141
 2231TIP3   OH2 6635   2.327   7.264   1.900
 2231TIP3    H1 6636   2.421   7.257   1.880
 2231TIP3    H2 6637   2.286   7.279   1.814
 2232TIP3   OH2 6638   3.799   1.474   4.804
 2232TIP3    H1 6639   3.790   1.405   4.869
 2232TIP3    H2 6640   3.711   1.486   4.768
 2233TIP3   OH2 6641   6.564   3.482   0.429
 2233TIP3    H1 6642   6.658   3.473   0.445
 2233TIP3    H2 6643   6.556   3.488   0.334
 2234TIP3   OH2 6644   4.396   1.477   2.875
 2234TIP3    H1 6645   4.372   1.565   2.906
 2234TIP3    H2 6646   4.491   1.478   2.871
 2235TIP3   OH2 6647   6.849   0.076   1.168
 2235TIP3    H1 6648   6.763   0.039   1.186
 2235TIP3    H2 6649   6.900   0.058   1.246
 2236TIP3   OH2 6650   6.110   6.578   0.707
 2236TIP3    H1 6651   6.074   6.510   0.649
 2236TIP3    H2 6652   6.042   6.644   0.711
 2237TIP3   OH2 6653   5.808   6.053   1.183
 2237TIP3    H1 6654   5.853   5.969   1.196
 2237TIP3    H2 6655   5.822   6.073   1.090
 2238TIP3   OH2 6656   7.798   6.224   5.905
 2238TIP3    H1 6657   7.774   6.154   5.965
 2238TIP3    H2 6658   7.803   6.182   5.819
 2239TIP3   OH2 6659   2.514   7.032   4.163
 2239TIP3    H1 6660   2.433   7.083   4.158
 2239TIP3    H2 6661   2.518   7.003   4.254
 2240TIP3   OH2 6662   4.116   6.512   6.685
 2240TIP3    H1 6663   4.104   6.548   6.773
 2240TIP3    H2 6664   4.198   6.551   6.654
 2241TIP3   OH2 6665   4.937   0.222   5.614
 2241TIP3    H1 6666   4.917   0.202   5.705
 2241TIP3    H2 6667   5.030   0.241   5.613
 2242TIP3   OH2 6668   2.882   6.054   2.735
 2242TIP3    H1 6669   2.825   6.086   2.804
 2242TIP3    H2 6670   2.823   6.010   2.674
 2243TIP3   OH2 6671   6.049   7.569   2.472
 2243TIP3    H1 6672   6.024   7.480   2.500
 2243TIP3    H2 6673   6.049   7.620   2.553
 2244TIP3   OH2 6674   5.124   7.291   6.682
 2244TIP3    H1 6675   5.125   7.258   6.592
 2244TIP3    H2 6676   5.216   7.289   6.709
 2245TIP3   OH2 6677   1.586   6.154   4.922
 2245TIP3    H1 6678   1.569   6.238   4.879
 2245TIP3    H2 6679   1.573   6.089   4.853
 2246TIP3   OH2 6680   3.260   6.377   2.610
 2246TIP3    H1 6681   3.306   6.325   2.676
 2246TIP3    H2 6682   3.180   6.327   2.592
 2247TIP3   OH2 6683   2.667   1.026   4.645
 2247TIP3    H1 6684   2.648   0.935   4.669
 2247TIP3    H2 6685   2.760   1.027   4.623
 2248TIP3   OH2 6686   8.207   5.570   3.100
 2248TIP3    H1 6687   8.183   5.490   3.054
 2248TIP3    H2 6688   8.281   5.544   3.155
 2249TIP3   OH2 6689   2.967   7.549   5.824
 2249TIP3    H1 6690   3.050   7.555   5.872
 2249TIP3    H2 6691   2.993   7.531   5.734
 2250TIP3   OH2 6692   0.081   3.674   4.580
 2250TIP3    H1 6693   0.110   3.755   4.621
 2250TIP3    H2 6694   0.146   3.609   4.607
 2251TIP3   OH2 6695   1.028   6.317   0.996
 2251TIP3    H1 6696   1.012   6.223   1.004
 2251TIP3    H2 6697   1.027   6.333   0.901
 2252TIP3   OH2 6698   3.844   0.654   4.035
 2252TIP3    H1 6699   3.828   0.649   3.940
 2252TIP3    H2 6700   3.859   0.563   4.061
 2253TIP3   OH2 6701   7.345   4.845   2.723
 2253TIP3    H1 6702   7.422   4.900   2.738
 2253TIP3    H2 6703   7.309   4.831   2.811
 2254TIP3   OH2 6704   2.408   3.321   5.862
 2254TIP3    H1 6705   2.377   3.409   5.880
 2254TIP3    H2 6706   2.351   3.289   5.792
 2255TIP3   OH2 6707   5.164   2.297   6.625
 2255TIP3    H1 6708   5.200   2.241   6.556
 2255TIP3    H2 6709   5.164   2.241   6.703
 2256TIP3   OH2 6710   1.320   5.321   3.959
 2256TIP3    H1 6711   1.365   5.288   3.882
 2256TIP3    H2 6712   1.266   5.393   3.927
 2257TIP3   OH2 6713   2.128   6.485   6.719
 2257TIP3    H1 6714   2.132   6.424   6.645
 2257TIP3    H2 6715   2.220   6.496   6.745
 2258TIP3   OH2 6716   6.431   1.690   0.628
 2258TIP3    H1 6717   6.382   1.724   0.553
 2258TIP3    H2 6718   6.404   1.598   0.634
 2259TIP3   OH2 6719   1.533   1.402   4.121
 2259TIP3    H1 6720   1.567   1.328   4.172
 2259TIP3    H2 6721   1.476   1.362   4.056
 2260TIP3   OH2 6722   1.148   4.927   4.008
 2260TIP3    H1 6723   1.143   4.834   3.988
 2260TIP3    H2 6724   1.203   4.964   3.939
 2261TIP3   OH2 6725   1.168   0.504   5.606
 2261TIP3    H1 6726   1.246   0.541   5.647
 2261TIP3    H2 6727   1.188   0.503   5.512
 2262TIP3   OH2 6728   2.585   3.240   3.227
 2262TIP3    H1 6729   2.512   3.300   3.213
 2262TIP3    H2 6730   2.653   3.295   3.266
 2263TIP3   OH2 6731   4.900   0.078   4.761
 2263TIP3    H1 6732   4.937   0.166   4.768
 2263TIP3    H2 6733   4.936   0.043   4.680
 2264TIP3   OH2 6734   2.128   7.047   2.533
 2264TIP3    H1 6735   2.077   6.966   2.533
 2264TIP3    H2 6736   2.194   7.033   2.601
 2265TIP3   OH2 6737   0.979   3.895   3.242
 2265TIP3    H1 6738   0.927   3.837   3.185
 2265TIP3    H2 6739   0.918   3.921   3.311
 2266TIP3   OH2 6740   0.954   6.628   5.348
 2266TIP3    H1 6741   0.888   6.587   5.291
 2266TIP3    H2 6742   1.014   6.672   5.287
 2267TIP3   OH2 6743   4.503   2.499   5.137
 2267TIP3    H1 6744   4.548   2.419   5.165
 2267TIP3    H2 6745   4.419   2.496   5.182
 2268TIP3   OH2 6746   0.645   5.530   4.877
 2268TIP3    H1 6747   0.666   5.523   4.784
 2268TIP3    H2 6748   0.723   5.569   4.916
 2269TIP3   OH2 6749   5.122   1.037   5.642
 2269TIP3    H1 6750   5.199   1.024   5.696
 2269TIP3    H2 6751   5.137   1.120   5.597
 2270TIP3   OH2 6752   5.492   1.375   3.268
 2270TIP3    H1 6753   5.452   1.348   3.351
 2270TIP3    H2 6754   5.573   1.324   3.262
 2271TIP3   OH2 6755   5.412   2.998   3.502
 2271TIP3    H1 6756   5.413   3.079   3.553
 2271TIP3    H2 6757   5.381   2.932   3.564
 2272TIP3   OH2 6758   2.206   7.687   6.718
 2272TIP3    H1 6759   2.255   7.680   6.636
 2272TIP3    H2 6760   2.237   7.767   6.759
 2273TIP3   OH2 6761   2.149   0.772   6.017
 2273TIP3    H1 6762   2.122   0.710   5.949
 2273TIP3    H2 6763   2.161   0.719   6.095
 2274TIP3   OH2 6764   3.932   0.348   6.282
 2274TIP3    H1 6765   4.024   0.334   6.304
 2274TIP3    H2 6766   3.885   0.328   6.363
 2275TIP3   OH2 6767   2.936   5.096   6.481
 2275TIP3    H1 6768   3.002   5.163   6.500
 2275TIP3    H2 6769   2.909   5.064   6.567
 2276TIP3   OH2 6770   8.079   5.811   5.787
 2276TIP3    H1 6771   8.112   5.887   5.835
 2276TIP3    H2 6772   8.144   5.797   5.718
 2277TIP3   OH2 6773   0.448   2.083   5.304
 2277TIP3    H1 6774   0.471   1.994   5.278
 2277TIP3    H2 6775   0.353   2.088   5.293
 2278TIP3   OH2 6776   6.831   1.245   1.966
 2278TIP3    H1 6777   6.817   1.318   2.027
 2278TIP3    H2 6778   6.765   1.258   1.898
 2279TIP3   OH2 6779   5.968   2.729   4.600
 2279TIP3    H1 6780   5.916   2.707   4.523
 2279TIP3    H2 6781   5.932   2.813   4.629
 2280TIP3   OH2 6782   0.276   1.388   2.510
 2280TIP3    H1 6783   0.206   1.449   2.532
 2280TIP3    H2 6784   0.302   1.350   2.594
 2281TIP3   OH2 6785   1.782   5.653   0.967
 2281TIP3    H1 6786   1.696   5.629   1.001
 2281TIP3    H2 6787   1.829   5.688   1.042
 2282TIP3   OH2 6788   0.119   4.982   2.858
 2282TIP3    H1 6789   0.106   4.924   2.784
 2282TIP3    H2 6790   0.120   5.070   2.821
 2283TIP3   OH2 6791   0.491   3.077   3.957
 2283TIP3    H1 6792   0.566   3.127   3.926
 2283TIP3    H2 6793   0.519   3.039   4.040
 2284TIP3   OH2 6794   0.871   1.792   5.425
 2284TIP3    H1 6795   0.867   1.886   5.438
 2284TIP3    H2 6796   0.915   1.780   5.341
 2285TIP3   OH2 6797   2.049   1.361   5.237
 2285TIP3    H1 6798   2.013   1.372   5.325
 2285TIP3    H2 6799   2.033   1.445   5.194
 2286TIP3   OH2 6800   7.345   7.629   5.772
 2286TIP3    H1 6801   7.410   7.574   5.818
 2286TIP3    H2 6802   7.329   7.583   5.690
 2287TIP3   OH2 6803   6.074   1.727   6.011
 2287TIP3    H1 6804   6.064   1.666   6.084
 2287TIP3    H2 6805   6.029   1.806   6.039
 2288TIP3   OH2 6806   5.915   4.122   4.893
 2288TIP3    H1 6807   5.998   4.084   4.866
 2288TIP3    H2 6808   5.940   4.199   4.945
 2289TIP3   OH2 6809   3.630   2.217   5.894
 2289TIP3    H1 6810   3.551   2.239   5.845
 2289TIP3    H2 6811   3.633   2.281   5.965
 2290TIP3   OH2 6812   1.740   0.565   4.128
 2290TIP3    H1 6813   1.748   0.479   4.086
 2290TIP3    H2 6814   1.791   0.624   4.072
 2291TIP3   OH2 6815   4.064   2.751   3.225
 2291TIP3    H1 6816   4.056   2.846   3.218
 2291TIP3    H2 6817   3.974   2.719   3.219
 2292TIP3   OH2 6818   5.064   4.273   0.592
 2292TIP3    H1 6819   4.977   4.234   0.604
 2292TIP3    H2 6820   5.094   4.238   0.508
 2293TIP3   OH2 6821   6.573   3.403   2.854
 2293TIP3    H1 6822   6.543   3.320   2.816
 2293TIP3    H2 6823   6.505   3.466   2.832
 2294TIP3   OH2 6824   8.284   0.565   1.601
 2294TIP3    H1 6825   8.226   0.569   1.678
 2294TIP3    H2 6826   8.232   0.522   1.534
 2295TIP3   OH2 6827   4.226   2.974   0.950
 2295TIP3    H1 6828   4.295   3.016   1.001
 2295TIP3    H2 6829   4.259   2.973   0.860
 2296TIP3   OH2 6830   0.888   4.612   0.296
 2296TIP3    H1 6831   0.963   4.572   0.252
 2296TIP3    H2 6832   0.888   4.574   0.384
 2297TIP3   OH2 6833   4.773   5.414   0.889
 2297TIP3    H1 6834   4.806   5.356   0.958
 2297TIP3    H2 6835   4.828   5.493   0.896
 2298TIP3   OH2 6836   1.925   3.032   3.293
 2298TIP3    H1 6837   1.951   3.122   3.274
 2298TIP3    H2 6838   1.900   2.996   3.207
 2299TIP3   OH2 6839   6.681   7.706   2.967
 2299TIP3    H1 6840   6.613   7.677   2.907
 2299TIP3    H2 6841   6.750   7.741   2.909
 2300TIP3   OH2 6842   4.592   0.158   3.874
 2300TIP3    H1 6843   4.596   0.251   3.851
 2300TIP3    H2 6844   4.670   0.120   3.833
 2301TIP3   OH2 6845   2.402   7.627   5.421
 2301TIP3    H1 6846   2.312   7.606   5.395
 2301TIP3    H2 6847   2.452   7.622   5.340
 2302TIP3   OH2 6848   6.233   6.146   2.920
 2302TIP3    H1 6849   6.154   6.104   2.953
 2302TIP3    H2 6850   6.217   6.239   2.933
 2303TIP3   OH2 6851   4.529   5.049   5.840
 2303TIP3    H1 6852   4.453   5.099   5.811
 2303TIP3    H2 6853   4.495   4.992   5.909
 2304TIP3   OH2 6854   5.180   1.439   2.185
 2304TIP3    H1 6855   5.165   1.344   2.183
 2304TIP3    H2 6856   5.105   1.475   2.232
 2305TIP3   OH2 6857   3.741   3.051   4.054
 2305TIP3    H1 6858   3.675   2.993   4.092
 2305TIP3    H2 6859   3.798   3.073   4.128
 2306TIP3   OH2 6860   7.195   6.217   4.200
 2306TIP3    H1 6861   7.149   6.137   4.176
 2306TIP3    H2 6862   7.189   6.220   4.296
 2307TIP3   OH2 6863   0.492   0.711   3.610
 2307TIP3    H1 6864   0.568   0.736   3.558
 2307TIP3    H2 6865   0.429   0.783   3.597
 2308TIP3   OH2 6866   0.101   3.543   5.063
 2308TIP3    H1 6867   0.069   3.616   5.116
 2308TIP3    H2 6868   0.174   3.579   5.013
 2309TIP3   OH2 6869   3.579   5.034   5.799
 2309TIP3    H1 6870   3.553   5.027   5.891
 2309TIP3    H2 6871   3.675   5.035   5.801
 2310TIP3   OH2 6872   2.556   0.785   3.344
 2310TIP3    H1 6873   2.525   0.846   3.277
 2310TIP3    H2 6874   2.484   0.723   3.355
 2311TIP3   OH2 6875   6.764   6.388   5.467
 2311TIP3    H1 6876   6.798   6.386   5.377
 2311TIP3    H2 6877   6.714   6.307   5.475
 2312TIP3   OH2 6878   5.176   4.910   1.275
 2312TIP3    H1 6879   5.164   4.832   1.329
 2312TIP3    H2 6880   5.135   4.980   1.325
 2313TIP3   OH2 6881   1.980   6.373   0.287
 2313TIP3    H1 6882   1.997   6.347   0.377
 2313TIP3    H2 6883   2.065   6.362   0.243
 2314TIP3   OH2 6884   3.089   5.368   6.800
 2314TIP3    H1 6885   3.030   5.434   6.763
 2314TIP3    H2 6886   3.111   5.311   6.726
 2315TIP3   OH2 6887   3.630   7.055   2.792
 2315TIP3    H1 6888   3.612   6.995   2.864
 2315TIP3    H2 6889   3.708   7.018   2.750
 2316TIP3   OH2 6890   1.721   0.794   3.918
 2316TIP3    H1 6891   1.679   0.737   3.853
 2316TIP3    H2 6892   1.772   0.856   3.866
 2317TIP3   OH2 6893   4.889   5.734   6.213
 2317TIP3    H1 6894   4.928   5.656   6.173
 2317TIP3    H2 6895   4.891   5.801   6.144
 2318TIP3   OH2 6896   7.957   4.004   2.621
 2318TIP3    H1 6897   7.925   3.939   2.559
 2318TIP3    H2 6898   8.052   4.008   2.606
 2319TIP3   OH2 6899   1.318   3.852   4.155
 2319TIP3    H1 6900   1.406   3.875   4.128
 2319TIP3    H2 6901   1.323   3.759   4.177
 2320TIP3   OH2 6902   3.594   3.088   6.442
 2320TIP3    H1 6903   3.580   3.156   6.508
 2320TIP3    H2 6904   3.601   3.007   6.492
 2321TIP3   OH2 6905   1.318   0.811   0.574
 2321TIP3    H1 6906   1.394   0.835   0.628
 2321TIP3    H2 6907   1.264   0.756   0.631
 2322TIP3   OH2 6908  -0.001   6.936   5.013
 2322TIP3    H1 6909   0.072   6.891   4.972
 2322TIP3    H2 6910  -0.053   6.867   5.053
 2323TIP3   OH2 6911   3.984   1.520   5.142
 2323TIP3    H1 6912   3.907   1.464   5.141
 2323TIP3    H2 6913   4.057   1.461   5.120
 2324TIP3   OH2 6914   5.588   6.805   5.312
 2324TIP3    H1 6915   5.633   6.779   5.393
 2324TIP3    H2 6916   5.642   6.770   5.242
 2325TIP3   OH2 6917   2.069   0.932   5.758
 2325TIP3    H1 6918   2.134   0.955   5.825
 2325TIP3    H2 6919   2.036   1.016   5.727
 2326TIP3   OH2 6920   0.240   0.117   4.868
 2326TIP3    H1 6921   0.287   0.142   4.947
 2326TIP3    H2 6922   0.253   0.189   4.807
 2327TIP3   OH2 6923   0.209   4.945   5.952
 2327TIP3    H1 6924   0.134   4.907   5.905
 2327TIP3    H2 6925   0.220   5.032   5.913
 2328TIP3   OH2 6926   1.272   5.459   5.624
 2328TIP3    H1 6927   1.279   5.553   5.608
 2328TIP3    H2 6928   1.359   5.425   5.604
 2329TIP3   OH2 6929   3.123   4.052   4.368
 2329TIP3    H1 6930   3.219   4.053   4.375
 2329TIP3    H2 6931   3.105   4.062   4.275
 2330TIP3   OH2 6932   7.966   7.107   0.080
 2330TIP3    H1 6933   7.879   7.147   0.088
 2330TIP3    H2 6934   7.977   7.092  -0.014
 2331TIP3   OH2 6935   6.737   7.868   4.652
 2331TIP3    H1 6936   6.642   7.855   4.648
 2331TIP3    H2 6937   6.772   7.781   4.672
 2332TIP3   OH2 6938   2.572   5.319   5.438
 2332TIP3    H1 6939   2.478   5.304   5.431
 2332TIP3    H2 6940   2.581   5.394   5.497
 2333TIP3   OH2 6941   4.189   1.851   2.515
 2333TIP3    H1 6942   4.185   1.925   2.454
 2333TIP3    H2 6943   4.229   1.780   2.463
 2334TIP3   OH2 6944   7.916   1.266   2.597
 2334TIP3    H1 6945   7.854   1.192   2.599
 2334TIP3    H2 6946   8.002   1.225   2.610
 2335TIP3   OH2 6947   1.751   6.593   3.135
 2335TIP3    H1 6948   1.684   6.656   3.110
 2335TIP3    H2 6949   1.808   6.641   3.195
 2336TIP3   OH2 6950   0.392   3.786   0.471
 2336TIP3    H1 6951   0.406   3.794   0.376
 2336TIP3    H2 6952   0.297   3.777   0.481
 2337TIP3   OH2 6953   5.425   6.355   5.958
 2337TIP3    H1 6954   5.516   6.373   5.932
 2337TIP3    H2 6955   5.373   6.414   5.904
 2338TIP3   OH2 6956   2.183   6.240   1.357
 2338TIP3    H1 6957   2.255   6.256   1.418
 2338TIP3    H2 6958   2.200   6.152   1.322
 2339TIP3   OH2 6959   5.924   4.596   2.999
 2339TIP3    H1 6960   5.956   4.599   3.089
 2339TIP3    H2 6961   5.854   4.661   2.996
 2340TIP3   OH2 6962   7.195   4.379   3.330
 2340TIP3    H1 6963   7.180   4.285   3.324
 2340TIP3    H2 6964   7.206   4.396   3.423
 2341TIP3   OH2 6965   3.726   1.354   5.226
 2341TIP3    H1 6966   3.720   1.390   5.314
 2341TIP3    H2 6967   3.792   1.284   5.232
 2342TIP3   OH2 6968   0.307   2.594   2.462
 2342TIP3    H1 6969   0.337   2.513   2.503
 2342TIP3    H2 6970   0.317   2.660   2.530
 2343TIP3   OH2 6971   1.901   3.772   3.629
 2343TIP3    H1 6972   1.857   3.849   3.591
 2343TIP3    H2 6973   1.829   3.714   3.655
 2344TIP3   OH2 6974   4.277   3.683   2.325
 2344TIP3    H1 6975   4.347   3.747   2.314
 2344TIP3    H2 6976   4.302   3.634   2.404
 2345TIP3   OH2 6977   7.861   7.183   1.764
 2345TIP3    H1 6978   7.805   7.198   1.688
 2345TIP3    H2 6979   7.927   7.252   1.759
 2346TIP3   OH2 6980   8.234   2.305   4.189
 2346TIP3    H1 6981   8.142   2.286   4.169
 2346TIP3    H2 6982   8.243   2.399   4.175
 2347TIP3   OH2 6983   2.178   5.763   0.304
 2347TIP3    H1 6984   2.107   5.700   0.320
 2347TIP3    H2 6985   2.258   5.713   0.320
 2348TIP3   OH2 6986   6.979   3.528   5.071
 2348TIP3    H1 6987   7.034   3.591   5.025
 2348TIP3    H2 6988   6.894   3.571   5.078
 2349TIP3   OH2 6989   2.613   3.033   6.224
 2349TIP3    H1 6990   2.563   2.985   6.158
 2349TIP3    H2 6991   2.615   3.123   6.192
 2350TIP3   OH2 6992   2.433   3.282   1.020
 2350TIP3    H1 6993   2.414   3.207   1.075
 2350TIP3    H2 6994   2.347   3.321   1.002
 2351TIP3   OH2 6995   1.996   1.592   0.364
 2351TIP3    H1 6996   2.058   1.662   0.384
 2351TIP3    H2 6997   2.032   1.551   0.285
 2352TIP3   OH2 6998   3.787   4.218   1.786
 2352TIP3    H1 6999   3.708   4.250   1.830
 2352TIP3    H2 7000   3.782   4.123   1.794
 2353TIP3   OH2 7001   7.737   0.304   2.892
 2353TIP3    H1 7002   7.769   0.252   2.965
 2353TIP3    H2 7003   7.814   0.320   2.838
 2354TIP3   OH2 7004   2.888   5.594   5.256
 2354TIP3    H1 7005   2.965   5.546   5.286
 2354TIP3    H2 7006   2.922   5.680   5.231
 2355TIP3   OH2 7007   2.194   7.640   2.839
 2355TIP3    H1 7008   2.284   7.672   2.840
 2355TIP3    H2 7009   2.188   7.586   2.760
 2356TIP3   OH2 7010   7.896   7.347   6.191
 2356TIP3    H1 7011   7.868   7.284   6.257
 2356TIP3    H2 7012   7.957   7.299   6.136
 2357TIP3   OH2 7013   4.293   6.690   0.545
 2357TIP3    H1 7014   4.323   6.730   0.626
 2357TIP3    H2 7015   4.358   6.717   0.479
 2358TIP3   OH2 7016   0.438   2.612   4.723
 2358TIP3    H1 7017   0.421   2.651   4.637
 2358TIP3    H2 7018   0.449   2.519   4.705
 2359TIP3   OH2 7019   7.993   3.189   3.288
 2359TIP3    H1 7020   8.012   3.137   3.211
 2359TIP3    H2 7021   7.974   3.277   3.254
 2360TIP3   OH2 7022   1.178   2.210   0.594
 2360TIP3    H1 7023   1.159   2.121   0.624
 2360TIP3    H2 7024   1.254   2.237   0.646
 2361TIP3   OH2 7025   1.715   7.037   0.859
 2361TIP3    H1 7026   1.667   6.994   0.789
 2361TIP3    H2 7027   1.723   6.970   0.927
 2362TIP3   OH2 7028   0.289   4.616   4.418
 2362TIP3    H1 7029   0.327   4.628   4.331
 2362TIP3    H2 7030   0.204   4.577   4.401
 2363TIP3   OH2 7031   3.548   5.089   2.579
 2363TIP3    H1 7032   3.533   4.997   2.556
 2363TIP3    H2 7033   3.464   5.132   2.563
 2364TIP3   OH2 7034   7.350   6.884   3.600
 2364TIP3    H1 7035   7.312   6.879   3.513
 2364TIP3    H2 7036   7.411   6.811   3.605
 2365TIP3   OH2 7037   4.448   4.444   2.777
 2365TIP3    H1 7038   4.520   4.383   2.794
 2365TIP3    H2 7039   4.458   4.468   2.685
 2366TIP3   OH2 7040   4.024   5.359   6.449
 2366TIP3    H1 7041   3.982   5.391   6.370
 2366TIP3    H2 7042   3.954   5.313   6.496
 2367TIP3   OH2 7043   5.190   7.422   5.389
 2367TIP3    H1 7044   5.199   7.418   5.484
 2367TIP3    H2 7045   5.201   7.515   5.367
 2368TIP3   OH2 7046   1.470   6.004   6.702
 2368TIP3    H1 7047   1.457   6.073   6.637
 2368TIP3    H2 7048   1.383   5.967   6.717
 2369TIP3   OH2 7049   4.991   4.040   3.914
 2369TIP3    H1 7050   5.037   4.098   3.975
 2369TIP3    H2 7051   5.048   4.038   3.836
 2370TIP3   OH2 7052   6.463   4.363   3.582
 2370TIP3    H1 7053   6.514   4.293   3.541
 2370TIP3    H2 7054   6.372   4.341   3.562
 2371TIP3   OH2 7055   4.605   5.268   6.023
 2371TIP3    H1 7056   4.531   5.286   6.082
 2371TIP3    H2 7057   4.567   5.212   5.955
 2372TIP3   OH2 7058   6.383   0.582   5.653
 2372TIP3    H1 7059   6.470   0.542   5.665
 2372TIP3    H2 7060   6.371   0.585   5.558
 2373TIP3   OH2 7061   5.618   1.270   1.714
 2373TIP3    H1 7062   5.694   1.329   1.718
 2373TIP3    H2 7063   5.546   1.325   1.684
 2374TIP3   OH2 7064   0.423   0.033   6.290
 2374TIP3    H1 7065   0.434   0.108   6.231
 2374TIP3    H2 7066   0.506  -0.015   6.282
 2375TIP3   OH2 7067   4.000   2.844   0.151
 2375TIP3    H1 7068   4.078   2.878   0.107
 2375TIP3    H2 7069   4.022   2.846   0.244
 2376TIP3   OH2 7070   0.495   2.522   3.893
 2376TIP3    H1 7071   0.414   2.534   3.943
 2376TIP3    H2 7072   0.565   2.537   3.957
 2377TIP3   OH2 7073   6.316   5.934   4.346
 2377TIP3    H1 7074   6.371   5.978   4.281
 2377TIP3    H2 7075   6.376   5.912   4.418
 2378TIP3   OH2 7076   3.703   1.432   2.300
 2378TIP3    H1 7077   3.610   1.437   2.281
 2378TIP3    H2 7078   3.712   1.357   2.358
 2379TIP3   OH2 7079   2.360   0.600   1.792
 2379TIP3    H1 7080   2.432   0.537   1.791
 2379TIP3    H2 7081   2.302   0.570   1.722
 2380TIP3   OH2 7082   7.115   7.328   4.781
 2380TIP3    H1 7083   7.031   7.349   4.740
 2380TIP3    H2 7084   7.134   7.405   4.835
 2381TIP3   OH2 7085   3.773   4.320   5.261
 2381TIP3    H1 7086   3.771   4.353   5.351
 2381TIP3    H2 7087   3.740   4.230   5.267
 2382TIP3   OH2 7088   5.236   5.453   0.182
 2382TIP3    H1 7089   5.146   5.478   0.165
 2382TIP3    H2 7090   5.285   5.484   0.106
 2383TIP3   OH2 7091   2.311   7.074   4.770
 2383TIP3    H1 7092   2.359   7.002   4.811
 2383TIP3    H2 7093   2.219   7.052   4.784
 2384TIP3   OH2 7094   6.633   0.353   5.517
 2384TIP3    H1 7095   6.637   0.404   5.598
 2384TIP3    H2 7096   6.710   0.379   5.467
 2385TIP3   OH2 7097   1.207   7.727   3.576
 2385TIP3    H1 7098   1.269   7.717   3.504
 2385TIP3    H2 7099   1.187   7.821   3.577
 2386TIP3   OH2 7100   4.026   2.214   4.270
 2386TIP3    H1 7101   3.965   2.255   4.209
 2386TIP3    H2 7102   4.090   2.170   4.215
 2387TIP3   OH2 7103   7.872   4.626   5.400
 2387TIP3    H1 7104   7.808   4.605   5.331
 2387TIP3    H2 7105   7.842   4.577   5.476
 2388TIP3   OH2 7106   0.219   3.297   3.903
 2388TIP3    H1 7107   0.296   3.352   3.893
 2388TIP3    H2 7108   0.225   3.265   3.993
 2389TIP3   OH2 7109   1.588   3.839   4.095
 2389TIP3    H1 7110   1.604   3.929   4.068
 2389TIP3    H2 7111   1.593   3.841   4.191
 2390TIP3   OH2 7112   5.968   1.308   2.501
 2390TIP3    H1 7113   5.969   1.331   2.408
 2390TIP3    H2 7114   5.875   1.311   2.525
 2391TIP3   OH2 7115   4.086   3.044   3.496
 2391TIP3    H1 7116   4.023   2.998   3.551
 2391TIP3    H2 7117   4.161   3.058   3.553
 2392TIP3   OH2 7118   8.129   5.242   3.797
 2392TIP3    H1 7119   8.194   5.254   3.728
 2392TIP3    H2 7120   8.095   5.330   3.813
 2393TIP3   OH2 7121   4.916   0.351   1.892
 2393TIP3    H1 7122   4.920   0.398   1.809
 2393TIP3    H2 7123   4.996   0.299   1.895
 2394TIP3   OH2 7124   6.921   0.090   4.556
 2394TIP3    H1 7125   6.943   0.169   4.607
 2394TIP3    H2 7126   6.995   0.078   4.496
 2395TIP3   OH2 7127   5.176   7.192   6.007
 2395TIP3    H1 7128   5.086   7.158   6.005
 2395TIP3    H2 7129   5.224   7.129   6.060
 2396TIP3   OH2 7130   3.878   3.490   3.121
 2396TIP3    H1 7131   3.863   3.527   3.034
 2396TIP3    H2 7132   3.794   3.451   3.145
 2397TIP3   OH2 7133   2.663   7.156   5.755
 2397TIP3    H1 7134   2.675   7.083   5.815
 2397TIP3    H2 7135   2.697   7.124   5.671
 2398TIP3   OH2 7136   4.120   6.381   1.224
 2398TIP3    H1 7137   4.179   6.415   1.158
 2398TIP3    H2 7138   4.079   6.458   1.262
 2399TIP3   OH2 7139   0.355   3.375   2.795
 2399TIP3    H1 7140   0.320   3.427   2.867
 2399TIP3    H2 7141   0.332   3.426   2.716
 2400TIP3   OH2 7142   1.830   3.369   5.564
 2400TIP3    H1 7143   1.900   3.335   5.508
 2400TIP3    H2 7144   1.853   3.461   5.578
 2401TIP3   OH2 7145   0.618   7.356   1.786
 2401TIP3    H1 7146   0.640   7.287   1.724
 2401TIP3    H2 7147   0.609   7.435   1.732
 2402TIP3   OH2 7148   8.273   0.949   3.886
 2402TIP3    H1 7149   8.306   1.038   3.880
 2402TIP3    H2 7150   8.249   0.938   3.978
 2403TIP3   OH2 7151   3.278   3.598   5.675
 2403TIP3    H1 7152   3.238   3.657   5.610
 2403TIP3    H2 7153   3.368   3.629   5.682
 2404TIP3   OH2 7154   6.914   5.971   0.715
 2404TIP3    H1 7155   6.833   5.952   0.763
 2404TIP3    H2 7156   6.907   5.920   0.635
 2405TIP3   OH2 7157   0.208   5.742   0.441
 2405TIP3    H1 7158   0.134   5.684   0.421
 2405TIP3    H2 7159   0.174   5.830   0.423
 2406TIP3   OH2 7160   5.378   3.061   1.561
 2406TIP3    H1 7161   5.421   3.097   1.484
 2406TIP3    H2 7162   5.441   2.999   1.598
 2407TIP3   OH2 7163   2.773   6.658   0.712
 2407TIP3    H1 7164   2.710   6.586   0.715
 2407TIP3    H2 7165   2.764   6.692   0.623
 2408TIP3   OH2 7166   7.791   1.353   1.649
 2408TIP3    H1 7167   7.794   1.446   1.672
 2408TIP3    H2 7168   7.701   1.327   1.669
 2409TIP3   OH2 7169   3.252   7.774   4.627
 2409TIP3    H1 7170   3.346   7.769   4.610
 2409TIP3    H2 7171   3.216   7.698   4.581
 2410TIP3   OH2 7172   8.156   4.158   0.213
 2410TIP3    H1 7173   8.096   4.201   0.273
 2410TIP3    H2 7174   8.168   4.071   0.250
 2411TIP3   OH2 7175   6.000   1.505   2.270
 2411TIP3    H1 7176   5.934   1.470   2.210
 2411TIP3    H2 7177   5.950   1.551   2.337
 2412TIP3   OH2 7178   0.970   3.660   5.456
 2412TIP3    H1 7179   0.997   3.702   5.374
 2412TIP3    H2 7180   0.981   3.727   5.522
 2413TIP3   OH2 7181   7.965   3.881   1.673
 2413TIP3    H1 7182   7.990   3.956   1.728
 2413TIP3    H2 7183   8.003   3.805   1.717
 2414TIP3   OH2 7184   7.558   2.973   5.842
 2414TIP3    H1 7185   7.604   2.889   5.846
 2414TIP3    H2 7186   7.608   3.025   5.779
 2415TIP3   OH2 7187   0.107   4.307   4.179
 2415TIP3    H1 7188   0.042   4.339   4.241
 2415TIP3    H2 7189   0.186   4.294   4.231
 2416TIP3   OH2 7190   2.533   6.524   0.675
 2416TIP3    H1 7191   2.537   6.440   0.628
 2416TIP3    H2 7192   2.534   6.590   0.606
 2417TIP3   OH2 7193   4.914   0.774   0.012
 2417TIP3    H1 7194   4.917   0.745   0.103
 2417TIP3    H2 7195   4.960   0.707  -0.037
 2418TIP3   OH2 7196   6.237   6.372   0.243
 2418TIP3    H1 7197   6.293   6.414   0.308
 2418TIP3    H2 7198   6.289   6.297   0.211
 2419TIP3   OH2 7199   6.089   7.711   3.053
 2419TIP3    H1 7200   6.031   7.785   3.070
 2419TIP3    H2 7201   6.104   7.672   3.139
 2420TIP3   OH2 7202   6.135   0.503   1.307
 2420TIP3    H1 7203   6.118   0.562   1.380
 2420TIP3    H2 7204   6.229   0.486   1.310
 2421TIP3   OH2 7205   0.999   1.145   5.832
 2421TIP3    H1 7206   1.001   1.070   5.892
 2421TIP3    H2 7207   0.977   1.219   5.887
 2422TIP3   OH2 7208   3.680   6.649   0.026
 2422TIP3    H1 7209   3.767   6.621   0.001
 2422TIP3    H2 7210   3.691   6.740   0.053
 2423TIP3   OH2 7211   1.805   0.631   2.234
 2423TIP3    H1 7212   1.738   0.564   2.220
 2423TIP3    H2 7213   1.762   0.713   2.209
 2424TIP3   OH2 7214   4.997   1.567   2.361
 2424TIP3    H1 7215   4.962   1.612   2.284
 2424TIP3    H2 7216   4.929   1.577   2.427
 2425TIP3   OH2 7217   5.663   0.095   4.563
 2425TIP3    H1 7218   5.581   0.138   4.540
 2425TIP3    H2 7219   5.731   0.148   4.521
 2426TIP3   OH2 7220   7.335   1.576   6.297
 2426TIP3    H1 7221   7.351   1.500   6.241
 2426TIP3    H2 7222   7.240   1.575   6.313
 2427TIP3   OH2 7223   7.676   0.790   0.875
 2427TIP3    H1 7224   7.740   0.731   0.836
 2427TIP3    H2 7225   7.591   0.748   0.859
 2428TIP3   OH2 7226   1.425   0.196   2.570
 2428TIP3    H1 7227   1.447   0.265   2.508
 2428TIP3    H2 7228   1.471   0.119   2.537
 2429TIP3   OH2 7229   7.203   1.282   6.551
 2429TIP3    H1 7230   7.159   1.251   6.472
 2429TIP3    H2 7231   7.287   1.316   6.519
 2430TIP3   OH2 7232   6.998   5.031   3.008
 2430TIP3    H1 7233   7.051   5.042   2.929
 2430TIP3    H2 7234   6.923   5.088   2.993
 2431TIP3   OH2 7235   4.540   6.944   5.260
 2431TIP3    H1 7236   4.580   6.962   5.345
 2431TIP3    H2 7237   4.594   6.875   5.222
 2432TIP3   OH2 7238   2.289   1.635   3.838
 2432TIP3    H1 7239   2.336   1.584   3.772
 2432TIP3    H2 7240   2.335   1.617   3.920
 2433TIP3   OH2 7241   1.805   0.081   4.073
 2433TIP3    H1 7242   1.814   0.010   4.010
 2433TIP3    H2 7243   1.892   0.090   4.112
 2434TIP3   OH2 7244   7.393   1.528   1.002
 2434TIP3    H1 7245   7.389   1.618   1.035
 2434TIP3    H2 7246   7.307   1.512   0.964
 2435TIP3   OH2 7247   1.168   7.396   0.050
 2435TIP3    H1 7248   1.257   7.431   0.045
 2435TIP3    H2 7249   1.158   7.368   0.140
 2436TIP3   OH2 7250   0.955   7.044   0.240
 2436TIP3    H1 7251   0.986   6.982   0.175
 2436TIP3    H2 7252   0.934   7.123   0.190
 2437TIP3   OH2 7253   1.681   3.136   6.448
 2437TIP3    H1 7254   1.601   3.135   6.397
 2437TIP3    H2 7255   1.747   3.174   6.390
 2438TIP3   OH2 7256   4.289   3.358   1.806
 2438TIP3    H1 7257   4.301   3.298   1.880
 2438TIP3    H2 7258   4.351   3.429   1.821
 2439TIP3   OH2 7259   0.686   6.361   2.280
 2439TIP3    H1 7260   0.642   6.446   2.285
 2439TIP3    H2 7261   0.646   6.309   2.350
 2440TIP3   OH2 7262   0.702   6.867   1.878
 2440TIP3    H1 7263   0.738   6.932   1.937
 2440TIP3    H2 7264   0.610   6.859   1.904
 2441TIP3   OH2 7265   5.224   2.126   4.082
 2441TIP3    H1 7266   5.297   2.070   4.107
 2441TIP3    H2 7267   5.229   2.200   4.143
 2442TIP3   OH2 7268   1.575   6.075   3.399
 2442TIP3    H1 7269   1.667   6.071   3.371
 2442TIP3    H2 7270   1.550   6.166   3.386
 2443TIP3   OH2 7271   4.946   6.109   3.314
 2443TIP3    H1 7272   5.030   6.152   3.299
 2443TIP3    H2 7273   4.941   6.041   3.247
 2444TIP3   OH2 7274   7.730   2.912   4.438
 2444TIP3    H1 7275   7.798   2.921   4.371
 2444TIP3    H2 7276   7.754   2.976   4.505
 2445TIP3   OH2 7277   5.802   6.790   3.339
 2445TIP3    H1 7278   5.857   6.726   3.383
 2445TIP3    H2 7279   5.852   6.816   3.262
 2446TIP3   OH2 7280   7.326   1.831   6.688
 2446TIP3    H1 7281   7.330   1.896   6.758
 2446TIP3    H2 7282   7.292   1.752   6.731
 2447TIP3   OH2 7283   4.051   0.955   1.121
 2447TIP3    H1 7284   3.973   1.001   1.090
 2447TIP3    H2 7285   4.083   0.907   1.044
 2448TIP3   OH2 7286   6.372   6.881   1.419
 2448TIP3    H1 7287   6.344   6.807   1.473
 2448TIP3    H2 7288   6.346   6.958   1.470
 2449TIP3   OH2 7289   1.209   4.445   1.090
 2449TIP3    H1 7290   1.302   4.460   1.070
 2449TIP3    H2 7291   1.178   4.527   1.127
 2450TIP3   OH2 7292   7.578   5.997   1.999
 2450TIP3    H1 7293   7.573   5.915   1.950
 2450TIP3    H2 7294   7.620   5.974   2.081
 2451TIP3   OH2 7295   4.883   4.499   0.219
 2451TIP3    H1 7296   4.926   4.432   0.273
 2451TIP3    H2 7297   4.907   4.582   0.259
 2452TIP3   OH2 7298   3.884   4.916   3.074
 2452TIP3    H1 7299   3.802   4.881   3.111
 2452TIP3    H2 7300   3.889   4.877   2.987
 2453TIP3   OH2 7301   4.356   0.143   2.052
 2453TIP3    H1 7302   4.424   0.156   2.118
 2453TIP3    H2 7303   4.274   0.156   2.099
 2454TIP3   OH2 7304   4.489   1.774   0.900
 2454TIP3    H1 7305   4.457   1.811   0.983
 2454TIP3    H2 7306   4.568   1.727   0.925
 2455TIP3   OH2 7307   7.776   0.491   1.514
 2455TIP3    H1 7308   7.725   0.534   1.446
 2455TIP3    H2 7309   7.752   0.536   1.595
 2456TIP3   OH2 7310   4.627   2.216   1.908
 2456TIP3    H1 7311   4.669   2.165   1.977
 2456TIP3    H2 7312   4.624   2.305   1.944
 2457TIP3   OH2 7313   8.231   0.651   4.228
 2457TIP3    H1 7314   8.245   0.596   4.151
 2457TIP3    H2 7315   8.139   0.636   4.251
 2458TIP3   OH2 7316   5.610   6.792   1.435
 2458TIP3    H1 7317   5.543   6.852   1.466
 2458TIP3    H2 7318   5.659   6.767   1.513
 2459TIP3   OH2 7319   6.313   6.618   4.233
 2459TIP3    H1 7320   6.310   6.710   4.208
 2459TIP3    H2 7321   6.254   6.574   4.171
 2460TIP3   OH2 7322   1.892   7.717   3.579
 2460TIP3    H1 7323   1.962   7.657   3.602
 2460TIP3    H2 7324   1.926   7.804   3.603
 2461TIP3   OH2 7325   2.029   7.626   3.209
 2461TIP3    H1 7326   1.954   7.568   3.207
 2461TIP3    H2 7327   1.998   7.709   3.173
 2462TIP3   OH2 7328   1.013   7.823   0.251
 2462TIP3    H1 7329   1.063   7.814   0.333
 2462TIP3    H2 7330   1.059   7.767   0.189
 2463TIP3   OH2 7331   7.600   5.540   3.426
 2463TIP3    H1 7332   7.513   5.555   3.463
 2463TIP3    H2 7333   7.593   5.568   3.335
 2464TIP3   OH2 7334   5.101   6.115   0.303
 2464TIP3    H1 7335   5.006   6.106   0.306
 2464TIP3    H2 7336   5.133   6.027   0.286
 2465TIP3   OH2 7337   1.855   7.153   6.473
 2465TIP3    H1 7338   1.910   7.172   6.396
 2465TIP3    H2 7339   1.889   7.069   6.505
 2466TIP3   OH2 7340   3.513   1.060   4.747
 2466TIP3    H1 7341   3.583   0.995   4.751
 2466TIP3    H2 7342   3.545   1.126   4.685
 2467TIP3   OH2 7343   3.529   6.871   1.311
 2467TIP3    H1 7344   3.473   6.949   1.319
 2467TIP3    H2 7345   3.492   6.823   1.237
 2468TIP3   OH2 7346   7.503   1.738   5.358
 2468TIP3    H1 7347   7.564   1.765   5.289
 2468TIP3    H2 7348   7.479   1.819   5.402
 2469TIP3   OH2 7349   4.730   3.049   3.103
 2469TIP3    H1 7350   4.745   3.070   3.196
 2469TIP3    H2 7351   4.806   3.084   3.058
 2470TIP3   OH2 7352   7.153   3.313   2.904
 2470TIP3    H1 7353   7.090   3.320   2.832
 2470TIP3    H2 7354   7.114   3.248   2.963
 2471TIP3   OH2 7355   5.454   3.196   1.322
 2471TIP3    H1 7356   5.511   3.155   1.257
 2471TIP3    H2 7357   5.495   3.280   1.341
 2472TIP3   OH2 7358   7.669   5.168   2.547
 2472TIP3    H1 7359   7.676   5.227   2.472
 2472TIP3    H2 7360   7.721   5.210   2.615
 2473TIP3   OH2 7361   5.662   5.426   0.832
 2473TIP3    H1 7362   5.679   5.492   0.900
 2473TIP3    H2 7363   5.567   5.421   0.826
 2474TIP3   OH2 7364   7.311   6.261   2.309
 2474TIP3    H1 7365   7.393   6.282   2.354
 2474TIP3    H2 7366   7.337   6.214   2.231
 2475TIP3   OH2 7367   0.492   2.108   1.305
 2475TIP3    H1 7368   0.450   2.100   1.219
 2475TIP3    H2 7369   0.577   2.066   1.293
 2476TIP3   OH2 7370   4.271   0.489   6.349
 2476TIP3    H1 7371   4.210   0.557   6.377
 2476TIP3    H2 7372   4.285   0.506   6.256
 2477TIP3   OH2 7373   2.059   1.920  -0.022
 2477TIP3    H1 7374   1.986   1.875   0.020
 2477TIP3    H2 7375   2.104   1.966   0.049
 2478TIP3   OH2 7376   5.823   2.801   1.784
 2478TIP3    H1 7377   5.864   2.831   1.865
 2478TIP3    H2 7378   5.880   2.835   1.715
 2479TIP3   OH2 7379   5.757   3.702   0.797
 2479TIP3    H1 7380   5.746   3.673   0.707
 2479TIP3    H2 7381   5.808   3.782   0.791
 2480TIP3   OH2 7382   4.202   3.567   1.474
 2480TIP3    H1 7383   4.199   3.506   1.401
 2480TIP3    H2 7384   4.153   3.643   1.443
 2481TIP3   OH2 7385   3.723   7.641   5.575
 2481TIP3    H1 7386   3.636   7.602   5.561
 2481TIP3    H2 7387   3.774   7.612   5.500
 2482TIP3   OH2 7388   5.953   4.819   5.872
 2482TIP3    H1 7389   5.989   4.739   5.833
 2482TIP3    H2 7390   5.954   4.802   5.966
 2483TIP3   OH2 7391   5.074   3.490   0.085
 2483TIP3    H1 7392   5.151   3.531   0.124
 2483TIP3    H2 7393   5.031   3.560   0.036
 2484TIP3   OH2 7394   7.561   6.388   0.080
 2484TIP3    H1 7395   7.557   6.302   0.122
 2484TIP3    H2 7396   7.636   6.383   0.021
 2485TIP3   OH2 7397   6.719   4.670   4.232
 2485TIP3    H1 7398   6.768   4.715   4.300
 2485TIP3    H2 7399   6.786   4.644   4.168
 2486TIP3   OH2 7400   3.506   1.689   4.509
 2486TIP3    H1 7401   3.514   1.773   4.555
 2486TIP3    H2 7402   3.485   1.713   4.419
 2487TIP3   OH2 7403   3.853   1.356   6.763
 2487TIP3    H1 7404   3.770   1.327   6.799
 2487TIP3    H2 7405   3.835   1.376   6.671
 2488TIP3   OH2 7406   0.096   2.594   0.546
 2488TIP3    H1 7407   0.080   2.606   0.452
 2488TIP3    H2 7408   0.182   2.550   0.550
 2489TIP3   OH2 7409   3.989   1.933   3.603
 2489TIP3    H1 7410   4.026   1.897   3.684
 2489TIP3    H2 7411   3.975   1.857   3.547
 2490TIP3   OH2 7412   5.146   6.226   6.136
 2490TIP3    H1 7413   5.057   6.192   6.146
 2490TIP3    H2 7414   5.162   6.222   6.041
 2491TIP3   OH2 7415   4.215   6.877   5.689
 2491TIP3    H1 7416   4.285   6.835   5.739
 2491TIP3    H2 7417   4.225   6.843   5.601
 2492TIP3   OH2 7418   5.853   4.011   3.031
 2492TIP3    H1 7419   5.907   3.933   3.014
 2492TIP3    H2 7420   5.778   3.978   3.079
 2493TIP3   OH2 7421   3.065   6.194   2.579
 2493TIP3    H1 7422   3.012   6.143   2.641
 2493TIP3    H2 7423   3.104   6.128   2.522
 2494TIP3   OH2 7424   4.243   5.757   5.444
 2494TIP3    H1 7425   4.321   5.739   5.392
 2494TIP3    H2 7426   4.248   5.695   5.517
 2495TIP3   OH2 7427   2.244   6.727   5.152
 2495TIP3    H1 7428   2.203   6.641   5.164
 2495TIP3    H2 7429   2.326   6.708   5.108
 2496TIP3   OH2 7430   1.062   7.800   5.852
 2496TIP3    H1 7431   1.139   7.836   5.807
 2496TIP3    H2 7432   1.056   7.850   5.933
 2497TIP3   OH2 7433   7.362   1.997   5.138
 2497TIP3    H1 7434   7.309   1.962   5.067
 2497TIP3    H2 7435   7.326   1.957   5.217
 2498TIP3   OH2 7436   6.415   5.129   1.080
 2498TIP3    H1 7437   6.395   5.041   1.111
 2498TIP3    H2 7438   6.355   5.186   1.128
 2499TIP3   OH2 7439   4.587   6.356   0.739
 2499TIP3    H1 7440   4.563   6.369   0.647
 2499TIP3    H2 7441   4.578   6.443   0.778
 2500TIP3   OH2 7442   7.792   1.640   5.841
 2500TIP3    H1 7443   7.852   1.567   5.857
 2500TIP3    H2 7444   7.777   1.679   5.927
 2501TIP3   OH2 7445   6.024   0.649   2.122
 2501TIP3    H1 7446   6.104   0.679   2.077
 2501TIP3    H2 7447   6.050   0.566   2.162
 2502TIP3   OH2 7448   3.318   2.940   0.429
 2502TIP3    H1 7449   3.334   2.953   0.336
 2502TIP3    H2 7450   3.391   2.885   0.458
 2503TIP3   OH2 7451   5.191   1.483   5.271
 2503TIP3    H1 7452   5.273   1.517   5.237
 2503TIP3    H2 7453   5.143   1.560   5.301
 2504TIP3   OH2 7454   5.598   5.085   1.992
 2504TIP3    H1 7455   5.650   5.044   2.062
 2504TIP3    H2 7456   5.631   5.174   1.987
 2505TIP3   OH2 7457   3.394   0.045   5.494
 2505TIP3    H1 7458   3.417  -0.046   5.512
 2505TIP3    H2 7459   3.300   0.044   5.478
 2506TIP3   OH2 7460   6.713   0.717   3.967
 2506TIP3    H1 7461   6.642   0.661   3.997
 2506TIP3    H2 7462   6.793   0.668   3.986
 2507TIP3   OH2 7463   8.152   1.059   2.679
 2507TIP3    H1 7464   8.145   0.968   2.708
 2507TIP3    H2 7465   8.210   1.056   2.603
 2508TIP3   OH2 7466   5.533   1.126   4.950
 2508TIP3    H1 7467   5.539   1.221   4.944
 2508TIP3    H2 7468   5.593   1.102   5.021
 2509TIP3   OH2 7469   7.704   2.694   3.809
 2509TIP3    H1 7470   7.668   2.677   3.721
 2509TIP3    H2 7471   7.645   2.647   3.868
 2510TIP3   OH2 7472   6.391   6.590   0.707
 2510TIP3    H1 7473   6.296   6.583   0.717
 2510TIP3    H2 7474   6.421   6.630   0.788
 2511TIP3   OH2 7475   7.012   0.695   4.886
 2511TIP3    H1 7476   7.096   0.684   4.842
 2511TIP3    H2 7477   6.994   0.609   4.925
 2512TIP3   OH2 7478   4.304   5.141   4.109
 2512TIP3    H1 7479   4.248   5.066   4.091
 2512TIP3    H2 7480   4.249   5.217   4.091
 2513TIP3   OH2 7481   0.936   4.207   5.068
 2513TIP3    H1 7482   0.988   4.252   5.001
 2513TIP3    H2 7483   0.959   4.250   5.150
 2514TIP3   OH2 7484   5.546   4.581   4.131
 2514TIP3    H1 7485   5.513   4.671   4.122
 2514TIP3    H2 7486   5.550   4.566   4.225
 2515TIP3   OH2 7487   6.879   2.209   3.810
 2515TIP3    H1 7488   6.969   2.213   3.779
 2515TIP3    H2 7489   6.853   2.301   3.821
 2516TIP3   OH2 7490   7.834   3.496   1.061
 2516TIP3    H1 7491   7.889   3.422   1.036
 2516TIP3    H2 7492   7.785   3.465   1.137
 2517TIP3   OH2 7493   6.249   1.904   2.884
 2517TIP3    H1 7494   6.318   1.959   2.921
 2517TIP3    H2 7495   6.258   1.821   2.930
 2518TIP3   OH2 7496   3.465   0.504   6.754
 2518TIP3    H1 7497   3.467   0.523   6.847
 2518TIP3    H2 7498   3.373   0.515   6.729
 2519TIP3   OH2 7499   6.558   5.595   5.088
 2519TIP3    H1 7500   6.590   5.685   5.085
 2519TIP3    H2 7501   6.479   5.597   5.034
 2520TIP3   OH2 7502   8.091   1.363   1.667
 2520TIP3    H1 7503   8.117   1.278   1.702
 2520TIP3    H2 7504   8.006   1.347   1.626
 2521TIP3   OH2 7505   3.687   4.057   5.309
 2521TIP3    H1 7506   3.639   4.013   5.379
 2521TIP3    H2 7507   3.724   3.986   5.257
 2522TIP3   OH2 7508   3.300   4.942   3.969
 2522TIP3    H1 7509   3.297   4.903   3.882
 2522TIP3    H2 7510   3.375   4.900   4.011
 2523TIP3   OH2 7511   3.977   4.122   5.519
 2523TIP3    H1 7512   4.049   4.067   5.550
 2523TIP3    H2 7513   3.902   4.063   5.514
 2524TIP3   OH2 7514   1.275   2.696   3.999
 2524TIP3    H1 7515   1.322   2.770   3.960
 2524TIP3    H2 7516   1.317   2.618   3.961
 2525TIP3   OH2 7517   8.206   1.911   3.173
 2525TIP3    H1 7518   8.189   1.817   3.184
 2525TIP3    H2 7519   8.243   1.918   3.085
 2526TIP3   OH2 7520   4.034   5.751   0.143
 2526TIP3    H1 7521   4.077   5.769   0.059
 2526TIP3    H2 7522   4.106   5.735   0.204
 2527TIP3   OH2 7523   4.093   3.705   0.268
 2527TIP3    H1 7524   4.132   3.769   0.208
 2527TIP3    H2 7525   4.017   3.750   0.305
 2528TIP3   OH2 7526   7.263   5.646   5.224
 2528TIP3    H1 7527   7.172   5.649   5.193
 2528TIP3    H2 7528   7.266   5.712   5.293
 2529TIP3   OH2 7529   4.811   2.676   1.007
 2529TIP3    H1 7530   4.761   2.755   1.025
 2529TIP3    H2 7531   4.897   2.693   1.045
 2530TIP3   OH2 7532   1.182   7.485   6.190
 2530TIP3    H1 7533   1.134   7.462   6.269
 2530TIP3    H2 7534   1.150   7.572   6.166
 2531TIP3   OH2 7535   0.883   0.784   2.848
 2531TIP3    H1 7536   0.918   0.695   2.851
 2531TIP3    H2 7537   0.802   0.780   2.898
 2532TIP3   OH2 7538   2.330   0.296   1.209
 2532TIP3    H1 7539   2.361   0.208   1.226
 2532TIP3    H2 7540   2.243   0.300   1.249
 2533TIP3   OH2 7541   3.196   6.490   2.959
 2533TIP3    H1 7542   3.240   6.525   2.881
 2533TIP3    H2 7543   3.263   6.437   3.002
 2534TIP3   OH2 7544   7.501   3.026   3.232
 2534TIP3    H1 7545   7.411   3.051   3.254
 2534TIP3    H2 7546   7.522   3.079   3.155
 2535TIP3   OH2 7547   5.037   3.632   2.627
 2535TIP3    H1 7548   5.088   3.642   2.707
 2535TIP3    H2 7549   5.084   3.565   2.577
 2536TIP3   OH2 7550   3.113   0.511   1.855
 2536TIP3    H1 7551   3.187   0.501   1.914
 2536TIP3    H2 7552   3.152   0.508   1.767
 2537TIP3   OH2 7553   0.487   7.443   0.729
 2537TIP3    H1 7554   0.482   7.406   0.818
 2537TIP3    H2 7555   0.400   7.428   0.692
 2538TIP3   OH2 7556   3.088   3.782   5.486
 2538TIP3    H1 7557   3.138   3.856   5.451
 2538TIP3    H2 7558   3.045   3.817   5.565
 2539TIP3   OH2 7559   4.161   4.931   4.007
 2539TIP3    H1 7560   4.080   4.901   4.047
 2539TIP3    H2 7561   4.135   4.965   3.921
 2540TIP3   OH2 7562   2.068   1.038   6.056
 2540TIP3    H1 7563   1.979   1.019   6.024
 2540TIP3    H2 7564   2.111   0.952   6.057
 2541TIP3   OH2 7565   2.628   6.529   1.200
 2541TIP3    H1 7566   2.704   6.543   1.144
 2541TIP3    H2 7567   2.654   6.565   1.285
 2542TIP3   OH2 7568   6.608   6.630   5.962
 2542TIP3    H1 7569   6.697   6.655   5.989
 2542TIP3    H2 7570   6.615   6.619   5.867
 2543TIP3   OH2 7571   5.136   6.324   3.364
 2543TIP3    H1 7572   5.094   6.343   3.448
 2543TIP3    H2 7573   5.218   6.374   3.365
 2544TIP3   OH2 7574   7.493   6.115   6.527
 2544TIP3    H1 7575   7.575   6.152   6.560
 2544TIP3    H2 7576   7.426   6.173   6.562
 2545TIP3   OH2 7577   1.493   1.993   0.077
 2545TIP3    H1 7578   1.576   2.012   0.120
 2545TIP3    H2 7579   1.450   1.929   0.133
 2546TIP3   OH2 7580   7.677   6.665   3.971
 2546TIP3    H1 7581   7.610   6.710   4.022
 2546TIP3    H2 7582   7.644   6.576   3.961
 2547TIP3   OH2 7583   6.925   1.656   2.348
 2547TIP3    H1 7584   6.955   1.740   2.385
 2547TIP3    H2 7585   6.843   1.638   2.394
 2548TIP3   OH2 7586   8.304   4.217   3.063
 2548TIP3    H1 7587   8.308   4.248   3.153
 2548TIP3    H2 7588   8.269   4.290   3.013
 2549TIP3   OH2 7589   4.387   4.804   5.704
 2549TIP3    H1 7590   4.373   4.867   5.775
 2549TIP3    H2 7591   4.458   4.842   5.652
 2550TIP3   OH2 7592   2.280   2.403   1.248
 2550TIP3    H1 7593   2.309   2.336   1.186
 2550TIP3    H2 7594   2.356   2.460   1.258
 2551TIP3   OH2 7595   7.904   4.854   1.082
 2551TIP3    H1 7596   7.941   4.863   1.170
 2551TIP3    H2 7597   7.946   4.923   1.031
 2552TIP3   OH2 7598   7.355   5.351   3.059
 2552TIP3    H1 7599   7.391   5.431   3.021
 2552TIP3    H2 7600   7.260   5.364   3.060
 2553TIP3   OH2 7601   2.728   1.264   4.487
 2553TIP3    H1 7602   2.818   1.270   4.520
 2553TIP3    H2 7603   2.688   1.196   4.540
 2554TIP3   OH2 7604   4.856   5.701   1.725
 2554TIP3    H1 7605   4.930   5.750   1.690
 2554TIP3    H2 7606   4.895   5.638   1.785
 2555TIP3   OH2 7607   6.046   6.282   1.415
 2555TIP3    H1 7608   6.036   6.264   1.322
 2555TIP3    H2 7609   6.008   6.206   1.459
 2556TIP3   OH2 7610   7.732   6.543   4.401
 2556TIP3    H1 7611   7.720   6.471   4.338
 2556TIP3    H2 7612   7.655   6.598   4.388
 2557TIP3   OH2 7613   0.463   0.924   4.634
 2557TIP3    H1 7614   0.505   0.885   4.711
 2557TIP3    H2 7615   0.519   0.998   4.611
 2558TIP3   OH2 7616   6.239   3.357   1.325
 2558TIP3    H1 7617   6.145   3.375   1.316
 2558TIP3    H2 7618   6.266   3.327   1.239
 2559TIP3   OH2 7619   6.990   7.207   4.339
 2559TIP3    H1 7620   6.966   7.273   4.274
 2559TIP3    H2 7621   6.906   7.172   4.369
 2560TIP3   OH2 7622   3.536   6.726   3.807
 2560TIP3    H1 7623   3.601   6.668   3.769
 2560TIP3    H2 7624   3.508   6.782   3.735
 2561TIP3   OH2 7625   0.989   7.299   5.441
 2561TIP3    H1 7626   0.925   7.232   5.463
 2561TIP3    H2 7627   0.963   7.376   5.492
 2562TIP3   OH2 7628   6.731   4.770   2.509
 2562TIP3    H1 7629   6.644   4.767   2.471
 2562TIP3    H2 7630   6.723   4.829   2.583
 2563TIP3   OH2 7631   1.623   2.174   4.944
 2563TIP3    H1 7632   1.690   2.227   4.987
 2563TIP3    H2 7633   1.655   2.162   4.854
 2564TIP3   OH2 7634   5.263   1.215   2.396
 2564TIP3    H1 7635   5.310   1.295   2.417
 2564TIP3    H2 7636   5.290   1.193   2.307
 2565TIP3   OH2 7637   4.270   3.369   2.296
 2565TIP3    H1 7638   4.181   3.393   2.273
 2565TIP3    H2 7639   4.289   3.418   2.376
 2566TIP3   OH2 7640   1.089   5.453   1.341
 2566TIP3    H1 7641   1.168   5.473   1.392
 2566TIP3    H2 7642   1.109   5.482   1.252
 2567TIP3   OH2 7643   4.644   2.324   3.998
 2567TIP3    H1 7644   4.713   2.379   4.034
 2567TIP3    H2 7645   4.690   2.260   3.944
 2568TIP3   OH2 7646   3.753   7.427   2.349
 2568TIP3    H1 7647   3.676   7.432   2.293
 2568TIP3    H2 7648   3.827   7.427   2.289
 2569TIP3   OH2 7649   0.026   0.793   5.681
 2569TIP3    H1 7650   0.014   0.886   5.700
 2569TIP3    H2 7651  -0.062   0.755   5.686
 2570TIP3   OH2 7652   4.757   4.459   4.949
 2570TIP3    H1 7653   4.784   4.443   5.040
 2570TIP3    H2 7654   4.831   4.427   4.897
 2571TIP3   OH2 7655   2.993   7.104   0.082
 2571TIP3    H1 7656   2.995   7.177   0.144
 2571TIP3    H2 7657   2.902   7.075   0.081
 2572TIP3   OH2 7658   4.442   4.095   1.336
 2572TIP3    H1 7659   4.364   4.059   1.377
 2572TIP3    H2 7660   4.514   4.042   1.370
 2573TIP3   OH2 7661   0.882   0.872   0.146
 2573TIP3    H1 7662   0.850   0.833   0.065
 2573TIP3    H2 7663   0.942   0.807   0.183
 2574TIP3   OH2 7664   3.125   7.323   3.697
 2574TIP3    H1 7665   3.063   7.341   3.627
 2574TIP3    H2 7666   3.078   7.348   3.777
 2575TIP3   OH2 7667   3.291   0.171   3.429
 2575TIP3    H1 7668   3.267   0.145   3.518
 2575TIP3    H2 7669   3.257   0.260   3.421
 2576TIP3   OH2 7670   3.429   5.634   4.841
 2576TIP3    H1 7671   3.424   5.688   4.920
 2576TIP3    H2 7672   3.388   5.687   4.773
 2577TIP3   OH2 7673   7.511   1.466   4.326
 2577TIP3    H1 7674   7.598   1.501   4.344
 2577TIP3    H2 7675   7.502   1.392   4.387
 2578TIP3   OH2 7676   1.821   7.224   4.322
 2578TIP3    H1 7677   1.906   7.253   4.357
 2578TIP3    H2 7678   1.777   7.304   4.295
 2579TIP3   OH2 7679   6.097   5.544   0.831
 2579TIP3    H1 7680   6.186   5.511   0.837
 2579TIP3    H2 7681   6.068   5.549   0.922
 2580TIP3   OH2 7682   1.625   1.139   0.613
 2580TIP3    H1 7683   1.630   1.192   0.533
 2580TIP3    H2 7684   1.625   1.049   0.582
 2581TIP3   OH2 7685   2.420   6.880   2.368
 2581TIP3    H1 7686   2.485   6.823   2.327
 2581TIP3    H2 7687   2.435   6.966   2.328
 2582TIP3   OH2 7688   5.979   2.207   4.369
 2582TIP3    H1 7689   6.069   2.191   4.399
 2582TIP3    H2 7690   5.924   2.167   4.436
 2583TIP3   OH2 7691   5.448   0.229   4.863
 2583TIP3    H1 7692   5.432   0.268   4.777
 2583TIP3    H2 7693   5.396   0.148   4.862
 2584TIP3   OH2 7694   2.705   4.435   5.786
 2584TIP3    H1 7695   2.696   4.342   5.765
 2584TIP3    H2 7696   2.754   4.471   5.712
 2585TIP3   OH2 7697   4.100   5.019   3.736
 2585TIP3    H1 7698   4.152   5.036   3.658
 2585TIP3    H2 7699   4.033   5.087   3.735
 2586TIP3   OH2 7700   1.712   3.575   3.304
 2586TIP3    H1 7701   1.652   3.594   3.376
 2586TIP3    H2 7702   1.750   3.660   3.282
 2587TIP3   OH2 7703   3.774   7.095   1.992
 2587TIP3    H1 7704   3.694   7.148   1.996
 2587TIP3    H2 7705   3.754   7.020   2.048
 2588TIP3   OH2 7706   0.356   5.162   2.085
 2588TIP3    H1 7707   0.333   5.201   2.000
 2588TIP3    H2 7708   0.272   5.139   2.125
 2589TIP3   OH2 7709   3.511   3.036   2.019
 2589TIP3    H1 7710   3.455   2.991   2.082
 2589TIP3    H2 7711   3.564   3.095   2.073
 2590TIP3   OH2 7712   7.912   1.719   4.717
 2590TIP3    H1 7713   7.891   1.783   4.784
 2590TIP3    H2 7714   8.001   1.691   4.737
 2591TIP3   OH2 7715   5.994   3.318   4.667
 2591TIP3    H1 7716   6.089   3.324   4.654
 2591TIP3    H2 7717   5.957   3.377   4.601
 2592TIP3   OH2 7718   6.607   1.680   3.047
 2592TIP3    H1 7719   6.682   1.688   2.990
 2592TIP3    H2 7720   6.531   1.694   2.990
 2593TIP3   OH2 7721   0.449   0.749   1.531
 2593TIP3    H1 7722   0.377   0.766   1.592
 2593TIP3    H2 7723   0.447   0.654   1.517
 2594TIP3   OH2 7724   2.437   5.595   0.802
 2594TIP3    H1 7725   2.381   5.639   0.738
 2594TIP3    H2 7726   2.461   5.663   0.864
 2595TIP3   OH2 7727   4.090   1.353   3.270
 2595TIP3    H1 7728   4.088   1.273   3.218
 2595TIP3    H2 7729   4.045   1.418   3.216
 2596TIP3   OH2 7730   6.633   0.437   5.960
 2596TIP3    H1 7731   6.545   0.470   5.977
 2596TIP3    H2 7732   6.626   0.393   5.875
 2597TIP3   OH2 7733   2.561   2.535   4.102
 2597TIP3    H1 7734   2.616   2.612   4.094
 2597TIP3    H2 7735   2.471   2.569   4.102
 2598TIP3   OH2 7736   5.126   1.623   6.035
 2598TIP3    H1 7737   5.133   1.621   6.131
 2598TIP3    H2 7738   5.079   1.543   6.013
 2599TIP3   OH2 7739   4.714   7.273   5.934
 2599TIP3    H1 7740   4.702   7.356   5.981
 2599TIP3    H2 7741   4.674   7.288   5.848
 2600TIP3   OH2 7742   0.316   3.291   5.867
 2600TIP3    H1 7743   0.400   3.263   5.830
 2600TIP3    H2 7744   0.259   3.301   5.790
 2601TIP3   OH2 7745   7.702   7.191   3.290
 2601TIP3    H1 7746   7.783   7.239   3.270
 2601TIP3    H2 7747   7.691   7.201   3.384
 2602TIP3   OH2 7748   2.426   4.647   0.378
 2602TIP3    H1 7749   2.377   4.651   0.460
 2602TIP3    H2 7750   2.403   4.563   0.339
 2603TIP3   OH2 7751   5.921   6.105   3.427
 2603TIP3    H1 7752   5.948   6.105   3.335
 2603TIP3    H2 7753   5.907   6.013   3.449
 2604TIP3   OH2 7754   7.207   4.336   3.893
 2604TIP3    H1 7755   7.263   4.399   3.940
 2604TIP3    H2 7756   7.192   4.377   3.808
 2605TIP3   OH2 7757   0.264   6.624   0.066
 2605TIP3    H1 7758   0.214   6.688   0.117
 2605TIP3    H2 7759   0.344   6.671   0.042
 2606TIP3   OH2 7760   4.808   1.941   1.452
 2606TIP3    H1 7761   4.744   1.898   1.395
 2606TIP3    H2 7762   4.890   1.938   1.403
 2607TIP3   OH2 7763   2.348   0.132   0.185
 2607TIP3    H1 7764   2.441   0.118   0.168
 2607TIP3    H2 7765   2.344   0.218   0.225
 2608TIP3   OH2 7766   5.225   3.478   2.097
 2608TIP3    H1 7767   5.211   3.472   2.191
 2608TIP3    H2 7768   5.253   3.569   2.083
 2609TIP3   OH2 7769   2.665   5.599   1.437
 2609TIP3    H1 7770   2.642   5.515   1.398
 2609TIP3    H2 7771   2.760   5.604   1.431
 2610TIP3   OH2 7772   7.847   5.833   6.439
 2610TIP3    H1 7773   7.776   5.789   6.485
 2610TIP3    H2 7774   7.905   5.863   6.508
 2611TIP3   OH2 7775   4.368   5.944   5.803
 2611TIP3    H1 7776   4.369   5.923   5.896
 2611TIP3    H2 7777   4.402   5.865   5.760
 2612TIP3   OH2 7778   0.232   3.825   0.123
 2612TIP3    H1 7779   0.172   3.822   0.048
 2612TIP3    H2 7780   0.191   3.768   0.189
 2613TIP3   OH2 7781   3.975   2.753   5.192
 2613TIP3    H1 7782   4.068   2.742   5.170
 2613TIP3    H2 7783   3.935   2.669   5.168
 2614TIP3   OH2 7784   0.843   4.868   1.534
 2614TIP3    H1 7785   0.876   4.957   1.524
 2614TIP3    H2 7786   0.860   4.827   1.449
 2615TIP3   OH2 7787   2.711   0.515   1.666
 2615TIP3    H1 7788   2.687   0.448   1.603
 2615TIP3    H2 7789   2.756   0.582   1.614
 2616TIP3   OH2 7790   7.055   3.679   3.876
 2616TIP3    H1 7791   7.015   3.633   3.949
 2616TIP3    H2 7792   7.128   3.727   3.914
 2617TIP3   OH2 7793   5.370   0.330   6.684
 2617TIP3    H1 7794   5.335   0.286   6.762
 2617TIP3    H2 7795   5.298   0.382   6.651
 2618TIP3   OH2 7796   4.516   3.234   1.470
 2618TIP3    H1 7797   4.544   3.280   1.549
 2618TIP3    H2 7798   4.420   3.237   1.472
 2619TIP3   OH2 7799   2.377   0.940   1.402
 2619TIP3    H1 7800   2.387   0.882   1.327
 2619TIP3    H2 7801   2.458   0.928   1.452
 2620TIP3   OH2 7802   2.373   7.541   4.967
 2620TIP3    H1 7803   2.444   7.546   5.031
 2620TIP3    H2 7804   2.361   7.631   4.937
 2621TIP3   OH2 7805   2.942   6.756   1.597
 2621TIP3    H1 7806   2.928   6.684   1.658
 2621TIP3    H2 7807   2.856   6.795   1.585
 2622TIP3   OH2 7808   8.318   2.639   0.287
 2622TIP3    H1 7809   8.252   2.690   0.240
 2622TIP3    H2 7810   8.309   2.550   0.252
 2623TIP3   OH2 7811   4.837   3.529   3.759
 2623TIP3    H1 7812   4.813   3.483   3.679
 2623TIP3    H2 7813   4.855   3.459   3.822
 2624TIP3   OH2 7814   6.613   0.874   0.119
 2624TIP3    H1 7815   6.631   0.784   0.094
 2624TIP3    H2 7816   6.578   0.867   0.208
 2625TIP3   OH2 7817   2.373   2.696   5.981
 2625TIP3    H1 7818   2.393   2.790   5.980
 2625TIP3    H2 7819   2.403   2.665   5.895
 2626TIP3   OH2 7820   1.175   1.215   2.125
 2626TIP3    H1 7821   1.207   1.199   2.214
 2626TIP3    H2 7822   1.232   1.163   2.069
 2627TIP3   OH2 7823   2.935   3.969   0.742
 2627TIP3    H1 7824   2.883   3.905   0.695
 2627TIP3    H2 7825   2.926   3.944   0.834
 2628TIP3   OH2 7826   5.513   2.269   2.813
 2628TIP3    H1 7827   5.591   2.246   2.763
 2628TIP3    H2 7828   5.537   2.253   2.904
 2629TIP3   OH2 7829   8.037   2.867   2.651
 2629TIP3    H1 7830   7.963   2.806   2.659
 2629TIP3    H2 7831   7.998   2.953   2.665
 2630TIP3   OH2 7832   3.708   7.127   0.875
 2630TIP3    H1 7833   3.629   7.079   0.848
 2630TIP3    H2 7834   3.719   7.105   0.967
 2631TIP3   OH2 7835   3.964   4.016   1.982
 2631TIP3    H1 7836   3.995   3.932   2.015
 2631TIP3    H2 7837   3.929   3.996   1.895
 2632TIP3   OH2 7838   1.147   7.419   6.484
 2632TIP3    H1 7839   1.191   7.349   6.531
 2632TIP3    H2 7840   1.176   7.499   6.528
 2633TIP3   OH2 7841   2.474   6.058   2.915
 2633TIP3    H1 7842   2.412   6.108   2.968
 2633TIP3    H2 7843   2.466   5.968   2.948
 2634TIP3   OH2 7844   5.820   1.579   4.923
 2634TIP3    H1 7845   5.876   1.536   4.858
 2634TIP3    H2 7846   5.873   1.650   4.957
 2635TIP3   OH2 7847   1.085   4.100   0.928
 2635TIP3    H1 7848   1.129   4.049   0.997
 2635TIP3    H2 7849   1.154   4.118   0.865
 2636TIP3   OH2 7850   8.076   1.902   4.180
 2636TIP3    H1 7851   8.068   1.864   4.093
 2636TIP3    H2 7852   8.164   1.938   4.183
 2637TIP3   OH2 7853   3.878   7.002   3.752
 2637TIP3    H1 7854   3.945   7.035   3.693
 2637TIP3    H2 7855   3.893   6.907   3.756
 2638TIP3   OH2 7856   6.738   2.597   3.299
 2638TIP3    H1 7857   6.741   2.510   3.339
 2638TIP3    H2 7858   6.691   2.651   3.362
 2639TIP3   OH2 7859   3.693   0.432   5.547
 2639TIP3    H1 7860   3.616   0.454   5.496
 2639TIP3    H2 7861   3.727   0.352   5.507
 2640TIP3   OH2 7862   5.061   1.917   1.343
 2640TIP3    H1 7863   5.094   1.920   1.254
 2640TIP3    H2 7864   5.095   1.836   1.380
 2641TIP3   OH2 7865   1.763   1.664   3.427
 2641TIP3    H1 7866   1.701   1.684   3.357
 2641TIP3    H2 7867   1.844   1.708   3.401
 2642TIP3   OH2 7868   1.010   7.362   2.589
 2642TIP3    H1 7869   0.987   7.282   2.636
 2642TIP3    H2 7870   0.933   7.381   2.535
 2643TIP3   OH2 7871   0.210   7.106   6.463
 2643TIP3    H1 7872   0.204   7.097   6.368
 2643TIP3    H2 7873   0.229   7.017   6.494
 2644TIP3   OH2 7874   0.868   4.012   0.237
 2644TIP3    H1 7875   0.844   4.027   0.146
 2644TIP3    H2 7876   0.946   4.066   0.251
 2645TIP3   OH2 7877   6.691   5.840   0.218
 2645TIP3    H1 7878   6.662   5.792   0.141
 2645TIP3    H2 7879   6.615   5.891   0.245
 2646TIP3   OH2 7880   1.927   4.753   4.757
 2646TIP3    H1 7881   1.991   4.700   4.806
 2646TIP3    H2 7882   1.883   4.805   4.824
 2647TIP3   OH2 7883   2.983   3.366   6.627
 2647TIP3    H1 7884   2.987   3.421   6.549
 2647TIP3    H2 7885   3.011   3.279   6.597
 2648TIP3   OH2 7886   4.510   0.511   3.189
 2648TIP3    H1 7887   4.508   0.529   3.095
 2648TIP3    H2 7888   4.557   0.428   3.196
 2649TIP3   OH2 7889   6.226   0.691   2.868
 2649TIP3    H1 7890   6.153   0.696   2.806
 2649TIP3    H2 7891   6.223   0.775   2.915
 2650TIP3   OH2 7892   7.804   2.700   4.675
 2650TIP3    H1 7893   7.719   2.672   4.641
 2650TIP3    H2 7894   7.830   2.771   4.617
 2651TIP3   OH2 7895   8.267   1.081   5.054
 2651TIP3    H1 7896   8.344   1.134   5.073
 2651TIP3    H2 7897   8.228   1.122   4.977
 2652TIP3   OH2 7898   0.041   0.145   0.102
 2652TIP3    H1 7899   0.112   0.191   0.058
 2652TIP3    H2 7900   0.031   0.063   0.053
 2653TIP3   OH2 7901   1.470   3.804   4.604
 2653TIP3    H1 7902   1.500   3.714   4.586
 2653TIP3    H2 7903   1.398   3.793   4.665
 2654TIP3   OH2 7904   3.089   2.018   2.262
 2654TIP3    H1 7905   3.007   2.000   2.215
 2654TIP3    H2 7906   3.137   2.077   2.204
 2655TIP3   OH2 7907   2.581   5.976   0.435
 2655TIP3    H1 7908   2.546   6.009   0.353
 2655TIP3    H2 7909   2.660   6.027   0.450
 2656TIP3   OH2 7910   7.375   6.548   4.204
 2656TIP3    H1 7911   7.317   6.572   4.276
 2656TIP3    H2 7912   7.316   6.532   4.130
 2657TIP3   OH2 7913   1.272   6.261   6.321
 2657TIP3    H1 7914   1.220   6.204   6.378
 2657TIP3    H2 7915   1.208   6.319   6.280
 2658TIP3   OH2 7916   7.285   7.656   1.561
 2658TIP3    H1 7917   7.314   7.576   1.605
 2658TIP3    H2 7918   7.332   7.656   1.477
 2659TIP3   OH2 7919   3.446   6.061   4.889
 2659TIP3    H1 7920   3.499   6.028   4.961
 2659TIP3    H2 7921   3.369   6.003   4.886
 2660TIP3   OH2 7922   1.474   1.461   0.345
 2660TIP3    H1 7923   1.468   1.449   0.440
 2660TIP3    H2 7924   1.567   1.474   0.329
 2661TIP3   OH2 7925   0.513   0.159   2.522
 2661TIP3    H1 7926   0.597   0.165   2.477
 2661TIP3    H2 7927   0.536   0.161   2.615
 2662TIP3   OH2 7928   3.200   7.526   5.949
 2662TIP3    H1 7929   3.247   7.605   5.975
 2662TIP3    H2 7930   3.267   7.458   5.945
 2663TIP3   OH2 7931   5.406   5.739   0.104
 2663TIP3    H1 7932   5.350   5.692   0.042
 2663TIP3    H2 7933   5.346   5.789   0.158
 2664TIP3   OH2 7934   7.299   1.386   3.566
 2664TIP3    H1 7935   7.259   1.352   3.646
 2664TIP3    H2 7936   7.318   1.308   3.514
 2665TIP3   OH2 7937   6.856   1.803   5.150
 2665TIP3    H1 7938   6.860   1.742   5.224
 2665TIP3    H2 7939   6.782   1.860   5.170
 2666TIP3   OH2 7940   1.072   6.500   0.158
 2666TIP3    H1 7941   1.153   6.495   0.208
 2666TIP3    H2 7942   1.100   6.506   0.066
 2667TIP3   OH2 7943   7.816   5.168   1.371
 2667TIP3    H1 7944   7.747   5.234   1.379
 2667TIP3    H2 7945   7.803   5.110   1.446
 2668TIP3   OH2 7946   4.001   0.791   3.096
 2668TIP3    H1 7947   4.087   0.758   3.071
 2668TIP3    H2 7948   4.019   0.861   3.158
 2669TIP3   OH2 7949   6.229   5.124   2.318
 2669TIP3    H1 7950   6.159   5.084   2.368
 2669TIP3    H2 7951   6.310   5.084   2.351
 2670TIP3   OH2 7952   1.311   6.863   6.425
 2670TIP3    H1 7953   1.233   6.812   6.401
 2670TIP3    H2 7954   1.382   6.823   6.375
 2671TIP3   OH2 7955   7.852   2.569   0.175
 2671TIP3    H1 7956   7.856   2.477   0.200
 2671TIP3    H2 7957   7.781   2.606   0.227
 2672TIP3   OH2 7958   0.652   0.830   2.605
 2672TIP3    H1 7959   0.646   0.921   2.633
 2672TIP3    H2 7960   0.590   0.783   2.660
 2673TIP3   OH2 7961   4.057   2.881   1.986
 2673TIP3    H1 7962   4.091   2.793   1.973
 2673TIP3    H2 7963   3.964   2.875   1.968
 2674TIP3   OH2 7964   4.659   0.730   4.553
 2674TIP3    H1 7965   4.671   0.684   4.635
 2674TIP3    H2 7966   4.646   0.821   4.578
 2675TIP3   OH2 7967   3.069   7.711   5.028
 2675TIP3    H1 7968   3.042   7.640   4.970
 2675TIP3    H2 7969   2.996   7.772   5.028
 2676TIP3   OH2 7970   1.752   5.859   6.353
 2676TIP3    H1 7971   1.753   5.906   6.437
 2676TIP3    H2 7972   1.815   5.906   6.298
 2677TIP3   OH2 7973   6.386   3.240   2.471
 2677TIP3    H1 7974   6.301   3.199   2.457
 2677TIP3    H2 7975   6.448   3.180   2.428
 2678TIP3   OH2 7976   7.833   6.319   1.706
 2678TIP3    H1 7977   7.756   6.356   1.663
 2678TIP3    H2 7978   7.813   6.225   1.713
 2679TIP3   OH2 7979   7.461   5.574   4.684
 2679TIP3    H1 7980   7.425   5.663   4.683
 2679TIP3    H2 7981   7.513   5.570   4.765
 2680TIP3   OH2 7982   2.946   2.999   0.076
 2680TIP3    H1 7983   2.998   3.055   0.018
 2680TIP3    H2 7984   2.930   3.054   0.153
 2681TIP3   OH2 7985   0.773   6.899   5.106
 2681TIP3    H1 7986   0.782   6.993   5.122
 2681TIP3    H2 7987   0.746   6.863   5.190
 2682TIP3   OH2 7988   3.270   0.330   5.932
 2682TIP3    H1 7989   3.284   0.425   5.929
 2682TIP3    H2 7990   3.324   0.296   5.861
 2683TIP3   OH2 7991   5.656   1.123   1.341
 2683TIP3    H1 7992   5.652   1.097   1.248
 2683TIP3    H2 7993   5.624   1.213   1.342
 2684TIP3   OH2 7994   1.869   0.992   3.784
 2684TIP3    H1 7995   1.887   1.072   3.734
 2684TIP3    H2 7996   1.951   0.974   3.830
 2685TIP3   OH2 7997   0.382   4.269   3.213
 2685TIP3    H1 7998   0.458   4.310   3.254
 2685TIP3    H2 7999   0.326   4.245   3.287
 2686TIP3   OH2 8000   0.974   5.000   6.243
 2686TIP3    H1 8001   1.062   5.037   6.248
 2686TIP3    H2 8002   0.986   4.914   6.203
 2687TIP3   OH2 8003   7.415   2.294   3.488
 2687TIP3    H1 8004   7.433   2.284   3.582
 2687TIP3    H2 8005   7.496   2.265   3.446
 2688TIP3   OH2 8006   7.310   5.109   1.941
 2688TIP3    H1 8007   7.296   5.018   1.968
 2688TIP3    H2 8008   7.400   5.127   1.966
 2689TIP3   OH2 8009   6.119   0.469   5.856
 2689TIP3    H1 8010   6.083   0.554   5.830
 2689TIP3    H2 8011   6.076   0.449   5.939
 2690TIP3   OH2 8012   4.871   2.333   2.079
 2690TIP3    H1 8013   4.820   2.252   2.087
 2690TIP3    H2 8014   4.808   2.403   2.090
 2691TIP3   OH2 8015   3.993   1.109   6.016
 2691TIP3    H1 8016   4.033   1.041   6.071
 2691TIP3    H2 8017   4.065   1.164   5.988
 2692TIP3   OH2 8018   1.930   4.905   0.958
 2692TIP3    H1 8019   1.842   4.929   0.986
 2692TIP3    H2 8020   1.919   4.878   0.866
 2693TIP3   OH2 8021   3.033   0.344   2.040
 2693TIP3    H1 8022   3.077   0.378   2.118
 2693TIP3    H2 8023   3.065   0.399   1.969
 2694TIP3   OH2 8024   3.369   1.551   4.903
 2694TIP3    H1 8025   3.436   1.567   4.836
 2694TIP3    H2 8026   3.419   1.529   4.982
 2695TIP3   OH2 8027   5.263   1.493   1.880
 2695TIP3    H1 8028   5.303   1.431   1.818
 2695TIP3    H2 8029   5.333   1.512   1.942
 2696TIP3   OH2 8030   2.098   6.757   3.696
 2696TIP3    H1 8031   2.140   6.826   3.645
 2696TIP3    H2 8032   2.099   6.789   3.786
 2697TIP3   OH2 8033   3.843   4.922   0.519
 2697TIP3    H1 8034   3.830   4.890   0.608
 2697TIP3    H2 8035   3.936   4.944   0.514
 2698TIP3   OH2 8036   7.676   5.765   2.396
 2698TIP3    H1 8037   7.763   5.726   2.404
 2698TIP3    H2 8038   7.637   5.755   2.483
 2699TIP3   OH2 8039   2.060   7.690   1.958
 2699TIP3    H1 8040   1.979   7.741   1.962
 2699TIP3    H2 8041   2.084   7.690   1.866
 2700TIP3   OH2 8042   1.345   3.759   1.727
 2700TIP3    H1 8043   1.264   3.762   1.676
 2700TIP3    H2 8044   1.372   3.851   1.735
 2701TIP3   OH2 8045   4.632   7.310   4.072
 2701TIP3    H1 8046   4.537   7.304   4.073
 2701TIP3    H2 8047   4.652   7.386   4.126
 2702TIP3   OH2 8048   8.116   5.952   4.776
 2702TIP3    H1 8049   8.152   6.021   4.831
 2702TIP3    H2 8050   8.191   5.921   4.725
 2703TIP3   OH2 8051   1.394   3.522   0.678
 2703TIP3    H1 8052   1.438   3.438   0.671
 2703TIP3    H2 8053   1.456   3.578   0.724
 2704TIP3   OH2 8054   8.054   4.050   5.267
 2704TIP3    H1 8055   8.078   4.143   5.265
 2704TIP3    H2 8056   8.075   4.019   5.179
 2705TIP3   OH2 8057   0.989   4.310   1.619
 2705TIP3    H1 8058   1.066   4.261   1.648
 2705TIP3    H2 8059   0.939   4.248   1.566
 2706TIP3   OH2 8060   1.393   2.984   0.309
 2706TIP3    H1 8061   1.480   3.020   0.291
 2706TIP3    H2 8062   1.374   3.010   0.399
 2707TIP3   OH2 8063   5.944   4.693   4.026
 2707TIP3    H1 8064   5.933   4.688   3.931
 2707TIP3    H2 8065   5.906   4.777   4.050
 2708TIP3   OH2 8066   2.311   5.394   4.875
 2708TIP3    H1 8067   2.238   5.333   4.886
 2708TIP3    H2 8068   2.269   5.480   4.868
 2709TIP3   OH2 8069   3.359   4.848   1.607
 2709TIP3    H1 8070   3.402   4.921   1.564
 2709TIP3    H2 8071   3.310   4.887   1.679
 2710TIP3   OH2 8072   8.338   0.959   1.824
 2710TIP3    H1 8073   8.312   1.017   1.896
 2710TIP3    H2 8074   8.323   0.871   1.857
 2711TIP3   OH2 8075   7.196   5.983   1.730
 2711TIP3    H1 8076   7.213   5.893   1.701
 2711TIP3    H2 8077   7.280   6.028   1.720
 2712TIP3   OH2 8078   0.832   1.673   4.948
 2712TIP3    H1 8079   0.884   1.680   5.028
 2712TIP3    H2 8080   0.772   1.748   4.952
 2713TIP3   OH2 8081   3.435   4.383   1.428
 2713TIP3    H1 8082   3.433   4.465   1.477
 2713TIP3    H2 8083   3.439   4.410   1.336
 2714TIP3   OH2 8084   2.779   6.610   5.561
 2714TIP3    H1 8085   2.759   6.653   5.478
 2714TIP3    H2 8086   2.709   6.547   5.573
 2715TIP3   OH2 8087   1.724   6.292   0.705
 2715TIP3    H1 8088   1.697   6.212   0.660
 2715TIP3    H2 8089   1.670   6.295   0.784
 2716TIP3   OH2 8090   0.100   1.771   6.137
 2716TIP3    H1 8091   0.158   1.834   6.095
 2716TIP3    H2 8092   0.097   1.798   6.228
 2717TIP3   OH2 8093   2.538   7.576   4.344
 2717TIP3    H1 8094   2.443   7.565   4.348
 2717TIP3    H2 8095   2.570   7.492   4.313
 2718TIP3   OH2 8096   0.167   0.982   0.502
 2718TIP3    H1 8097   0.199   1.004   0.589
 2718TIP3    H2 8098   0.205   0.896   0.482
 2719TIP3   OH2 8099   8.144   6.118   2.013
 2719TIP3    H1 8100   8.140   6.022   2.006
 2719TIP3    H2 8101   8.053   6.144   2.028
 2720TIP3   OH2 8102   2.176   6.854   0.904
 2720TIP3    H1 8103   2.166   6.852   0.999
 2720TIP3    H2 8104   2.245   6.790   0.885
 2721TIP3   OH2 8105   2.398   3.303   4.171
 2721TIP3    H1 8106   2.356   3.217   4.161
 2721TIP3    H2 8107   2.456   3.292   4.246
 2722TIP3   OH2 8108   5.219   0.247   0.348
 2722TIP3    H1 8109   5.296   0.218   0.299
 2722TIP3    H2 8110   5.148   0.191   0.316
 2723TIP3   OH2 8111   7.357   3.552   2.590
 2723TIP3    H1 8112   7.287   3.604   2.629
 2723TIP3    H2 8113   7.320   3.521   2.507
 2724TIP3   OH2 8114   5.361   2.724   5.605
 2724TIP3    H1 8115   5.280   2.687   5.639
 2724TIP3    H2 8116   5.349   2.819   5.611
 2725TIP3   OH2 8117  -0.010   6.136   1.319
 2725TIP3    H1 8118  -0.011   6.114   1.226
 2725TIP3    H2 8119  -0.102   6.129   1.346
 2726TIP3   OH2 8120   5.833   7.711   1.984
 2726TIP3    H1 8121   5.888   7.776   2.029
 2726TIP3    H2 8122   5.785   7.668   2.054
 2727TIP3   OH2 8123   4.054   7.128   3.584
 2727TIP3    H1 8124   3.984   7.192   3.569
 2727TIP3    H2 8125   4.132   7.181   3.603
 2728TIP3   OH2 8126   7.231   1.571   0.119
 2728TIP3    H1 8127   7.240   1.498   0.057
 2728TIP3    H2 8128   7.147   1.611   0.097
 2729TIP3   OH2 8129   3.219   3.377   1.843
 2729TIP3    H1 8130   3.236   3.471   1.846
 2729TIP3    H2 8131   3.138   3.369   1.791
 2730TIP3   OH2 8132   7.671   0.860   3.931
 2730TIP3    H1 8133   7.599   0.868   3.869
 2730TIP3    H2 8134   7.646   0.918   4.004
 2731TIP3   OH2 8135   5.910   5.708   2.230
 2731TIP3    H1 8136   5.939   5.798   2.216
 2731TIP3    H2 8137   5.823   5.717   2.270
 2732TIP3   OH2 8138   0.662   4.435   0.199
 2732TIP3    H1 8139   0.746   4.467   0.232
 2732TIP3    H2 8140   0.626   4.384   0.272
 2733TIP3   OH2 8141   6.371   5.320   4.189
 2733TIP3    H1 8142   6.438   5.341   4.255
 2733TIP3    H2 8143   6.312   5.259   4.235
 2734TIP3   OH2 8144   4.875   3.024   1.530
 2734TIP3    H1 8145   4.922   3.105   1.514
 2734TIP3    H2 8146   4.923   2.958   1.480
 2735TIP3   OH2 8147   7.291   0.625   4.810
 2735TIP3    H1 8148   7.329   0.696   4.860
 2735TIP3    H2 8149   7.366   0.572   4.783
 2736TIP3   OH2 8150   1.829   6.645   6.773
 2736TIP3    H1 8151   1.751   6.699   6.783
 2736TIP3    H2 8152   1.840   6.635   6.678
 2737TIP3   OH2 8153   4.090   6.250   2.264
 2737TIP3    H1 8154   4.058   6.323   2.211
 2737TIP3    H2 8155   4.185   6.266   2.272
 2738TIP3   OH2 8156   7.494   1.930   4.292
 2738TIP3    H1 8157   7.488   2.024   4.278
 2738TIP3    H2 8158   7.521   1.894   4.207
 2739TIP3   OH2 8159   6.220   7.367   2.007
 2739TIP3    H1 8160   6.162   7.415   2.066
 2739TIP3    H2 8161   6.308   7.380   2.044
 2740TIP3   OH2 8162   5.438   1.149   4.560
 2740TIP3    H1 8163   5.407   1.066   4.597
 2740TIP3    H2 8164   5.411   1.215   4.624
 2741TIP3   OH2 8165   0.192   5.784   0.702
 2741TIP3    H1 8166   0.147   5.711   0.744
 2741TIP3    H2 8167   0.237   5.746   0.627
 2742TIP3   OH2 8168   5.685   1.919   6.402
 2742TIP3    H1 8169   5.649   1.910   6.491
 2742TIP3    H2 8170   5.666   2.010   6.378
 2743TIP3   OH2 8171   0.496   3.372   4.718
 2743TIP3    H1 8172   0.547   3.331   4.647
 2743TIP3    H2 8173   0.543   3.347   4.798
 2744TIP3   OH2 8174   4.932   1.386   2.652
 2744TIP3    H1 8175   4.962   1.467   2.610
 2744TIP3    H2 8176   4.837   1.392   2.649
 2745TIP3   OH2 8177   4.978   7.235   5.781
 2745TIP3    H1 8178   4.954   7.151   5.821
 2745TIP3    H2 8179   5.072   7.229   5.767
 2746TIP3   OH2 8180   6.777   4.179   1.895
 2746TIP3    H1 8181   6.761   4.230   1.974
 2746TIP3    H2 8182   6.870   4.189   1.879
 2747TIP3   OH2 8183   6.703   5.117   1.100
 2747TIP3    H1 8184   6.610   5.101   1.116
 2747TIP3    H2 8185   6.719   5.204   1.138
 2748TIP3   OH2 8186   6.063   0.946   2.530
 2748TIP3    H1 8187   6.056   1.010   2.601
 2748TIP3    H2 8188   6.047   0.862   2.572
 2749TIP3   OH2 8189   3.105   0.269   6.261
 2749TIP3    H1 8190   3.159   0.317   6.198
 2749TIP3    H2 8191   3.168   0.231   6.322
 2750TIP3   OH2 8192   6.868   0.526   4.333
 2750TIP3    H1 8193   6.867   0.540   4.238
 2750TIP3    H2 8194   6.870   0.614   4.371
 2751TIP3   OH2 8195   3.771   4.984   2.785
 2751TIP3    H1 8196   3.739   5.031   2.862
 2751TIP3    H2 8197   3.709   5.009   2.715
 2752TIP3   OH2 8198   0.306   6.468   5.539
 2752TIP3    H1 8199   0.231   6.461   5.480
 2752TIP3    H2 8200   0.277   6.528   5.608
 2753TIP3   OH2 8201   6.612   1.061   2.989
 2753TIP3    H1 8202   6.697   1.091   3.022
 2753TIP3    H2 8203   6.631   0.977   2.947
 2754TIP3   OH2 8204   3.568   4.199   2.673
 2754TIP3    H1 8205   3.504   4.165   2.610
 2754TIP3    H2 8206   3.651   4.161   2.645
 2755TIP3   OH2 8207   6.406   6.824   3.630
 2755TIP3    H1 8208   6.434   6.817   3.721
 2755TIP3    H2 8209   6.448   6.904   3.598
 2756TIP3   OH2 8210   2.865   5.931   0.358
 2756TIP3    H1 8211   2.848   5.895   0.271
 2756TIP3    H2 8212   2.870   6.026   0.344
 2757TIP3   OH2 8213   3.078   5.992   0.647
 2757TIP3    H1 8214   3.049   6.079   0.618
 2757TIP3    H2 8215   3.152   5.971   0.590
 2758TIP3   OH2 8216   8.273   2.612   1.286
 2758TIP3    H1 8217   8.205   2.630   1.352
 2758TIP3    H2 8218   8.281   2.516   1.286
 2759TIP3   OH2 8219   6.525   1.154   3.735
 2759TIP3    H1 8220   6.511   1.084   3.672
 2759TIP3    H2 8221   6.461   1.138   3.805
 2760TIP3   OH2 8222   1.684   5.948   1.513
 2760TIP3    H1 8223   1.719   5.948   1.424
 2760TIP3    H2 8224   1.690   5.856   1.541
 2761TIP3   OH2 8225   4.342   0.988   3.122
 2761TIP3    H1 8226   4.350   1.078   3.092
 2761TIP3    H2 8227   4.290   0.945   3.054
 2762TIP3   OH2 8228   6.497   2.763   2.660
 2762TIP3    H1 8229   6.494   2.738   2.568
 2762TIP3    H2 8230   6.405   2.767   2.687
 2763TIP3   OH2 8231   6.322   1.667   4.545
 2763TIP3    H1 8232   6.292   1.757   4.555
 2763TIP3    H2 8233   6.280   1.636   4.464
 2764TIP3   OH2 8234   0.594   1.893   0.692
 2764TIP3    H1 8235   0.632   1.834   0.627
 2764TIP3    H2 8236   0.552   1.835   0.756
 2765TIP3   OH2 8237   0.390   5.831   1.079
 2765TIP3    H1 8238   0.435   5.838   0.995
 2765TIP3    H2 8239   0.374   5.922   1.105
 2766TIP3   OH2 8240   0.382   1.406   6.425
 2766TIP3    H1 8241   0.375   1.342   6.496
 2766TIP3    H2 8242   0.370   1.355   6.345
 2767TIP3   OH2 8243   2.555   7.462   2.160
 2767TIP3    H1 8244   2.554   7.433   2.069
 2767TIP3    H2 8245   2.539   7.382   2.210
 2768TIP3   OH2 8246   2.774   3.183   5.967
 2768TIP3    H1 8247   2.822   3.243   5.910
 2768TIP3    H2 8248   2.774   3.100   5.920
 2769TIP3   OH2 8249   3.463   1.553   0.975
 2769TIP3    H1 8250   3.416   1.535   0.894
 2769TIP3    H2 8251   3.397   1.591   1.033
 2770TIP3   OH2 8252   7.683   7.795   6.559
 2770TIP3    H1 8253   7.748   7.863   6.542
 2770TIP3    H2 8254   7.612   7.814   6.498
 2771TIP3   OH2 8255   7.074   5.673   3.500
 2771TIP3    H1 8256   7.057   5.588   3.460
 2771TIP3    H2 8257   7.083   5.734   3.426
 2772TIP3   OH2 8258   7.790   6.031   1.660
 2772TIP3    H1 8259   7.753   5.968   1.599
 2772TIP3    H2 8260   7.814   5.978   1.737
 2773TIP3   OH2 8261   7.832   2.627   5.516
 2773TIP3    H1 8262   7.794   2.571   5.583
 2773TIP3    H2 8263   7.798   2.714   5.535
 2774TIP3   OH2 8264   6.862   2.739   2.588
 2774TIP3    H1 8265   6.835   2.709   2.675
 2774TIP3    H2 8266   6.956   2.758   2.598
 2775TIP3   OH2 8267   2.127   0.179   2.161
 2775TIP3    H1 8268   2.155   0.236   2.090
 2775TIP3    H2 8269   2.035   0.200   2.175
 2776TIP3   OH2 8270   6.444   6.359   1.099
 2776TIP3    H1 8271   6.375   6.304   1.136
 2776TIP3    H2 8272   6.525   6.314   1.122
 2777TIP3   OH2 8273   4.614   3.681  -0.005
 2777TIP3    H1 8274   4.587   3.637   0.076
 2777TIP3    H2 8275   4.665   3.757   0.025
 2778TIP3   OH2 8276   1.341   1.930   5.010
 2778TIP3    H1 8277   1.310   1.913   5.099
 2778TIP3    H2 8278   1.349   2.025   5.005
 2779TIP3   OH2 8279   5.852   7.319   1.989
 2779TIP3    H1 8280   5.816   7.232   2.007
 2779TIP3    H2 8281   5.921   7.303   1.924
 2780TIP3   OH2 8282   0.051   0.957   1.374
 2780TIP3    H1 8283  -0.036   0.955   1.415
 2780TIP3    H2 8284   0.040   0.909   1.292
 2781TIP3   OH2 8285   3.273   4.444   5.437
 2781TIP3    H1 8286   3.268   4.537   5.415
 2781TIP3    H2 8287   3.301   4.442   5.529
 2782TIP3   OH2 8288   6.247   3.692   3.983
 2782TIP3    H1 8289   6.250   3.605   3.944
 2782TIP3    H2 8290   6.214   3.749   3.914
 2783TIP3   OH2 8291   7.307   3.256   5.296
 2783TIP3    H1 8292   7.394   3.218   5.309
 2783TIP3    H2 8293   7.264   3.248   5.381
 2784TIP3   OH2 8294   4.231   7.704   2.056
 2784TIP3    H1 8295   4.306   7.760   2.037
 2784TIP3    H2 8296   4.267   7.631   2.106
 2785TIP3   OH2 8297   3.249  -0.018   0.480
 2785TIP3    H1 8298   3.176   0.030   0.441
 2785TIP3    H2 8299   3.297   0.047   0.530
 2786TIP3   OH2 8300   0.135   1.304   1.060
 2786TIP3    H1 8301   0.088   1.271   0.983
 2786TIP3    H2 8302   0.070   1.301   1.131
 2787TIP3   OH2 8303   3.945   5.268   3.957
 2787TIP3    H1 8304   3.859   5.288   3.996
 2787TIP3    H2 8305   3.926   5.247   3.866
 2788TIP3   OH2 8306   3.302   5.688   0.224
 2788TIP3    H1 8307   3.221   5.690   0.275
 2788TIP3    H2 8308   3.292   5.612   0.166
 2789TIP3   OH2 8309   5.351   3.946   3.857
 2789TIP3    H1 8310   5.343   3.853   3.840
 2789TIP3    H2 8311   5.330   3.955   3.950
 2790TIP3   OH2 8312   2.689   0.227   2.547
 2790TIP3    H1 8313   2.622   0.290   2.574
 2790TIP3    H2 8314   2.739   0.210   2.627
 2791TIP3   OH2 8315   0.229   1.148   3.115
 2791TIP3    H1 8316   0.320   1.129   3.093
 2791TIP3    H2 8317   0.180   1.124   3.036
 2792TIP3   OH2 8318   5.770   0.476   1.402
 2792TIP3    H1 8319   5.713   0.486   1.326
 2792TIP3    H2 8320   5.802   0.565   1.420
 2793TIP3   OH2 8321   4.114   4.214   0.975
 2793TIP3    H1 8322   4.132   4.300   1.013
 2793TIP3    H2 8323   4.163   4.153   1.030
 2794TIP3   OH2 8324   4.526   5.746   2.362
 2794TIP3    H1 8325   4.495   5.797   2.437
 2794TIP3    H2 8326   4.558   5.811   2.300
 2795TIP3   OH2 8327   1.829   1.253   0.044
 2795TIP3    H1 8328   1.735   1.257   0.026
 2795TIP3    H2 8329   1.867   1.321  -0.011
 2796TIP3   OH2 8330   6.375   5.023   6.483
 2796TIP3    H1 8331   6.402   5.028   6.574
 2796TIP3    H2 8332   6.456   5.019   6.433
 2797TIP3   OH2 8333   2.105   0.374   6.339
 2797TIP3    H1 8334   2.039   0.326   6.289
 2797TIP3    H2 8335   2.108   0.331   6.424
 2798TIP3   OH2 8336   1.934   6.000   2.070
 2798TIP3    H1 8337   1.856   5.952   2.043
 2798TIP3    H2 8338   2.007   5.947   2.037
 2799TIP3   OH2 8339   6.177   0.150   0.932
 2799TIP3    H1 8340   6.102   0.102   0.967
 2799TIP3    H2 8341   6.242   0.083   0.914
 2800TIP3   OH2 8342   5.616   3.105   1.113
 2800TIP3    H1 8343   5.668   3.068   1.185
 2800TIP3    H2 8344   5.649   3.194   1.102
 2801TIP3   OH2 8345   6.486   5.313   2.862
 2801TIP3    H1 8346   6.529   5.250   2.919
 2801TIP3    H2 8347   6.396   5.315   2.893
 2802TIP3   OH2 8348   4.462   5.696   0.252
 2802TIP3    H1 8349   4.491   5.711   0.342
 2802TIP3    H2 8350   4.383   5.643   0.261
 2803TIP3   OH2 8351   0.642   1.578   1.986
 2803TIP3    H1 8352   0.570   1.595   1.926
 2803TIP3    H2 8353   0.653   1.660   2.035
 2804TIP3   OH2 8354   1.813   5.457   5.630
 2804TIP3    H1 8355   1.900   5.493   5.650
 2804TIP3    H2 8356   1.772   5.524   5.574
 2805TIP3   OH2 8357   8.092   3.522   2.444
 2805TIP3    H1 8358   8.038   3.567   2.508
 2805TIP3    H2 8359   8.029   3.477   2.387
 2806TIP3   OH2 8360   7.184   0.559   4.537
 2806TIP3    H1 8361   7.218   0.615   4.468
 2806TIP3    H2 8362   7.190   0.613   4.616
 2807TIP3   OH2 8363   0.547   1.734   5.244
 2807TIP3    H1 8364   0.455   1.715   5.232
 2807TIP3    H2 8365   0.569   1.697   5.329
 2808TIP3   OH2 8366   5.236   1.660   4.890
 2808TIP3    H1 8367   5.146   1.628   4.891
 2808TIP3    H2 8368   5.229   1.753   4.868
 2809TIP3   OH2 8369   4.028   4.803   4.571
 2809TIP3    H1 8370   4.097   4.774   4.512
 2809TIP3    H2 8371   3.991   4.722   4.607
 2810TIP3   OH2 8372   5.811   4.434   3.555
 2810TIP3    H1 8373   5.828   4.419   3.462
 2810TIP3    H2 8374   5.726   4.479   3.557
 2811TIP3   OH2 8375   7.270   3.159   3.304
 2811TIP3    H1 8376   7.186   3.115   3.294
 2811TIP3    H2 8377   7.249   3.243   3.346
 2812TIP3   OH2 8378   5.796   0.215   0.899
 2812TIP3    H1 8379   5.720   0.226   0.842
 2812TIP3    H2 8380   5.851   0.292   0.882
 2813TIP3   OH2 8381   1.183   2.680   6.742
 2813TIP3    H1 8382   1.245   2.638   6.682
 2813TIP3    H2 8383   1.220   2.766   6.758
 2814TIP3   OH2 8384   2.123   6.852   3.228
 2814TIP3    H1 8385   2.117   6.914   3.156
 2814TIP3    H2 8386   2.212   6.863   3.262
 2815TIP3   OH2 8387   4.412   4.179  -0.006
 2815TIP3    H1 8388   4.347   4.249  -0.006
 2815TIP3    H2 8389   4.491   4.219   0.029
 2816TIP3   OH2 8390   3.237   0.449   4.890
 2816TIP3    H1 8391   3.158   0.400   4.911
 2816TIP3    H2 8392   3.251   0.433   4.796
 2817TIP3   OH2 8393   6.099   0.560   1.683
 2817TIP3    H1 8394   6.107   0.569   1.778
 2817TIP3    H2 8395   6.036   0.489   1.670
 2818TIP3   OH2 8396   5.756   4.602   6.733
 2818TIP3    H1 8397   5.779   4.643   6.649
 2818TIP3    H2 8398   5.738   4.675   6.791
 2819TIP3   OH2 8399   3.048   5.495   0.944
 2819TIP3    H1 8400   3.025   5.406   0.972
 2819TIP3    H2 8401   2.964   5.540   0.936
 2820TIP3   OH2 8402   7.473   2.203   6.567
 2820TIP3    H1 8403   7.553   2.160   6.598
 2820TIP3    H2 8404   7.463   2.280   6.623
 2821TIP3   OH2 8405   4.658   1.807   1.294
 2821TIP3    H1 8406   4.685   1.731   1.243
 2821TIP3    H2 8407   4.589   1.848   1.242
 2822TIP3   OH2 8408   5.082   5.374   0.947
 2822TIP3    H1 8409   5.062   5.294   0.898
 2822TIP3    H2 8410   5.112   5.342   1.032
 2823TIP3   OH2 8411   4.558   2.681   4.836
 2823TIP3    H1 8412   4.524   2.600   4.873
 2823TIP3    H2 8413   4.490   2.710   4.776
 2824TIP3   OH2 8414   0.373   3.054   3.149
 2824TIP3    H1 8415   0.374   3.123   3.083
 2824TIP3    H2 8416   0.461   3.054   3.186
 2825TIP3   OH2 8417   0.461   3.985   5.241
 2825TIP3    H1 8418   0.386   3.936   5.205
 2825TIP3    H2 8419   0.519   3.917   5.275
 2826TIP3   OH2 8420   1.827   1.173   3.997
 2826TIP3    H1 8421   1.831   1.118   3.919
 2826TIP3    H2 8422   1.737   1.205   3.999
 2827TIP3   OH2 8423   6.470   4.377   1.631
 2827TIP3    H1 8424   6.475   4.469   1.657
 2827TIP3    H2 8425   6.380   4.352   1.649
 2828TIP3   OH2 8426   2.037   0.572   0.352
 2828TIP3    H1 8427   2.019   0.666   0.354
 2828TIP3    H2 8428   2.063   0.554   0.261
 2829TIP3   OH2 8429   2.858   1.266   4.761
 2829TIP3    H1 8430   2.911   1.218   4.825
 2829TIP3    H2 8431   2.785   1.300   4.812
 2830TIP3   OH2 8432   3.818   7.441   3.703
 2830TIP3    H1 8433   3.787   7.398   3.782
 2830TIP3    H2 8434   3.752   7.421   3.637
 2831TIP3   OH2 8435   5.136   3.499   2.894
 2831TIP3    H1 8436   5.041   3.490   2.898
 2831TIP3    H2 8437   5.159   3.547   2.974
 2832TIP3   OH2 8438   4.696   3.391   2.163
 2832TIP3    H1 8439   4.778   3.386   2.211
 2832TIP3    H2 8440   4.641   3.450   2.216
 2833TIP3   OH2 8441   1.944   4.629   4.092
 2833TIP3    H1 8442   1.867   4.654   4.142
 2833TIP3    H2 8443   1.912   4.564   4.029
 2834TIP3   OH2 8444   1.435   5.282   0.621
 2834TIP3    H1 8445   1.476   5.210   0.573
 2834TIP3    H2 8446   1.395   5.336   0.552
 2835TIP3   OH2 8447   1.588   2.233   1.009
 2835TIP3    H1 8448   1.565   2.149   0.969
 2835TIP3    H2 8449   1.586   2.216   1.103
 2836TIP3   OH2 8450   0.472   5.257   2.323
 2836TIP3    H1 8451   0.416   5.332   2.340
 2836TIP3    H2 8452   0.431   5.212   2.248
 2837TIP3   OH2 8453   0.685   0.819   4.787
 2837TIP3    H1 8454   0.723   0.830   4.874
 2837TIP3    H2 8455   0.736   0.878   4.731
 2838TIP3   OH2 8456   4.683   1.637   0.158
 2838TIP3    H1 8457   4.692   1.572   0.227
 2838TIP3    H2 8458   4.606   1.688   0.182
 2839TIP3   OH2 8459   2.256   6.243   2.340
 2839TIP3    H1 8460   2.255   6.262   2.434
 2839TIP3    H2 8461   2.316   6.307   2.303
 2840TIP3   OH2 8462   8.041   4.542   0.809
 2840TIP3    H1 8463   7.975   4.589   0.759
 2840TIP3    H2 8464   8.021   4.450   0.794
 2841TIP3   OH2 8465   5.352   4.632   0.452
 2841TIP3    H1 8466   5.289   4.587   0.507
 2841TIP3    H2 8467   5.435   4.626   0.500
 2842TIP3   OH2 8468   4.824   2.409   1.122
 2842TIP3    H1 8469   4.814   2.476   1.055
 2842TIP3    H2 8470   4.897   2.440   1.176
 2843TIP3   OH2 8471   0.486   4.949   2.885
 2843TIP3    H1 8472   0.568   4.924   2.929
 2843TIP3    H2 8473   0.435   4.868   2.884
 2844TIP3   OH2 8474   4.591   7.115   4.909
 2844TIP3    H1 8475   4.565   7.103   4.818
 2844TIP3    H2 8476   4.512   7.096   4.960
 2845TIP3   OH2 8477   6.752   2.717   1.514
 2845TIP3    H1 8478   6.839   2.736   1.549
 2845TIP3    H2 8479   6.762   2.637   1.464
 2846TIP3   OH2 8480   6.146   7.082   4.184
 2846TIP3    H1 8481   6.123   7.127   4.265
 2846TIP3    H2 8482   6.066   7.084   4.132
 2847TIP3   OH2 8483   1.408   4.362   4.747
 2847TIP3    H1 8484   1.438   4.412   4.671
 2847TIP3    H2 8485   1.442   4.274   4.733
 2848TIP3   OH2 8486   4.703   0.172   6.381
 2848TIP3    H1 8487   4.773   0.113   6.351
 2848TIP3    H2 8488   4.623   0.118   6.375
 2849TIP3   OH2 8489   6.670   0.936   0.402
 2849TIP3    H1 8490   6.667   1.032   0.395
 2849TIP3    H2 8491   6.755   0.912   0.366
 2850TIP3   OH2 8492   7.858   7.650   0.789
 2850TIP3    H1 8493   7.879   7.731   0.836
 2850TIP3    H2 8494   7.943   7.612   0.766
 2851TIP3   OH2 8495   7.305   6.543   5.838
 2851TIP3    H1 8496   7.332   6.602   5.908
 2851TIP3    H2 8497   7.317   6.455   5.874
 2852TIP3   OH2 8498   5.817   6.401   3.608
 2852TIP3    H1 8499   5.739   6.455   3.621
 2852TIP3    H2 8500   5.783   6.317   3.579
 2853TIP3   OH2 8501   8.142   2.056   0.128
 2853TIP3    H1 8502   8.105   2.105   0.055
 2853TIP3    H2 8503   8.204   2.117   0.169
 2854TIP3   OH2 8504   1.182   2.268   5.664
 2854TIP3    H1 8505   1.252   2.311   5.615
 2854TIP3    H2 8506   1.123   2.339   5.690
 2855TIP3   OH2 8507   6.368   5.156   3.965
 2855TIP3    H1 8508   6.394   5.088   4.027
 2855TIP3    H2 8509   6.342   5.230   4.021
 2856TIP3   OH2 8510   0.684   5.602   4.178
 2856TIP3    H1 8511   0.727   5.632   4.098
 2856TIP3    H2 8512   0.636   5.678   4.210
 2857TIP3   OH2 8513   5.413   2.758   5.324
 2857TIP3    H1 8514   5.502   2.740   5.353
 2857TIP3    H2 8515   5.358   2.737   5.400
 2858TIP3   OH2 8516   5.004   4.046   4.841
 2858TIP3    H1 8517   5.090   4.015   4.869
 2858TIP3    H2 8518   4.943   3.983   4.877
 2859TIP3   OH2 8519   6.279   3.973   3.119
 2859TIP3    H1 8520   6.189   3.946   3.101
 2859TIP3    H2 8521   6.325   3.957   3.036
 2860TIP3   OH2 8522   5.714   0.790   1.588
 2860TIP3    H1 8523   5.668   0.717   1.630
 2860TIP3    H2 8524   5.704   0.863   1.648
 2861TIP3   OH2 8525   3.113   4.077   1.250
 2861TIP3    H1 8526   3.162   4.106   1.326
 2861TIP3    H2 8527   3.080   4.158   1.210
 2862TIP3   OH2 8528   1.289   6.292   3.031
 2862TIP3    H1 8529   1.277   6.224   2.964
 2862TIP3    H2 8530   1.382   6.292   3.050
 2863TIP3   OH2 8531   0.501   1.184   0.866
 2863TIP3    H1 8532   0.464   1.173   0.778
 2863TIP3    H2 8533   0.595   1.190   0.852
 2864TIP3   OH2 8534   6.526   7.240   6.372
 2864TIP3    H1 8535   6.479   7.284   6.301
 2864TIP3    H2 8536   6.619   7.255   6.352
 2865TIP3   OH2 8537   1.153   0.810   2.521
 2865TIP3    H1 8538   1.076   0.763   2.491
 2865TIP3    H2 8539   1.140   0.900   2.492
 2866TIP3   OH2 8540   3.357   5.400   6.020
 2866TIP3    H1 8541   3.275   5.449   6.026
 2866TIP3    H2 8542   3.360   5.369   5.929
 2867TIP3   OH2 8543   5.963   2.006   0.757
 2867TIP3    H1 8544   6.016   2.023   0.835
 2867TIP3    H2 8545   5.922   1.921   0.774
 2868TIP3   OH2 8546   0.596   6.250   2.504
 2868TIP3    H1 8547   0.522   6.189   2.502
 2868TIP3    H2 8548   0.673   6.194   2.516
 2869TIP3   OH2 8549   4.050   3.749   2.076
 2869TIP3    H1 8550   4.003   3.676   2.034
 2869TIP3    H2 8551   4.100   3.708   2.147
 2870TIP3   OH2 8552   2.104   0.345   5.957
 2870TIP3    H1 8553   2.184   0.330   6.007
 2870TIP3    H2 8554   2.038   0.293   6.002
 2871TIP3   OH2 8555   3.569   5.139   5.456
 2871TIP3    H1 8556   3.602   5.081   5.525
 2871TIP3    H2 8557   3.554   5.081   5.381
 2872TIP3   OH2 8558   3.922   3.142   0.365
 2872TIP3    H1 8559   3.869   3.187   0.300
 2872TIP3    H2 8560   3.964   3.213   0.415
 2873TIP3   OH2 8561   2.913   7.595   5.270
 2873TIP3    H1 8562   2.826   7.605   5.229
 2873TIP3    H2 8563   2.944   7.685   5.282
 2874TIP3   OH2 8564   4.766   7.169   3.576
 2874TIP3    H1 8565   4.718   7.247   3.547
 2874TIP3    H2 8566   4.764   7.110   3.500
 2875TIP3   OH2 8567   0.280   3.561   2.990
 2875TIP3    H1 8568   0.353   3.621   3.001
 2875TIP3    H2 8569   0.264   3.525   3.078
 2876TIP3   OH2 8570   7.746   6.844   6.048
 2876TIP3    H1 8571   7.727   6.814   6.137
 2876TIP3    H2 8572   7.730   6.938   6.051
 2877TIP3   OH2 8573   4.632   7.522   3.631
 2877TIP3    H1 8574   4.561   7.563   3.582
 2877TIP3    H2 8575   4.683   7.476   3.565
 2878TIP3   OH2 8576   6.076   1.445   3.708
 2878TIP3    H1 8577   6.049   1.376   3.769
 2878TIP3    H2 8578   6.162   1.417   3.676
 2879TIP3   OH2 8579   0.185   1.421   0.683
 2879TIP3    H1 8580   0.090   1.432   0.677
 2879TIP3    H2 8581   0.221   1.489   0.626
 2880TIP3   OH2 8582   2.089   3.202   0.337
 2880TIP3    H1 8583   2.009   3.216   0.287
 2880TIP3    H2 8584   2.068   3.129   0.395
 2881TIP3   OH2 8585   1.197   2.228   1.266
 2881TIP3    H1 8586   1.277   2.280   1.260
 2881TIP3    H2 8587   1.156   2.238   1.179
 2882TIP3   OH2 8588   6.377   2.101   2.365
 2882TIP3    H1 8589   6.395   2.126   2.274
 2882TIP3    H2 8590   6.464   2.088   2.403
 2883TIP3   OH2 8591   4.393   7.212   6.513
 2883TIP3    H1 8592   4.399   7.120   6.537
 2883TIP3    H2 8593   4.313   7.218   6.461
 2884TIP3   OH2 8594   2.857   1.686   6.626
 2884TIP3    H1 8595   2.841   1.636   6.706
 2884TIP3    H2 8596   2.821   1.773   6.645
 2885TIP3   OH2 8597   7.018   1.463   5.232
 2885TIP3    H1 8598   6.971   1.453   5.150
 2885TIP3    H2 8599   6.983   1.395   5.289
 2886TIP3   OH2 8600   4.041   2.279   2.680
 2886TIP3    H1 8601   3.969   2.251   2.623
 2886TIP3    H2 8602   4.075   2.198   2.717
 2887TIP3   OH2 8603   2.768   0.346   5.708
 2887TIP3    H1 8604   2.696   0.396   5.749
 2887TIP3    H2 8605   2.840   0.353   5.770
 2888TIP3   OH2 8606   4.627   2.987   1.657
 2888TIP3    H1 8607   4.620   3.076   1.692
 2888TIP3    H2 8608   4.716   2.982   1.621
 2889TIP3   OH2 8609   7.546   0.987   1.062
 2889TIP3    H1 8610   7.614   0.976   0.997
 2889TIP3    H2 8611   7.540   1.082   1.075
 2890TIP3   OH2 8612   7.176   6.475   1.456
 2890TIP3    H1 8613   7.264   6.500   1.426
 2890TIP3    H2 8614   7.125   6.555   1.450
 2891TIP3   OH2 8615   6.731   2.931   5.080
 2891TIP3    H1 8616   6.784   2.998   5.038
 2891TIP3    H2 8617   6.721   2.863   5.013
 2892TIP3   OH2 8618   7.907   2.799   6.263
 2892TIP3    H1 8619   8.002   2.794   6.274
 2892TIP3    H2 8620   7.883   2.885   6.296
 2893TIP3   OH2 8621   0.742   4.725   2.339
 2893TIP3    H1 8622   0.705   4.813   2.329
 2893TIP3    H2 8623   0.751   4.713   2.433
 2894TIP3   OH2 8624   7.340   7.515   2.450
 2894TIP3    H1 8625   7.418   7.549   2.494
 2894TIP3    H2 8626   7.267   7.545   2.504
 2895TIP3   OH2 8627   5.565   0.456   4.213
 2895TIP3    H1 8628   5.592   0.533   4.264
 2895TIP3    H2 8629   5.500   0.413   4.268
 2896TIP3   OH2 8630   2.272   1.126   3.214
 2896TIP3    H1 8631   2.316   1.129   3.299
 2896TIP3    H2 8632   2.306   1.203   3.167
 2897TIP3   OH2 8633   2.191   0.075   6.129
 2897TIP3    H1 8634   2.223  -0.002   6.175
 2897TIP3    H2 8635   2.102   0.053   6.103
 2898TIP3   OH2 8636   0.345   1.512   3.452
 2898TIP3    H1 8637   0.285   1.473   3.388
 2898TIP3    H2 8638   0.418   1.545   3.399
 2899TIP3   OH2 8639   4.748   6.075   6.597
 2899TIP3    H1 8640   4.749   5.990   6.641
 2899TIP3    H2 8641   4.818   6.069   6.532
 2900TIP3   OH2 8642   5.105   4.670   6.756
 2900TIP3    H1 8643   5.011   4.683   6.764
 2900TIP3    H2 8644   5.116   4.576   6.743
 2901TIP3   OH2 8645   6.904   6.614   0.379
 2901TIP3    H1 8646   6.933   6.703   0.397
 2901TIP3    H2 8647   6.974   6.576   0.326
 2902TIP3   OH2 8648   7.696   7.111   5.610
 2902TIP3    H1 8649   7.623   7.173   5.604
 2902TIP3    H2 8650   7.685   7.053   5.535
 2903TIP3   OH2 8651   1.629   7.076   4.481
 2903TIP3    H1 8652   1.679   7.110   4.406
 2903TIP3    H2 8653   1.547   7.126   4.479
 2904TIP3   OH2 8654   8.097   0.851   2.902
 2904TIP3    H1 8655   8.027   0.829   2.963
 2904TIP3    H2 8656   8.166   0.787   2.921
 2905TIP3   OH2 8657   5.080   5.014   5.957
 2905TIP3    H1 8658   5.007   4.979   5.907
 2905TIP3    H2 8659   5.080   5.108   5.939
 2906TIP3   OH2 8660   2.612   0.592   6.554
 2906TIP3    H1 8661   2.628   0.655   6.483
 2906TIP3    H2 8662   2.534   0.625   6.598
 2907TIP3   OH2 8663   7.434   3.394   1.062
 2907TIP3    H1 8664   7.474   3.329   1.119
 2907TIP3    H2 8665   7.449   3.478   1.106
 2908TIP3   OH2 8666   4.168   7.543   4.572
 2908TIP3    H1 8667   4.251   7.577   4.603
 2908TIP3    H2 8668   4.104   7.610   4.598
 2909TIP3   OH2 8669   7.835   5.319   0.871
 2909TIP3    H1 8670   7.859   5.407   0.899
 2909TIP3    H2 8671   7.835   5.268   0.952
 2910TIP3   OH2 8672   1.279   0.773   2.990
 2910TIP3    H1 8673   1.366   0.751   3.023
 2910TIP3    H2 8674   1.284   0.759   2.896
 2911TIP3   OH2 8675   1.730   5.749   2.176
 2911TIP3    H1 8676   1.785   5.760   2.099
 2911TIP3    H2 8677   1.675   5.828   2.178
 2912TIP3   OH2 8678   2.186   7.032   3.610
 2912TIP3    H1 8679   2.276   7.002   3.597
 2912TIP3    H2 8680   2.190   7.127   3.594
 2913TIP3   OH2 8681   6.094   0.236   0.629
 2913TIP3    H1 8682   6.167   0.176   0.616
 2913TIP3    H2 8683   6.077   0.232   0.723
 2914TIP3   OH2 8684   1.754   3.990   3.364
 2914TIP3    H1 8685   1.659   3.988   3.349
 2914TIP3    H2 8686   1.789   3.924   3.305
 2915TIP3   OH2 8687   1.821   3.277   0.214
 2915TIP3    H1 8688   1.823   3.368   0.242
 2915TIP3    H2 8689   1.843   3.279   0.121
 2916TIP3   OH2 8690   1.913   3.388   0.509
 2916TIP3    H1 8691   1.871   3.428   0.433
 2916TIP3    H2 8692   1.874   3.301   0.515
 2917TIP3   OH2 8693   2.405   7.771   0.525
 2917TIP3    H1 8694   2.350   7.847   0.508
 2917TIP3    H2 8695   2.405   7.761   0.620
 2918TIP3   OH2 8696   1.254   7.364   4.037
 2918TIP3    H1 8697   1.160   7.357   4.024
 2918TIP3    H2 8698   1.276   7.289   4.092
 2919TIP3   OH2 8699   3.180   6.260   6.161
 2919TIP3    H1 8700   3.204   6.191   6.223
 2919TIP3    H2 8701   3.085   6.270   6.173
 2920TIP3   OH2 8702   8.183   4.018   3.746
 2920TIP3    H1 8703   8.263   4.035   3.795
 2920TIP3    H2 8704   8.195   3.932   3.708
 2921TIP3   OH2 8705   1.202   6.342   2.149
 2921TIP3    H1 8706   1.264   6.398   2.196
 2921TIP3    H2 8707   1.253   6.306   2.076
 2922TIP3   OH2 8708   1.850   4.374   2.755
 2922TIP3    H1 8709   1.875   4.388   2.663
 2922TIP3    H2 8710   1.925   4.330   2.794
 2923TIP3   OH2 8711   5.407   6.939   5.705
 2923TIP3    H1 8712   5.459   6.982   5.637
 2923TIP3    H2 8713   5.457   6.951   5.785
 2924TIP3   OH2 8714   3.057   2.297   5.444
 2924TIP3    H1 8715   3.047   2.376   5.498
 2924TIP3    H2 8716   3.042   2.328   5.355
 2925TIP3   OH2 8717   5.576  -0.026   5.033
 2925TIP3    H1 8718   5.537   0.003   5.116
 2925TIP3    H2 8719   5.530  -0.107   5.011
 2926TIP3   OH2 8720   2.749   1.309   1.033
 2926TIP3    H1 8721   2.794   1.331   1.115
 2926TIP3    H2 8722   2.782   1.221   1.011
 2927TIP3   OH2 8723   2.046   2.909   6.534
 2927TIP3    H1 8724   1.957   2.889   6.564
 2927TIP3    H2 8725   2.069   2.837   6.475
 2928TIP3   OH2 8726   4.991   2.278   4.438
 2928TIP3    H1 8727   4.918   2.229   4.402
 2928TIP3    H2 8728   5.065   2.255   4.382
 2929TIP3   OH2 8729   5.867   3.786   5.935
 2929TIP3    H1 8730   5.925   3.856   5.965
 2929TIP3    H2 8731   5.904   3.758   5.851
 2930TIP3   OH2 8732   5.454   7.244   1.313
 2930TIP3    H1 8733   5.481   7.271   1.401
 2930TIP3    H2 8734   5.516   7.288   1.255
 2931TIP3   OH2 8735   1.641   1.386   3.369
 2931TIP3    H1 8736   1.571   1.346   3.318
 2931TIP3    H2 8737   1.673   1.457   3.314
 2932TIP3   OH2 8738   1.063   6.593   3.800
 2932TIP3    H1 8739   1.018   6.559   3.877
 2932TIP3    H2 8740   1.013   6.671   3.775
 2933TIP3   OH2 8741   6.294   6.859   4.659
 2933TIP3    H1 8742   6.218   6.892   4.707
 2933TIP3    H2 8743   6.332   6.792   4.716
 2934TIP3   OH2 8744   7.522   0.854   3.234
 2934TIP3    H1 8745   7.574   0.856   3.153
 2934TIP3    H2 8746   7.573   0.906   3.296
 2935TIP3   OH2 8747   4.083   3.083   4.584
 2935TIP3    H1 8748   4.110   3.037   4.505
 2935TIP3    H2 8749   4.142   3.051   4.652
 2936TIP3   OH2 8750   0.633   7.525   2.929
 2936TIP3    H1 8751   0.601   7.449   2.977
 2936TIP3    H2 8752   0.603   7.600   2.980
 2937TIP3   OH2 8753   2.306   7.071   6.208
 2937TIP3    H1 8754   2.212   7.089   6.201
 2937TIP3    H2 8755   2.314   7.011   6.282
 2938TIP3   OH2 8756   7.827   4.349   1.036
 2938TIP3    H1 8757   7.879   4.268   1.041
 2938TIP3    H2 8758   7.785   4.345   0.950
 2939TIP3   OH2 8759   3.566   4.594   0.843
 2939TIP3    H1 8760   3.571   4.582   0.938
 2939TIP3    H2 8761   3.542   4.508   0.809
 2940TIP3   OH2 8762   3.389   0.750   4.514
 2940TIP3    H1 8763   3.364   0.797   4.593
 2940TIP3    H2 8764   3.484   0.755   4.511
 2941TIP3   OH2 8765   6.864   1.613   4.665
 2941TIP3    H1 8766   6.884   1.583   4.576
 2941TIP3    H2 8767   6.769   1.606   4.672
 2942TIP3   OH2 8768   7.904   1.345   3.546
 2942TIP3    H1 8769   7.819   1.328   3.586
 2942TIP3    H2 8770   7.883   1.369   3.456
 2943TIP3   OH2 8771   3.514   6.319   1.063
 2943TIP3    H1 8772   3.598   6.338   1.106
 2943TIP3    H2 8773   3.492   6.231   1.092
 2944TIP3   OH2 8774   0.361   6.888   4.442
 2944TIP3    H1 8775   0.287   6.913   4.387
 2944TIP3    H2 8776   0.337   6.803   4.479
 2945TIP3   OH2 8777   5.677   4.350   5.164
 2945TIP3    H1 8778   5.621   4.330   5.239
 2945TIP3    H2 8779   5.656   4.441   5.142
 2946TIP3   OH2 8780   3.328   7.001   4.158
 2946TIP3    H1 8781   3.378   6.935   4.206
 2946TIP3    H2 8782   3.338   6.975   4.066
 2947TIP3   OH2 8783   5.384   4.348   2.682
 2947TIP3    H1 8784   5.395   4.271   2.737
 2947TIP3    H2 8785   5.347   4.314   2.600
 2948TIP3   OH2 8786   6.782   4.734   1.649
 2948TIP3    H1 8787   6.760   4.651   1.690
 2948TIP3    H2 8788   6.706   4.790   1.665
 2949TIP3   OH2 8789   3.589   4.255   0.932
 2949TIP3    H1 8790   3.537   4.271   0.854
 2949TIP3    H2 8791   3.676   4.287   0.910
 2950TIP3   OH2 8792   7.219   7.152   4.966
 2950TIP3    H1 8793   7.220   7.221   4.900
 2950TIP3    H2 8794   7.127   7.139   4.987
 2951TIP3   OH2 8795   5.686   2.278   0.473
 2951TIP3    H1 8796   5.666   2.362   0.515
 2951TIP3    H2 8797   5.768   2.249   0.513
 2952TIP3   OH2 8798   1.564   0.378   2.408
 2952TIP3    H1 8799   1.575   0.473   2.395
 2952TIP3    H2 8800   1.562   0.343   2.319
 2953TIP3   OH2 8801   1.893   6.770   4.862
 2953TIP3    H1 8802   1.976   6.761   4.816
 2953TIP3    H2 8803   1.843   6.831   4.808
 2954TIP3   OH2 8804   4.067   0.103   4.205
 2954TIP3    H1 8805   4.079   0.008   4.199
 2954TIP3    H2 8806   3.973   0.116   4.208
 2955TIP3   OH2 8807   5.864   5.886   3.301
 2955TIP3    H1 8808   5.929   5.862   3.235
 2955TIP3    H2 8809   5.789   5.829   3.283
 2956TIP3   OH2 8810   0.885   3.561   1.920
 2956TIP3    H1 8811   0.795   3.531   1.921
 2956TIP3    H2 8812   0.938   3.482   1.932
 2957TIP3   OH2 8813   7.574   5.444   1.578
 2957TIP3    H1 8814   7.668   5.439   1.594
 2957TIP3    H2 8815   7.537   5.374   1.631
 2958TIP3   OH2 8816   6.101   5.349   1.353
 2958TIP3    H1 8817   6.158   5.387   1.421
 2958TIP3    H2 8818   6.124   5.256   1.352
 2959TIP3   OH2 8819   7.301   7.028   5.568
 2959TIP3    H1 8820   7.342   7.005   5.652
 2959TIP3    H2 8821   7.212   6.993   5.575
 2960TIP3   OH2 8822   1.448   7.601   3.706
 2960TIP3    H1 8823   1.533   7.638   3.730
 2960TIP3    H2 8824   1.431   7.635   3.618
 2961TIP3   OH2 8825   4.408   2.362   0.849
 2961TIP3    H1 8826   4.445   2.376   0.761
 2961TIP3    H2 8827   4.474   2.312   0.895
 2962TIP3   OH2 8828   2.455   6.135   4.765
 2962TIP3    H1 8829   2.498   6.163   4.684
 2962TIP3    H2 8830   2.514   6.069   4.802
 2963TIP3   OH2 8831   6.370   5.459   6.641
 2963TIP3    H1 8832   6.301   5.413   6.594
 2963TIP3    H2 8833   6.325   5.504   6.713
 2964TIP3   OH2 8834   7.208   6.333   3.033
 2964TIP3    H1 8835   7.212   6.343   2.938
 2964TIP3    H2 8836   7.121   6.296   3.049
 2965TIP3   OH2 8837   3.188   0.834   0.612
 2965TIP3    H1 8838   3.157   0.875   0.693
 2965TIP3    H2 8839   3.197   0.907   0.551
 2966TIP3   OH2 8840   1.833   2.333   0.073
 2966TIP3    H1 8841   1.910   2.389   0.079
 2966TIP3    H2 8842   1.829   2.306  -0.019
 2967TIP3   OH2 8843   0.044   2.295   4.441
 2967TIP3    H1 8844   0.024   2.245   4.520
 2967TIP3    H2 8845  -0.021   2.266   4.377
 2968TIP3   OH2 8846   5.079   3.577   4.386
 2968TIP3    H1 8847   5.023   3.653   4.371
 2968TIP3    H2 8848   5.152   3.589   4.325
 2969TIP3   OH2 8849   2.500   2.825   2.836
 2969TIP3    H1 8850   2.466   2.771   2.764
 2969TIP3    H2 8851   2.422   2.861   2.878
 2970TIP3   OH2 8852   5.738   2.153   2.677
 2970TIP3    H1 8853   5.787   2.229   2.646
 2970TIP3    H2 8854   5.779   2.078   2.634
 2971TIP3   OH2 8855   7.386   0.674   3.375
 2971TIP3    H1 8856   7.442   0.743   3.340
 2971TIP3    H2 8857   7.354   0.627   3.298
 2972TIP3   OH2 8858   7.564   4.526   0.948
 2972TIP3    H1 8859   7.518   4.447   0.977
 2972TIP3    H2 8860   7.495   4.590   0.931
 2973TIP3   OH2 8861   7.317   2.547   2.445
 2973TIP3    H1 8862   7.399   2.593   2.461
 2973TIP3    H2 8863   7.263   2.568   2.522
 2974TIP3   OH2 8864   7.333   4.368   0.401
 2974TIP3    H1 8865   7.243   4.337   0.406
 2974TIP3    H2 8866   7.336   4.420   0.321
 2975TIP3   OH2 8867   6.813   2.431   3.531
 2975TIP3    H1 8868   6.891   2.486   3.538
 2975TIP3    H2 8869   6.763   2.450   3.611
 2976TIP3   OH2 8870   2.946   3.231   4.312
 2976TIP3    H1 8871   2.881   3.183   4.260
 2976TIP3    H2 8872   2.895   3.271   4.383
 2977TIP3   OH2 8873   8.093   7.218   6.043
 2977TIP3    H1 8874   8.177   7.264   6.045
 2977TIP3    H2 8875   8.115   7.129   6.015
 2978TIP3   OH2 8876   6.992   7.746   2.185
 2978TIP3    H1 8877   7.016   7.775   2.273
 2978TIP3    H2 8878   7.014   7.820   2.128
 2979TIP3   OH2 8879   3.562   6.378   1.979
 2979TIP3    H1 8880   3.535   6.292   1.949
 2979TIP3    H2 8881   3.622   6.361   2.052
 2980TIP3   OH2 8882   2.578   7.103   2.009
 2980TIP3    H1 8883   2.493   7.132   2.042
 2980TIP3    H2 8884   2.633   7.095   2.087
 2981TIP3   OH2 8885   3.527   6.149   5.901
 2981TIP3    H1 8886   3.580   6.157   5.822
 2981TIP3    H2 8887   3.478   6.068   5.888
 2982TIP3   OH2 8888   6.269   2.904   0.336
 2982TIP3    H1 8889   6.198   2.894   0.273
 2982TIP3    H2 8890   6.348   2.889   0.285
 2983TIP3   OH2 8891   2.368   2.458   3.178
 2983TIP3    H1 8892   2.304   2.497   3.118
 2983TIP3    H2 8893   2.429   2.528   3.198
 2984TIP3   OH2 8894   4.448   4.746   2.923
 2984TIP3    H1 8895   4.494   4.736   2.840
 2984TIP3    H2 8896   4.368   4.694   2.914
 2985TIP3   OH2 8897   2.946   5.906   5.867
 2985TIP3    H1 8898   2.962   5.814   5.890
 2985TIP3    H2 8899   2.998   5.920   5.788
 2986TIP3   OH2 8900   4.982   7.119   4.657
 2986TIP3    H1 8901   5.012   7.030   4.639
 2986TIP3    H2 8902   4.953   7.117   4.748
 2987TIP3   OH2 8903   4.056   4.934   1.908
 2987TIP3    H1 8904   3.975   4.976   1.936
 2987TIP3    H2 8905   4.060   4.853   1.957
 2988TIP3   OH2 8906   5.218   5.826   2.297
 2988TIP3    H1 8907   5.177   5.868   2.221
 2988TIP3    H2 8908   5.231   5.735   2.270
 2989TIP3   OH2 8909   4.958   0.466   2.833
 2989TIP3    H1 8910   4.924   0.547   2.871
 2989TIP3    H2 8911   5.050   0.485   2.814
 2990TIP3   OH2 8912   2.549   1.581   3.497
 2990TIP3    H1 8913   2.478   1.645   3.507
 2990TIP3    H2 8914   2.516   1.501   3.538
 2991TIP3   OH2 8915   1.595   2.805   6.318
 2991TIP3    H1 8916   1.539   2.824   6.243
 2991TIP3    H2 8917   1.683   2.830   6.289
 2992TIP3   OH2 8918   7.614   3.808   4.736
 2992TIP3    H1 8919   7.622   3.891   4.784
 2992TIP3    H2 8920   7.551   3.826   4.667
 2993TIP3   OH2 8921   4.563   3.864   1.962
 2993TIP3    H1 8922   4.505   3.794   1.991
 2993TIP3    H2 8923   4.589   3.908   2.043
 2994TIP3   OH2 8924   7.495   1.290   5.901
 2994TIP3    H1 8925   7.522   1.199   5.889
 2994TIP3    H2 8926   7.520   1.333   5.819
 2995TIP3   OH2 8927   0.834   2.805   5.849
 2995TIP3    H1 8928   0.824   2.765   5.936
 2995TIP3    H2 8929   0.844   2.730   5.790
 2996TIP3   OH2 8930   5.495   1.935   5.779
 2996TIP3    H1 8931   5.529   1.859   5.732
 2996TIP3    H2 8932   5.556   2.006   5.756
 2997TIP3   OH2 8933   7.610   1.702   0.527
 2997TIP3    H1 8934   7.589   1.613   0.556
 2997TIP3    H2 8935   7.704   1.699   0.509
 2998TIP3   OH2 8936   2.838   5.592   5.898
 2998TIP3    H1 8937   2.863   5.514   5.946
 2998TIP3    H2 8938   2.761   5.625   5.944
 2999TIP3   OH2 8939   4.803   6.107   0.710
 2999TIP3    H1 8940   4.747   6.030   0.696
 2999TIP3    H2 8941   4.747   6.181   0.688
 3000TIP3   OH2 8942   1.555   0.357   5.732
 3000TIP3    H1 8943   1.503   0.314   5.801
 3000TIP3    H2 8944   1.567   0.289   5.666
 3001TIP3   OH2 8945   8.159   5.798   3.487
 3001TIP3    H1 8946   8.233   5.858   3.480
 3001TIP3    H2 8947   8.125   5.812   3.575
 3002TIP3   OH2 8948   3.828   2.584   2.478
 3002TIP3    H1 8949   3.827   2.633   2.560
 3002TIP3    H2 8950   3.763   2.515   2.490
 3003TIP3   OH2 8951   0.626   6.689   1.172
 3003TIP3    H1 8952   0.582   6.667   1.254
 3003TIP3    H2 8953   0.684   6.614   1.156
 3004TIP3   OH2 8954   6.174   4.046   0.485
 3004TIP3    H1 8955   6.134   4.100   0.554
 3004TIP3    H2 8956   6.132   4.075   0.404
 3005TIP3   OH2 8957   1.675   2.417   4.229
 3005TIP3    H1 8958   1.724   2.499   4.228
 3005TIP3    H2 8959   1.716   2.364   4.160
 3006TIP3   OH2 8960   2.595   0.263   3.224
 3006TIP3    H1 8961   2.533   0.192   3.205
 3006TIP3    H2 8962   2.559   0.340   3.180
 3007TIP3   OH2 8963   1.140   1.393   1.873
 3007TIP3    H1 8964   1.060   1.446   1.875
 3007TIP3    H2 8965   1.110   1.303   1.887
 3008TIP3   OH2 8966   3.586   0.564   4.785
 3008TIP3    H1 8967   3.681   0.573   4.780
 3008TIP3    H2 8968   3.557   0.562   4.693
 3009TIP3   OH2 8969   8.177   2.775   2.210
 3009TIP3    H1 8970   8.174   2.843   2.143
 3009TIP3    H2 8971   8.174   2.823   2.293
 3010TIP3   OH2 8972   0.743   3.032   6.561
 3010TIP3    H1 8973   0.814   2.968   6.562
 3010TIP3    H2 8974   0.787   3.116   6.554
 3011TIP3   OH2 8975   4.264   4.450   6.623
 3011TIP3    H1 8976   4.248   4.534   6.665
 3011TIP3    H2 8977   4.337   4.412   6.672
 3012TIP3   OH2 8978   6.992   4.401   5.894
 3012TIP3    H1 8979   6.988   4.403   5.990
 3012TIP3    H2 8980   6.905   4.373   5.867
 3013TIP3   OH2 8981   5.943   5.940   5.557
 3013TIP3    H1 8982   5.912   5.952   5.467
 3013TIP3    H2 8983   5.935   5.846   5.573
 3014TIP3   OH2 8984   2.934   4.917   0.861
 3014TIP3    H1 8985   2.892   5.002   0.865
 3014TIP3    H2 8986   3.022   4.935   0.828
 3015TIP3   OH2 8987   5.356   1.450   1.356
 3015TIP3    H1 8988   5.305   1.369   1.351
 3015TIP3    H2 8989   5.447   1.422   1.343
 3016TIP3   OH2 8990   1.216   2.242   3.749
 3016TIP3    H1 8991   1.178   2.322   3.713
 3016TIP3    H2 8992   1.209   2.178   3.678
 3017TIP3   OH2 8993   4.574   0.774   3.940
 3017TIP3    H1 8994   4.642   0.727   3.892
 3017TIP3    H2 8995   4.511   0.705   3.964
 3018TIP3   OH2 8996   0.630   1.845   5.002
 3018TIP3    H1 8997   0.597   1.816   5.087
 3018TIP3    H2 8998   0.577   1.923   4.981
 3019TIP3   OH2 8999   6.483   2.802   1.567
 3019TIP3    H1 9000   6.441   2.732   1.516
 3019TIP3    H2 9001   6.574   2.774   1.575
 3020TIP3   OH2 9002   1.137   6.230   2.525
 3020TIP3    H1 9003   1.192   6.300   2.489
 3020TIP3    H2 9004   1.126   6.168   2.453
 3021TIP3   OH2 9005   4.492   1.212   0.017
 3021TIP3    H1 9006   4.584   1.237   0.002
 3021TIP3    H2 9007   4.493   1.117   0.023
 3022TIP3   OH2 9008   2.295   3.540   6.780
 3022TIP3    H1 9009   2.277   3.634   6.786
 3022TIP3    H2 9010   2.219   3.498   6.820
 3023TIP3   OH2 9011   1.656   1.149   5.681
 3023TIP3    H1 9012   1.708   1.069   5.692
 3023TIP3    H2 9013   1.589   1.143   5.749
 3024TIP3   OH2 9014   1.865   4.513   3.835
 3024TIP3    H1 9015   1.871   4.466   3.752
 3024TIP3    H2 9016   1.901   4.599   3.817
 3025TIP3   OH2 9017   3.785   6.780   2.680
 3025TIP3    H1 9018   3.758   6.812   2.593
 3025TIP3    H2 9019   3.871   6.741   2.666
 3026TIP3   OH2 9020   5.284   5.545   5.132
 3026TIP3    H1 9021   5.302   5.614   5.068
 3026TIP3    H2 9022   5.282   5.465   5.081
 3027TIP3   OH2 9023   0.301   4.173   5.325
 3027TIP3    H1 9024   0.225   4.124   5.354
 3027TIP3    H2 9025   0.364   4.107   5.297
 3028TIP3   OH2 9026   8.027   3.038   6.643
 3028TIP3    H1 9027   7.985   3.044   6.557
 3028TIP3    H2 9028   8.013   3.125   6.682
 3029TIP3   OH2 9029   1.145   5.774   6.209
 3029TIP3    H1 9030   1.155   5.796   6.302
 3029TIP3    H2 9031   1.171   5.854   6.163
 3030TIP3   OH2 9032   7.996   1.737   0.970
 3030TIP3    H1 9033   8.073   1.699   1.011
 3030TIP3    H2 9034   8.031   1.800   0.907
 3031TIP3   OH2 9035   3.047   1.200   3.860
 3031TIP3    H1 9036   3.117   1.177   3.799
 3031TIP3    H2 9037   3.091   1.244   3.932
 3032TIP3   OH2 9038   4.459   2.564   1.552
 3032TIP3    H1 9039   4.491   2.534   1.468
 3032TIP3    H2 9040   4.386   2.623   1.531
 3033TIP3   OH2 9041   0.343   2.797   2.645
 3033TIP3    H1 9042   0.436   2.803   2.665
 3033TIP3    H2 9043   0.312   2.888   2.646
 3034TIP3   OH2 9044   0.096   1.566   5.311
 3034TIP3    H1 9045   0.160   1.637   5.308
 3034TIP3    H2 9046   0.100   1.526   5.224
 3035TIP3   OH2 9047   7.443   5.316   0.578
 3035TIP3    H1 9048   7.533   5.348   0.570
 3035TIP3    H2 9049   7.407   5.322   0.489
 3036TIP3   OH2 9050   4.473   5.380   2.790
 3036TIP3    H1 9051   4.482   5.341   2.703
 3036TIP3    H2 9052   4.447   5.470   2.773
 3037TIP3   OH2 9053   3.366   7.285   3.564
 3037TIP3    H1 9054   3.330   7.212   3.513
 3037TIP3    H2 9055   3.310   7.290   3.642
 3038TIP3   OH2 9056   4.029   3.107   5.647
 3038TIP3    H1 9057   3.944   3.130   5.685
 3038TIP3    H2 9058   4.052   3.023   5.686
 3039TIP3   OH2 9059   1.677   2.954   5.531
 3039TIP3    H1 9060   1.603   3.003   5.567
 3039TIP3    H2 9061   1.635   2.888   5.475
 3040TIP3   OH2 9062   6.759   3.848   0.137
 3040TIP3    H1 9063   6.728   3.808   0.218
 3040TIP3    H2 9064   6.843   3.888   0.159
 3041TIP3   OH2 9065   1.457   0.502   1.515
 3041TIP3    H1 9066   1.482   0.418   1.552
 3041TIP3    H2 9067   1.429   0.555   1.590
 3042TIP3   OH2 9068   2.780   2.663   6.260
 3042TIP3    H1 9069   2.834   2.705   6.194
 3042TIP3    H2 9070   2.820   2.577   6.273
 3043TIP3   OH2 9071   2.912   5.362   5.453
 3043TIP3    H1 9072   2.963   5.441   5.465
 3043TIP3    H2 9073   2.823   5.386   5.480
 3044TIP3   OH2 9074   1.109   3.906   4.521
 3044TIP3    H1 9075   1.075   3.908   4.432
 3044TIP3    H2 9076   1.162   3.986   4.528
 3045TIP3   OH2 9077   5.540   3.013   4.927
 3045TIP3    H1 9078   5.527   3.057   5.011
 3045TIP3    H2 9079   5.507   2.924   4.941
 3046TIP3   OH2 9080   0.463   2.693   1.803
 3046TIP3    H1 9081   0.421   2.608   1.807
 3046TIP3    H2 9082   0.462   2.725   1.893
 3047TIP3   OH2 9083   3.818   3.821   5.196
 3047TIP3    H1 9084   3.911   3.818   5.172
 3047TIP3    H2 9085   3.792   3.728   5.200
 3048TIP3   OH2 9086   6.400   5.023   4.266
 3048TIP3    H1 9087   6.350   4.973   4.331
 3048TIP3    H2 9088   6.472   5.062   4.316
 3049TIP3   OH2 9089   2.177   7.162   4.036
 3049TIP3    H1 9090   2.087   7.191   4.017
 3049TIP3    H2 9091   2.166   7.078   4.081
 3050TIP3   OH2 9092   1.457   7.314   6.663
 3050TIP3    H1 9093   1.552   7.313   6.664
 3050TIP3    H2 9094   1.433   7.351   6.748
 3051TIP3   OH2 9095   7.823   3.102   2.464
 3051TIP3    H1 9096   7.872   3.142   2.536
 3051TIP3    H2 9097   7.888   3.052   2.415
 3052TIP3   OH2 9098   5.489   1.637   3.354
 3052TIP3    H1 9099   5.496   1.549   3.317
 3052TIP3    H2 9100   5.507   1.626   3.447
 3053TIP3   OH2 9101   7.103   7.580   3.053
 3053TIP3    H1 9102   7.195   7.596   3.073
 3053TIP3    H2 9103   7.057   7.603   3.134
 3054TIP3   OH2 9104   4.680   4.451   1.827
 3054TIP3    H1 9105   4.625   4.411   1.760
 3054TIP3    H2 9106   4.759   4.396   1.828
 3055TIP3   OH2 9107   0.261   6.973   1.517
 3055TIP3    H1 9108   0.322   7.040   1.486
 3055TIP3    H2 9109   0.263   6.980   1.612
 3056TIP3   OH2 9110   2.987   7.800   6.504
 3056TIP3    H1 9111   2.944   7.874   6.461
 3056TIP3    H2 9112   2.938   7.789   6.586
 3057TIP3   OH2 9113   3.340   6.272   3.070
 3057TIP3    H1 9114   3.321   6.180   3.087
 3057TIP3    H2 9115   3.402   6.297   3.139
 3058TIP3   OH2 9116   2.647   0.902   4.031
 3058TIP3    H1 9117   2.719   0.962   4.014
 3058TIP3    H2 9118   2.596   0.901   3.950
 3059TIP3   OH2 9119   6.869   1.159   5.823
 3059TIP3    H1 9120   6.958   1.185   5.845
 3059TIP3    H2 9121   6.880   1.089   5.759
 3060TIP3   OH2 9122   7.274   0.139   0.155
 3060TIP3    H1 9123   7.259   0.051   0.191
 3060TIP3    H2 9124   7.214   0.195   0.202
 3061TIP3   OH2 9125   6.556   4.580   6.105
 3061TIP3    H1 9126   6.504   4.657   6.083
 3061TIP3    H2 9127   6.513   4.508   6.060
 3062TIP3   OH2 9128   7.028   7.795   6.713
 3062TIP3    H1 9129   6.992   7.706   6.718
 3062TIP3    H2 9130   7.114   7.789   6.754
 3063TIP3   OH2 9131   7.568   5.596   1.949
 3063TIP3    H1 9132   7.574   5.642   2.032
 3063TIP3    H2 9133   7.548   5.665   1.885
 3064TIP3   OH2 9134   1.910   1.115   6.725
 3064TIP3    H1 9135   1.907   1.020   6.711
 3064TIP3    H2 9136   1.836   1.133   6.784
 3065TIP3   OH2 9137   7.224   7.017   1.016
 3065TIP3    H1 9138   7.284   6.958   1.062
 3065TIP3    H2 9139   7.140   6.970   1.017
 3066TIP3   OH2 9140   8.275   1.828   3.763
 3066TIP3    H1 9141   8.304   1.915   3.789
 3066TIP3    H2 9142   8.262   1.835   3.668
 3067TIP3   OH2 9143   6.190   0.689   6.270
 3067TIP3    H1 9144   6.104   0.707   6.306
 3067TIP3    H2 9145   6.192   0.594   6.257
 3068TIP3   OH2 9146   8.003   3.586   4.413
 3068TIP3    H1 9147   8.084   3.576   4.362
 3068TIP3    H2 9148   8.030   3.571   4.504
 3069TIP3   OH2 9149   6.429   3.317   1.120
 3069TIP3    H1 9150   6.517   3.329   1.085
 3069TIP3    H2 9151   6.414   3.223   1.115
 3070TIP3   OH2 9152   6.337   5.541   1.220
 3070TIP3    H1 9153   6.265   5.487   1.187
 3070TIP3    H2 9154   6.336   5.618   1.163
 3071TIP3   OH2 9155   4.638   1.922   3.825
 3071TIP3    H1 9156   4.629   1.904   3.731
 3071TIP3    H2 9157   4.702   1.858   3.856
 3072TIP3   OH2 9158   2.124   5.947   3.081
 3072TIP3    H1 9159   2.138   5.880   3.147
 3072TIP3    H2 9160   2.033   5.934   3.053
 3073TIP3   OH2 9161   7.370   1.292   1.160
 3073TIP3    H1 9162   7.410   1.358   1.104
 3073TIP3    H2 9163   7.392   1.209   1.118
 3074TIP3   OH2 9164   3.458   6.702   5.902
 3074TIP3    H1 9165   3.463   6.645   5.825
 3074TIP3    H2 9166   3.483   6.646   5.975
 3075TIP3   OH2 9167   4.077   6.364   0.426
 3075TIP3    H1 9168   4.143   6.434   0.416
 3075TIP3    H2 9169   4.021   6.374   0.349
 3076TIP3   OH2 9170   2.138   1.100   3.485
 3076TIP3    H1 9171   2.228   1.130   3.493
 3076TIP3    H2 9172   2.103   1.150   3.411
 3077TIP3   OH2 9173   4.574   0.708   3.530
 3077TIP3    H1 9174   4.565   0.757   3.449
 3077TIP3    H2 9175   4.486   0.676   3.549
 3078TIP3   OH2 9176   0.210   3.069   6.244
 3078TIP3    H1 9177   0.128   3.021   6.257
 3078TIP3    H2 9178   0.219   3.122   6.324
 3079TIP3   OH2 9179   1.192   5.812   2.155
 3079TIP3    H1 9180   1.154   5.787   2.071
 3079TIP3    H2 9181   1.254   5.742   2.175
 3080TIP3   OH2 9182   8.136   6.194   3.242
 3080TIP3    H1 9183   8.139   6.100   3.225
 3080TIP3    H2 9184   8.190   6.232   3.173
 3081TIP3   OH2 9185   6.096   6.296   4.600
 3081TIP3    H1 9186   6.138   6.251   4.526
 3081TIP3    H2 9187   6.046   6.227   4.644
 3082TIP3   OH2 9188   0.323   0.056   6.534
 3082TIP3    H1 9189   0.380   0.025   6.464
 3082TIP3    H2 9190   0.350   0.146   6.550
 3083TIP3   OH2 9191   6.668   4.861   2.227
 3083TIP3    H1 9192   6.719   4.829   2.153
 3083TIP3    H2 9193   6.732   4.877   2.296
 3084TIP3   OH2 9194   3.688   6.447   0.489
 3084TIP3    H1 9195   3.750   6.392   0.537
 3084TIP3    H2 9196   3.602   6.413   0.514
 3085TIP3   OH2 9197   7.999   3.257   0.565
 3085TIP3    H1 9198   8.052   3.178   0.580
 3085TIP3    H2 9199   7.945   3.236   0.489
 3086TIP3   OH2 9200   3.404   7.228   4.493
 3086TIP3    H1 9201   3.425   7.288   4.565
 3086TIP3    H2 9202   3.310   7.237   4.482
 3087TIP3   OH2 9203   7.796   5.110   6.472
 3087TIP3    H1 9204   7.875   5.158   6.497
 3087TIP3    H2 9205   7.748   5.169   6.416
 3088TIP3   OH2 9206   3.334   5.578   1.684
 3088TIP3    H1 9207   3.327   5.656   1.628
 3088TIP3    H2 9208   3.248   5.571   1.726
 3089TIP3   OH2 9209   7.824   7.503   1.629
 3089TIP3    H1 9210   7.896   7.452   1.590
 3089TIP3    H2 9211   7.820   7.583   1.577
 3090TIP3   OH2 9212   1.166   2.998   1.738
 3090TIP3    H1 9213   1.197   3.089   1.745
 3090TIP3    H2 9214   1.171   2.978   1.645
 3091TIP3   OH2 9215   2.537   2.950   1.854
 3091TIP3    H1 9216   2.569   2.891   1.785
 3091TIP3    H2 9217   2.597   3.024   1.851
 3092TIP3   OH2 9218   1.680   7.145   6.071
 3092TIP3    H1 9219   1.719   7.231   6.058
 3092TIP3    H2 9220   1.630   7.153   6.152
 3093TIP3   OH2 9221   2.388   3.628   5.695
 3093TIP3    H1 9222   2.480   3.622   5.722
 3093TIP3    H2 9223   2.381   3.570   5.619
 3094TIP3   OH2 9224   2.815   0.109   3.864
 3094TIP3    H1 9225   2.768   0.144   3.788
 3094TIP3    H2 9226   2.889   0.061   3.826
 3095TIP3   OH2 9227   2.173   3.112   4.349
 3095TIP3    H1 9228   2.092   3.091   4.395
 3095TIP3    H2 9229   2.169   3.058   4.270
 3096TIP3   OH2 9230   7.682   7.519   6.112
 3096TIP3    H1 9231   7.727   7.570   6.179
 3096TIP3    H2 9232   7.742   7.447   6.092
 3097TIP3   OH2 9233   5.745   1.866   1.125
 3097TIP3    H1 9234   5.830   1.862   1.169
 3097TIP3    H2 9235   5.681   1.854   1.195
 3098TIP3   OH2 9236   3.679   6.894   1.814
 3098TIP3    H1 9237   3.717   6.957   1.875
 3098TIP3    H2 9238   3.651   6.946   1.739
 3099TIP3   OH2 9239   4.750   2.845   4.419
 3099TIP3    H1 9240   4.693   2.882   4.352
 3099TIP3    H2 9241   4.835   2.838   4.377
 3100TIP3   OH2 9242   4.078   5.718   6.630
 3100TIP3    H1 9243   4.118   5.637   6.663
 3100TIP3    H2 9244   4.107   5.723   6.539
 3101TIP3   OH2 9245   3.398   1.996   4.382
 3101TIP3    H1 9246   3.387   1.901   4.382
 3101TIP3    H2 9247   3.311   2.031   4.403
 3102TIP3   OH2 9248   7.823   6.068   6.288
 3102TIP3    H1 9249   7.733   6.066   6.255
 3102TIP3    H2 9250   7.838   5.979   6.320
 3103TIP3   OH2 9251   1.145   5.164   3.075
 3103TIP3    H1 9252   1.055   5.193   3.091
 3103TIP3    H2 9253   1.137   5.077   3.037
 3104TIP3   OH2 9254   5.955   3.784   4.480
 3104TIP3    H1 9255   6.017   3.754   4.546
 3104TIP3    H2 9256   5.994   3.757   4.397
 3105TIP3   OH2 9257   3.320   4.998   6.672
 3105TIP3    H1 9258   3.355   5.021   6.758
 3105TIP3    H2 9259   3.325   5.079   6.622
 3106TIP3   OH2 9260   1.479   2.004   5.979
 3106TIP3    H1 9261   1.480   1.909   5.967
 3106TIP3    H2 9262   1.417   2.036   5.913
 3107TIP3   OH2 9263   8.208   1.719   2.152
 3107TIP3    H1 9264   8.251   1.637   2.129
 3107TIP3    H2 9265   8.181   1.707   2.243
 3108TIP3   OH2 9266   4.295   6.679   3.079
 3108TIP3    H1 9267   4.339   6.759   3.106
 3108TIP3    H2 9268   4.204   6.691   3.106
 3109TIP3   OH2 9269   4.212   1.010   5.575
 3109TIP3    H1 9270   4.238   0.919   5.559
 3109TIP3    H2 9271   4.117   1.010   5.563
 3110TIP3   OH2 9272   1.327   4.084   0.515
 3110TIP3    H1 9273   1.259   4.049   0.457
 3110TIP3    H2 9274   1.278   4.131   0.583
 3111TIP3   OH2 9275   1.744   3.435   2.519
 3111TIP3    H1 9276   1.696   3.378   2.579
 3111TIP3    H2 9277   1.808   3.377   2.477
 3112TIP3   OH2 9278   1.183   1.605   0.594
 3112TIP3    H1 9279   1.249   1.665   0.559
 3112TIP3    H2 9280   1.233   1.528   0.621
 3113TIP3   OH2 9281   4.233   5.738   3.192
 3113TIP3    H1 9282   4.328   5.738   3.191
 3113TIP3    H2 9283   4.208   5.683   3.117
 3114TIP3   OH2 9284   3.201   3.708   0.809
 3114TIP3    H1 9285   3.208   3.652   0.887
 3114TIP3    H2 9286   3.129   3.670   0.759
 3115TIP3   OH2 9287   2.848   6.094   4.006
 3115TIP3    H1 9288   2.905   6.117   4.079
 3115TIP3    H2 9289   2.786   6.167   3.999
 3116TIP3   OH2 9290   0.388   7.561   1.813
 3116TIP3    H1 9291   0.312   7.534   1.865
 3116TIP3    H2 9292   0.452   7.491   1.826
 3117TIP3   OH2 9293   5.255   0.520   4.665
 3117TIP3    H1 9294   5.332   0.480   4.623
 3117TIP3    H2 9295   5.288   0.549   4.750
 3118TIP3   OH2 9296   0.718   1.143   4.320
 3118TIP3    H1 9297   0.682   1.140   4.408
 3118TIP3    H2 9298   0.644   1.171   4.265
 3119TIP3   OH2 9299   2.511   5.895   1.888
 3119TIP3    H1 9300   2.519   5.879   1.794
 3119TIP3    H2 9301   2.507   5.808   1.927
 3120TIP3   OH2 9302   3.914   5.564   3.644
 3120TIP3    H1 9303   3.928   5.539   3.735
 3120TIP3    H2 9304   3.822   5.542   3.628
 3121TIP3   OH2 9305   0.167   0.532   3.085
 3121TIP3    H1 9306   0.185   0.438   3.084
 3121TIP3    H2 9307   0.072   0.538   3.073
 3122TIP3   OH2 9308   6.773   5.717   3.659
 3122TIP3    H1 9309   6.792   5.806   3.690
 3122TIP3    H2 9310   6.841   5.699   3.594
 3123TIP3   OH2 9311   0.791   5.484   1.181
 3123TIP3    H1 9312   0.715   5.454   1.231
 3123TIP3    H2 9313   0.823   5.405   1.137
 3124TIP3   OH2 9314   0.233   5.563   5.910
 3124TIP3    H1 9315   0.288   5.525   5.842
 3124TIP3    H2 9316   0.284   5.636   5.945
 3125TIP3   OH2 9317   4.783   2.984   1.904
 3125TIP3    H1 9318   4.752   3.073   1.920
 3125TIP3    H2 9319   4.879   2.991   1.903
 3126TIP3   OH2 9320   2.294   1.841   2.263
 3126TIP3    H1 9321   2.206   1.871   2.287
 3126TIP3    H2 9322   2.344   1.848   2.344
 3127TIP3   OH2 9323   6.121   2.630   3.009
 3127TIP3    H1 9324   6.154   2.693   3.073
 3127TIP3    H2 9325   6.199   2.597   2.965
 3128TIP3   OH2 9326   5.935   6.900   3.122
 3128TIP3    H1 9327   5.999   6.968   3.144
 3128TIP3    H2 9328   5.877   6.942   3.059
 3129TIP3   OH2 9329   1.305   5.292   0.927
 3129TIP3    H1 9330   1.362   5.287   1.004
 3129TIP3    H2 9331   1.364   5.319   0.856
 3130TIP3   OH2 9332   0.956   0.208   6.692
 3130TIP3    H1 9333   0.953   0.301   6.669
 3130TIP3    H2 9334   0.875   0.173   6.656
 3131TIP3   OH2 9335   4.522   6.710   1.942
 3131TIP3    H1 9336   4.546   6.792   1.987
 3131TIP3    H2 9337   4.521   6.733   1.849
 3132TIP3   OH2 9338   7.160   2.271   3.769
 3132TIP3    H1 9339   7.218   2.346   3.753
 3132TIP3    H2 9340   7.213   2.210   3.819
 3133TIP3   OH2 9341   3.842   6.151   0.189
 3133TIP3    H1 9342   3.811   6.060   0.190
 3133TIP3    H2 9343   3.781   6.197   0.247
 3134TIP3   OH2 9344   1.797   7.670   2.671
 3134TIP3    H1 9345   1.818   7.607   2.601
 3134TIP3    H2 9346   1.829   7.628   2.751
 3135TIP3   OH2 9347   6.812   6.136   4.982
 3135TIP3    H1 9348   6.852   6.050   4.992
 3135TIP3    H2 9349   6.781   6.138   4.891
 3136TIP3   OH2 9350   5.342   3.457   1.840
 3136TIP3    H1 9351   5.255   3.458   1.880
 3136TIP3    H2 9352   5.386   3.533   1.878
 3137TIP3   OH2 9353   7.695   2.164   3.371
 3137TIP3    H1 9354   7.700   2.239   3.430
 3137TIP3    H2 9355   7.784   2.155   3.336
 3138TIP3   OH2 9356   5.774   0.707   6.776
 3138TIP3    H1 9357   5.705   0.643   6.763
 3138TIP3    H2 9358   5.855   0.661   6.751
 3139TIP3   OH2 9359   4.884   4.656   1.199
 3139TIP3    H1 9360   4.798   4.663   1.240
 3139TIP3    H2 9361   4.891   4.734   1.144
 3140TIP3   OH2 9362   1.422   4.167   2.247
 3140TIP3    H1 9363   1.474   4.238   2.285
 3140TIP3    H2 9364   1.413   4.191   2.155
 3141TIP3   OH2 9365   4.486   1.360   3.704
 3141TIP3    H1 9366   4.534   1.436   3.671
 3141TIP3    H2 9367   4.429   1.396   3.773
 3142TIP3   OH2 9368   5.731   4.774   0.891
 3142TIP3    H1 9369   5.785   4.851   0.908
 3142TIP3    H2 9370   5.642   4.803   0.909
 3143TIP3   OH2 9371   6.543   3.151   0.754
 3143TIP3    H1 9372   6.529   3.057   0.741
 3143TIP3    H2 9373   6.597   3.178   0.680
 3144TIP3   OH2 9374   2.690   3.053   2.134
 3144TIP3    H1 9375   2.734   2.990   2.077
 3144TIP3    H2 9376   2.760   3.108   2.169
 3145TIP3   OH2 9377   7.487   3.021   5.418
 3145TIP3    H1 9378   7.492   3.025   5.323
 3145TIP3    H2 9379   7.393   3.019   5.436
 3146TIP3   OH2 9380   1.585   7.878   5.631
 3146TIP3    H1 9381   1.623   7.790   5.624
 3146TIP3    H2 9382   1.635   7.930   5.568
 3147TIP3   OH2 9383   8.213   5.051   3.977
 3147TIP3    H1 9384   8.189   5.116   3.912
 3147TIP3    H2 9385   8.201   4.967   3.933
 3148TIP3   OH2 9386   2.955   7.140   1.211
 3148TIP3    H1 9387   3.044   7.128   1.179
 3148TIP3    H2 9388   2.966   7.188   1.293
 3149TIP3   OH2 9389   5.655   4.181   4.029
 3149TIP3    H1 9390   5.634   4.147   4.115
 3149TIP3    H2 9391   5.656   4.104   3.972
 3150TIP3   OH2 9392   1.921   5.225   5.896
 3150TIP3    H1 9393   1.905   5.179   5.814
 3150TIP3    H2 9394   2.017   5.231   5.901
 3151TIP3   OH2 9395   1.913   1.182   0.423
 3151TIP3    H1 9396   1.928   1.203   0.515
 3151TIP3    H2 9397   2.001   1.169   0.387
 3152TIP3   OH2 9398   0.503   1.394   1.604
 3152TIP3    H1 9399   0.489   1.302   1.582
 3152TIP3    H2 9400   0.518   1.394   1.699
 3153TIP3   OH2 9401   6.677   5.866   2.946
 3153TIP3    H1 9402   6.757   5.900   2.906
 3153TIP3    H2 9403   6.618   5.851   2.872
 3154TIP3   OH2 9404   2.339  -0.007   4.010
 3154TIP3    H1 9405   2.402   0.013   4.078
 3154TIP3    H2 9406   2.322   0.077   3.968
 3155TIP3   OH2 9407   2.695   2.074   0.749
 3155TIP3    H1 9408   2.721   2.160   0.717
 3155TIP3    H2 9409   2.740   2.065   0.833
 3156TIP3   OH2 9410   2.917   2.608   1.139
 3156TIP3    H1 9411   2.920   2.610   1.234
 3156TIP3    H2 9412   2.838   2.657   1.116
 3157TIP3   OH2 9413   6.320   7.459   5.883
 3157TIP3    H1 9414   6.232   7.473   5.848
 3157TIP3    H2 9415   6.374   7.441   5.806
 3158TIP3   OH2 9416   4.712   4.509   3.182
 3158TIP3    H1 9417   4.760   4.440   3.136
 3158TIP3    H2 9418   4.780   4.572   3.208
 3159TIP3   OH2 9419   0.491   0.625   6.410
 3159TIP3    H1 9420   0.441   0.578   6.344
 3159TIP3    H2 9421   0.582   0.619   6.381
 3160TIP3   OH2 9422   2.171   4.796   5.180
 3160TIP3    H1 9423   2.138   4.851   5.251
 3160TIP3    H2 9424   2.239   4.742   5.221
 3161TIP3   OH2 9425   6.062   3.211   1.076
 3161TIP3    H1 9426   6.066   3.180   0.985
 3161TIP3    H2 9427   6.070   3.306   1.069
 3162TIP3   OH2 9428   5.619   5.438   0.563
 3162TIP3    H1 9429   5.599   5.530   0.579
 3162TIP3    H2 9430   5.640   5.402   0.650
 3163TIP3   OH2 9431   4.109   0.352   4.313
 3163TIP3    H1 9432   4.087   0.331   4.404
 3163TIP3    H2 9433   4.123   0.267   4.271
 3164TIP3   OH2 9434   1.048   3.436   2.681
 3164TIP3    H1 9435   0.965   3.389   2.673
 3164TIP3    H2 9436   1.034   3.497   2.754
 3165TIP3   OH2 9437   3.502   6.113   1.677
 3165TIP3    H1 9438   3.453   6.122   1.758
 3165TIP3    H2 9439   3.437   6.121   1.607
 3166TIP3   OH2 9440   6.039   1.625   5.742
 3166TIP3    H1 9441   5.947   1.606   5.762
 3166TIP3    H2 9442   6.072   1.667   5.822
 3167TIP3   OH2 9443   5.637   3.957   3.167
 3167TIP3    H1 9444   5.636   3.884   3.230
 3167TIP3    H2 9445   5.548   3.960   3.132
 3168TIP3   OH2 9446   3.848   5.483   6.283
 3168TIP3    H1 9447   3.867   5.568   6.322
 3168TIP3    H2 9448   3.753   5.473   6.292
 3169TIP3   OH2 9449   2.978   5.290   5.056
 3169TIP3    H1 9450   3.015   5.263   4.972
 3169TIP3    H2 9451   2.894   5.329   5.034
 3170TIP3   OH2 9452   3.995   2.187   1.479
 3170TIP3    H1 9453   3.930   2.251   1.452
 3170TIP3    H2 9454   3.972   2.164   1.568
 3171TIP3   OH2 9455   0.763   4.958   5.957
 3171TIP3    H1 9456   0.748   4.957   5.862
 3171TIP3    H2 9457   0.787   5.048   5.976
 3172TIP3   OH2 9458   6.620   2.612   4.324
 3172TIP3    H1 9459   6.629   2.540   4.387
 3172TIP3    H2 9460   6.648   2.690   4.374
 3173TIP3   OH2 9461   1.502   5.114   0.335
 3173TIP3    H1 9462   1.498   5.160   0.251
 3173TIP3    H2 9463   1.499   5.021   0.311
 3174TIP3   OH2 9464   6.320   4.546   1.247
 3174TIP3    H1 9465   6.351   4.609   1.182
 3174TIP3    H2 9466   6.358   4.576   1.329
 3175TIP3   OH2 9467   1.793   2.807   1.660
 3175TIP3    H1 9468   1.749   2.867   1.721
 3175TIP3    H2 9469   1.737   2.729   1.659
 3176TIP3   OH2 9470   5.413   5.019   2.523
 3176TIP3    H1 9471   5.389   4.926   2.513
 3176TIP3    H2 9472   5.393   5.039   2.614
 3177TIP3   OH2 9473   4.050   0.824   4.068
 3177TIP3    H1 9474   4.123   0.764   4.084
 3177TIP3    H2 9475   3.972   0.770   4.074
 3178TIP3   OH2 9476   1.560   4.576   5.482
 3178TIP3    H1 9477   1.557   4.578   5.577
 3178TIP3    H2 9478   1.597   4.660   5.456
 3179TIP3   OH2 9479   0.183   5.691   4.053
 3179TIP3    H1 9480   0.249   5.622   4.052
 3179TIP3    H2 9481   0.231   5.770   4.030
 3180TIP3   OH2 9482   8.228   5.549   2.269
 3180TIP3    H1 9483   8.174   5.474   2.295
 3180TIP3    H2 9484   8.216   5.613   2.340
 3181TIP3   OH2 9485   4.771   4.840   3.654
 3181TIP3    H1 9486   4.779   4.899   3.579
 3181TIP3    H2 9487   4.862   4.816   3.675
 3182TIP3   OH2 9488   5.216   3.633   1.313
 3182TIP3    H1 9489   5.302   3.626   1.271
 3182TIP3    H2 9490   5.156   3.647   1.240
 3183TIP3   OH2 9491   1.269   5.263   2.482
 3183TIP3    H1 9492   1.249   5.355   2.498
 3183TIP3    H2 9493   1.263   5.221   2.568
 3184TIP3   OH2 9494   2.328   4.927   2.761
 3184TIP3    H1 9495   2.280   4.917   2.843
 3184TIP3    H2 9496   2.276   4.988   2.709
 3185TIP3   OH2 9497   2.676   3.675   1.144
 3185TIP3    H1 9498   2.662   3.636   1.059
 3185TIP3    H2 9499   2.633   3.616   1.206
 3186TIP3   OH2 9500   4.854   3.758   2.239
 3186TIP3    H1 9501   4.806   3.833   2.204
 3186TIP3    H2 9502   4.833   3.757   2.332
 3187TIP3   OH2 9503   5.952   4.555   0.221
 3187TIP3    H1 9504   5.907   4.523   0.143
 3187TIP3    H2 9505   5.882   4.574   0.283
 3188TIP3   OH2 9506   5.683   1.170   3.339
 3188TIP3    H1 9507   5.754   1.215   3.383
 3188TIP3    H2 9508   5.683   1.081   3.376
 3189TIP3   OH2 9509   1.153   4.627   3.977
 3189TIP3    H1 9510   1.212   4.558   4.007
 3189TIP3    H2 9511   1.065   4.588   3.984
 3190TIP3   OH2 9512   0.677   1.442   3.177
 3190TIP3    H1 9513   0.764   1.432   3.139
 3190TIP3    H2 9514   0.665   1.363   3.231
 3191TIP3   OH2 9515   6.700   7.605   3.838
 3191TIP3    H1 9516   6.666   7.617   3.927
 3191TIP3    H2 9517   6.738   7.518   3.838
 3192TIP3   OH2 9518   6.308   3.691   3.395
 3192TIP3    H1 9519   6.246   3.629   3.434
 3192TIP3    H2 9520   6.289   3.689   3.302
 3193TIP3   OH2 9521   1.420   2.276   0.009
 3193TIP3    H1 9522   1.338   2.321   0.030
 3193TIP3    H2 9523   1.422   2.201   0.069
 3194TIP3   OH2 9524   3.717   3.641   2.074
 3194TIP3    H1 9525   3.744   3.577   2.140
 3194TIP3    H2 9526   3.771   3.621   1.998
 3195TIP3   OH2 9527   6.119   5.847   1.023
 3195TIP3    H1 9528   6.209   5.812   1.020
 3195TIP3    H2 9529   6.130   5.942   1.019
 3196TIP3   OH2 9530   1.471   3.525   1.147
 3196TIP3    H1 9531   1.420   3.584   1.092
 3196TIP3    H2 9532   1.551   3.508   1.097
 3197TIP3   OH2 9533   2.113   3.313   5.100
 3197TIP3    H1 9534   2.053   3.387   5.096
 3197TIP3    H2 9535   2.108   3.272   5.014
 3198TIP3   OH2 9536   1.093   4.868   3.088
 3198TIP3    H1 9537   1.052   4.858   3.002
 3198TIP3    H2 9538   1.058   4.795   3.140
 3199TIP3   OH2 9539   0.108   2.548   4.445
 3199TIP3    H1 9540   0.059   2.581   4.370
 3199TIP3    H2 9541   0.096   2.453   4.441
 3200TIP3   OH2 9542   7.356   2.632   1.833
 3200TIP3    H1 9543   7.375   2.623   1.740
 3200TIP3    H2 9544   7.439   2.612   1.876
 3201TIP3   OH2 9545   1.073   5.428   0.098
 3201TIP3    H1 9546   1.144   5.373   0.130
 3201TIP3    H2 9547   1.045   5.386   0.016
 3202TIP3   OH2 9548   5.397   7.499   5.102
 3202TIP3    H1 9549   5.465   7.441   5.069
 3202TIP3    H2 9550   5.413   7.503   5.197
 3203TIP3   OH2 9551   2.695   2.699   1.983
 3203TIP3    H1 9552   2.683   2.654   2.067
 3203TIP3    H2 9553   2.621   2.759   1.977
 3204TIP3   OH2 9554   5.592   4.963   5.329
 3204TIP3    H1 9555   5.610   5.022   5.401
 3204TIP3    H2 9556   5.556   4.885   5.370
 3205TIP3   OH2 9557   5.344   1.872   6.295
 3205TIP3    H1 9558   5.268   1.819   6.271
 3205TIP3    H2 9559   5.406   1.858   6.224
 3206TIP3   OH2 9560   0.315   3.373   1.948
 3206TIP3    H1 9561   0.293   3.435   1.879
 3206TIP3    H2 9562   0.349   3.426   2.019
 3207TIP3   OH2 9563   7.791   4.147   2.444
 3207TIP3    H1 9564   7.847   4.223   2.429
 3207TIP3    H2 9565   7.828   4.105   2.522
 3208TIP3   OH2 9566   2.854   0.449   6.222
 3208TIP3    H1 9567   2.919   0.379   6.218
 3208TIP3    H2 9568   2.770   0.403   6.233
 3209TIP3   OH2 9569   7.491   0.311   1.691
 3209TIP3    H1 9570   7.546   0.305   1.613
 3209TIP3    H2 9571   7.552   0.315   1.764
 3210TIP3   OH2 9572   5.583   3.510   3.145
 3210TIP3    H1 9573   5.678   3.520   3.138
 3210TIP3    H2 9574   5.563   3.427   3.102
 3211TIP3   OH2 9575   2.619   6.647   6.513
 3211TIP3    H1 9576   2.654   6.683   6.432
 3211TIP3    H2 9577   2.531   6.616   6.490
 3212TIP3   OH2 9578   0.396   1.476   1.269
 3212TIP3    H1 9579   0.345   1.441   1.197
 3212TIP3    H2 9580   0.463   1.531   1.227
 3213TIP3   OH2 9581   3.524   1.624   5.274
 3213TIP3    H1 9582   3.543   1.553   5.214
 3213TIP3    H2 9583   3.579   1.606   5.351
 3214TIP3   OH2 9584   8.212   6.721   0.020
 3214TIP3    H1 9585   8.149   6.704   0.090
 3214TIP3    H2 9586   8.288   6.760   0.064
 3215TIP3   OH2 9587   0.271   6.748   6.243
 3215TIP3    H1 9588   0.323   6.811   6.193
 3215TIP3    H2 9589   0.331   6.676   6.260
 3216TIP3   OH2 9590   7.851   7.646   5.279
 3216TIP3    H1 9591   7.856   7.550   5.276
 3216TIP3    H2 9592   7.843   7.667   5.372
 3217TIP3   OH2 9593   6.803   1.130   0.152
 3217TIP3    H1 9594   6.848   1.107   0.234
 3217TIP3    H2 9595   6.740   1.059   0.139
 3218TIP3   OH2 9596   0.234   6.500   2.102
 3218TIP3    H1 9597   0.161   6.446   2.070
 3218TIP3    H2 9598   0.200   6.590   2.101
 3219TIP3   OH2 9599   1.293   0.571   1.858
 3219TIP3    H1 9600   1.308   0.648   1.914
 3219TIP3    H2 9601   1.304   0.604   1.769
 3220TIP3   OH2 9602   0.082   7.331   2.385
 3220TIP3    H1 9603   0.151   7.397   2.389
 3220TIP3    H2 9604   0.065   7.320   2.291
 3221TIP3   OH2 9605   3.221   5.845   6.462
 3221TIP3    H1 9606   3.279   5.771   6.479
 3221TIP3    H2 9607   3.168   5.852   6.542
 3222TIP3   OH2 9608   2.216   1.892   1.986
 3222TIP3    H1 9609   2.249   1.838   2.058
 3222TIP3    H2 9610   2.290   1.946   1.960
 3223TIP3   OH2 9611   0.304   2.705   0.210
 3223TIP3    H1 9612   0.356   2.785   0.201
 3223TIP3    H2 9613   0.268   2.690   0.123
 3224TIP3   OH2 9614   1.151   6.198   3.471
 3224TIP3    H1 9615   1.153   6.179   3.564
 3224TIP3    H2 9616   1.179   6.289   3.463
 3225TIP3   OH2 9617   7.466   3.618   2.318
 3225TIP3    H1 9618   7.385   3.567   2.322
 3225TIP3    H2 9619   7.524   3.576   2.381
 3226TIP3   OH2 9620   4.894   2.277   0.259
 3226TIP3    H1 9621   4.912   2.260   0.351
 3226TIP3    H2 9622   4.863   2.367   0.256
 3227TIP3   OH2 9623   2.022   0.798   1.632
 3227TIP3    H1 9624   1.993   0.766   1.546
 3227TIP3    H2 9625   2.022   0.893   1.623
 3228TIP3   OH2 9626   7.806   0.094   2.267
 3228TIP3    H1 9627   7.714   0.119   2.275
 3228TIP3    H2 9628   7.819   0.029   2.336
 3229TIP3   OH2 9629   4.552   6.848   2.853
 3229TIP3    H1 9630   4.502   6.924   2.883
 3229TIP3    H2 9631   4.583   6.872   2.766
 3230TIP3   OH2 9632   1.305   5.406   0.388
 3230TIP3    H1 9633   1.220   5.435   0.421
 3230TIP3    H2 9634   1.287   5.323   0.344
 3231TIP3   OH2 9635   1.992   6.351   3.607
 3231TIP3    H1 9636   1.899   6.362   3.585
 3231TIP3    H2 9637   2.032   6.435   3.586
 3232TIP3   OH2 9638   3.329   5.371   1.867
 3232TIP3    H1 9639   3.369   5.398   1.785
 3232TIP3    H2 9640   3.246   5.419   1.871
 3233TIP3   OH2 9641   4.861   6.718   2.659
 3233TIP3    H1 9642   4.811   6.637   2.659
 3233TIP3    H2 9643   4.821   6.771   2.590
 3234TIP3   OH2 9644   2.616   4.165   5.761
 3234TIP3    H1 9645   2.618   4.094   5.825
 3234TIP3    H2 9646   2.626   4.122   5.676
 3235TIP3   OH2 9647   5.195   4.163   4.058
 3235TIP3    H1 9648   5.159   4.154   4.147
 3235TIP3    H2 9649   5.249   4.242   4.063
 3236TIP3   OH2 9650   3.417   1.542   2.238
 3236TIP3    H1 9651   3.323   1.550   2.225
 3236TIP3    H2 9652   3.437   1.602   2.311
 3237TIP3   OH2 9653   1.598   2.346   1.962
 3237TIP3    H1 9654   1.624   2.355   1.870
 3237TIP3    H2 9655   1.522   2.403   1.971
 3238TIP3   OH2 9656   2.836   6.467   3.355
 3238TIP3    H1 9657   2.866   6.548   3.314
 3238TIP3    H2 9658   2.913   6.410   3.355
 3239TIP3   OH2 9659   7.251   4.736   6.625
 3239TIP3    H1 9660   7.159   4.765   6.621
 3239TIP3    H2 9661   7.294   4.783   6.554
 3240TIP3   OH2 9662   1.113   2.662   0.302
 3240TIP3    H1 9663   1.030   2.692   0.266
 3240TIP3    H2 9664   1.136   2.585   0.249
 3241TIP3   OH2 9665   3.574   7.794   0.819
 3241TIP3    H1 9666   3.575   7.706   0.781
 3241TIP3    H2 9667   3.661   7.806   0.856
 3242TIP3   OH2 9668   6.996   3.596   4.694
 3242TIP3    H1 9669   6.990   3.628   4.604
 3242TIP3    H2 9670   7.053   3.520   4.690
 3243TIP3   OH2 9671   2.409   1.344   6.122
 3243TIP3    H1 9672   2.503   1.358   6.131
 3243TIP3    H2 9673   2.375   1.353   6.211
 3244TIP3   OH2 9674   5.177   1.822   5.843
 3244TIP3    H1 9675   5.185   1.749   5.904
 3244TIP3    H2 9676   5.083   1.833   5.830
 3245TIP3   OH2 9677   0.209   0.754   3.968
 3245TIP3    H1 9678   0.252   0.691   4.025
 3245TIP3    H2 9679   0.152   0.804   4.026
 3246TIP3   OH2 9680   7.189   2.277   0.493
 3246TIP3    H1 9681   7.135   2.265   0.415
 3246TIP3    H2 9682   7.231   2.362   0.481
 3247TIP3   OH2 9683   4.458   6.836   5.799
 3247TIP3    H1 9684   4.502   6.855   5.716
 3247TIP3    H2 9685   4.525   6.849   5.866
 3248TIP3   OH2 9686   3.616   5.703   6.555
 3248TIP3    H1 9687   3.702   5.682   6.591
 3248TIP3    H2 9688   3.617   5.798   6.543
 3249TIP3   OH2 9689   7.296   1.257   0.499
 3249TIP3    H1 9690   7.268   1.348   0.484
 3249TIP3    H2 9691   7.270   1.211   0.420
 3250TIP3   OH2 9692   0.843   5.449   5.546
 3250TIP3    H1 9693   0.802   5.513   5.488
 3250TIP3    H2 9694   0.923   5.492   5.576
 3251TIP3   OH2 9695   1.708   4.613   6.135
 3251TIP3    H1 9696   1.797   4.579   6.137
 3251TIP3    H2 9697   1.667   4.569   6.061
 3252TIP3   OH2 9698   3.626   7.692   4.248
 3252TIP3    H1 9699   3.695   7.668   4.309
 3252TIP3    H2 9700   3.626   7.622   4.183
 3253TIP3   OH2 9701   1.228   1.909   6.094
 3253TIP3    H1 9702   1.221   1.948   6.008
 3253TIP3    H2 9703   1.311   1.861   6.093
 3254TIP3   OH2 9704   6.925   1.277   5.415
 3254TIP3    H1 9705   6.846   1.309   5.458
 3254TIP3    H2 9706   6.992   1.282   5.483
 3255TIP3   OH2 9707   5.334   5.058   4.324
 3255TIP3    H1 9708   5.326   5.142   4.279
 3255TIP3    H2 9709   5.244   5.032   4.344
 3256TIP3   OH2 9710   0.454   3.992   3.864
 3256TIP3    H1 9711   0.382   3.936   3.892
 3256TIP3    H2 9712   0.471   3.967   3.773
 3257TIP3   OH2 9713   0.005   4.380   6.263
 3257TIP3    H1 9714   0.057   4.409   6.188
 3257TIP3    H2 9715  -0.045   4.305   6.230
 3258TIP3   OH2 9716   5.383   2.822   0.793
 3258TIP3    H1 9717   5.381   2.748   0.733
 3258TIP3    H2 9718   5.345   2.895   0.744
 3259TIP3   OH2 9719   6.153   2.767   3.740
 3259TIP3    H1 9720   6.166   2.859   3.719
 3259TIP3    H2 9721   6.097   2.768   3.818
 3260TIP3   OH2 9722   2.106   6.441   1.930
 3260TIP3    H1 9723   2.013   6.426   1.944
 3260TIP3    H2 9724   2.133   6.499   2.001
 3261TIP3   OH2 9725   3.461   2.912   5.828
 3261TIP3    H1 9726   3.452   3.000   5.863
 3261TIP3    H2 9727   3.556   2.900   5.817
 3262TIP3   OH2 9728   4.958   7.332   3.691
 3262TIP3    H1 9729   4.999   7.381   3.620
 3262TIP3    H2 9730   4.893   7.277   3.648
 3263TIP3   OH2 9731   2.432   6.574   1.718
 3263TIP3    H1 9732   2.525   6.581   1.700
 3263TIP3    H2 9733   2.425   6.583   1.813
 3264TIP3   OH2 9734   1.448   0.979   4.959
 3264TIP3    H1 9735   1.512   0.971   4.888
 3264TIP3    H2 9736   1.363   0.972   4.916
 3265TIP3   OH2 9737   4.608   6.562   6.627
 3265TIP3    H1 9738   4.675   6.630   6.616
 3265TIP3    H2 9739   4.655   6.485   6.657
 3266TIP3   OH2 9740   4.726   3.380   6.780
 3266TIP3    H1 9741   4.672   3.306   6.807
 3266TIP3    H2 9742   4.665   3.441   6.738
 3267TIP3   OH2 9743   4.492   0.300   3.531
 3267TIP3    H1 9744   4.436   0.223   3.546
 3267TIP3    H2 9745   4.447   0.371   3.576
 3268TIP3   OH2 9746   4.415   4.599   0.254
 3268TIP3    H1 9747   4.380   4.673   0.206
 3268TIP3    H2 9748   4.493   4.573   0.205
 3269TIP3   OH2 9749   3.678   5.815   4.998
 3269TIP3    H1 9750   3.652   5.803   4.906
 3269TIP3    H2 9751   3.598   5.845   5.042
 3270TIP3   OH2 9752   2.844   4.693   0.997
 3270TIP3    H1 9753   2.759   4.722   0.964
 3270TIP3    H2 9754   2.908   4.729   0.936
 3271TIP3   OH2 9755   6.666   5.053   3.859
 3271TIP3    H1 9756   6.667   5.079   3.951
 3271TIP3    H2 9757   6.610   4.976   3.855
 3272TIP3   OH2 9758   8.271   4.728   1.380
 3272TIP3    H1 9759   8.340   4.662   1.383
 3272TIP3    H2 9760   8.232   4.719   1.293
 3273TIP3   OH2 9761   1.912   5.141   3.471
 3273TIP3    H1 9762   1.937   5.221   3.424
 3273TIP3    H2 9763   1.858   5.171   3.544
 3274TIP3   OH2 9764   5.594   3.351   0.841
 3274TIP3    H1 9765   5.584   3.352   0.746
 3274TIP3    H2 9766   5.506   3.367   0.875
 3275TIP3   OH2 9767   1.011   0.560   2.921
 3275TIP3    H1 9768   1.064   0.639   2.935
 3275TIP3    H2 9769   1.056   0.492   2.971
 3276TIP3   OH2 9770   6.868   6.796   2.623
 3276TIP3    H1 9771   6.949   6.764   2.662
 3276TIP3    H2 9772   6.893   6.822   2.534
 3277TIP3   OH2 9773   7.249   1.988   2.922
 3277TIP3    H1 9774   7.254   2.060   2.859
 3277TIP3    H2 9775   7.324   1.933   2.903
 3278TIP3   OH2 9776   0.672   6.818   0.011
 3278TIP3    H1 9777   0.618   6.771  -0.053
 3278TIP3    H2 9778   0.661   6.768   0.092
 3279TIP3   OH2 9779   6.290   1.694   4.906
 3279TIP3    H1 9780   6.214   1.673   4.852
 3279TIP3    H2 9781   6.365   1.666   4.853
 3280TIP3   OH2 9782   1.574   1.201   3.895
 3280TIP3    H1 9783   1.591   1.270   3.831
 3280TIP3    H2 9784   1.531   1.132   3.844
 3281TIP3   OH2 9785   3.283   5.194   6.199
 3281TIP3    H1 9786   3.325   5.273   6.166
 3281TIP3    H2 9787   3.318   5.182   6.287
 3282TIP3   OH2 9788   5.482   1.728   4.823
 3282TIP3    H1 9789   5.406   1.681   4.859
 3282TIP3    H2 9790   5.547   1.723   4.893
 3283TIP3   OH2 9791   0.495   6.606   1.397
 3283TIP3    H1 9792   0.563   6.639   1.455
 3283TIP3    H2 9793   0.456   6.533   1.444
 3284TIP3   OH2 9794   1.125   1.811   5.554
 3284TIP3    H1 9795   1.115   1.906   5.556
 3284TIP3    H2 9796   1.035   1.778   5.548
 3285TIP3   OH2 9797   2.092   5.386   5.321
 3285TIP3    H1 9798   2.038   5.313   5.349
 3285TIP3    H2 9799   2.057   5.410   5.235
 3286TIP3   OH2 9800   7.906   0.433   5.052
 3286TIP3    H1 9801   7.992   0.396   5.074
 3286TIP3    H2 9802   7.869   0.460   5.135
 3287TIP3   OH2 9803   7.340   7.721   3.872
 3287TIP3    H1 9804   7.291   7.669   3.808
 3287TIP3    H2 9805   7.358   7.804   3.828
 3288TIP3   OH2 9806   1.006   1.007   4.012
 3288TIP3    H1 9807   0.958   0.965   3.941
 3288TIP3    H2 9808   0.983   1.100   4.004
 3289TIP3   OH2 9809   0.617   2.297   6.378
 3289TIP3    H1 9810   0.595   2.258   6.293
 3289TIP3    H2 9811   0.582   2.386   6.372
 3290TIP3   OH2 9812   0.879   6.004   2.139
 3290TIP3    H1 9813   0.874   6.100   2.140
 3290TIP3    H2 9814   0.948   5.985   2.075
 3291TIP3   OH2 9815   1.002   4.417   4.108
 3291TIP3    H1 9816   1.014   4.505   4.143
 3291TIP3    H2 9817   1.091   4.381   4.101
 3292TIP3   OH2 9818   6.983   3.286   3.480
 3292TIP3    H1 9819   7.041   3.350   3.440
 3292TIP3    H2 9820   6.904   3.287   3.425
 3293TIP3   OH2 9821   3.352   1.309   5.781
 3293TIP3    H1 9822   3.384   1.376   5.720
 3293TIP3    H2 9823   3.316   1.359   5.854
 3294TIP3   OH2 9824   7.339   7.549   2.808
 3294TIP3    H1 9825   7.377   7.463   2.791
 3294TIP3    H2 9826   7.300   7.575   2.724
 3295TIP3   OH2 9827   5.367   2.920   1.869
 3295TIP3    H1 9828   5.323   2.914   1.954
 3295TIP3    H2 9829   5.316   2.986   1.821
 3296TIP3   OH2 9830   3.519   7.182   2.065
 3296TIP3    H1 9831   3.519   7.277   2.072
 3296TIP3    H2 9832   3.497   7.151   2.153
 3297TIP3   OH2 9833   7.301   3.166   1.656
 3297TIP3    H1 9834   7.253   3.109   1.597
 3297TIP3    H2 9835   7.389   3.171   1.619
 3298TIP3   OH2 9836   3.292   7.514   3.164
 3298TIP3    H1 9837   3.203   7.513   3.128
 3298TIP3    H2 9838   3.281   7.495   3.257
 3299TIP3   OH2 9839   5.927   0.324   3.978
 3299TIP3    H1 9840   6.002   0.268   3.998
 3299TIP3    H2 9841   5.940   0.349   3.886
 3300TIP3   OH2 9842   3.421   0.740   2.995
 3300TIP3    H1 9843   3.516   0.749   3.005
 3300TIP3    H2 9844   3.389   0.829   2.982
 3301TIP3   OH2 9845   3.050   0.737   4.819
 3301TIP3    H1 9846   3.132   0.732   4.769
 3301TIP3    H2 9847   2.991   0.677   4.774
 3302TIP3   OH2 9848   6.587   4.076   5.534
 3302TIP3    H1 9849   6.645   4.151   5.550
 3302TIP3    H2 9850   6.626   4.032   5.458
 3303TIP3   OH2 9851   5.660   2.168   5.808
 3303TIP3    H1 9852   5.596   2.218   5.860
 3303TIP3    H2 9853   5.739   2.169   5.861
 3304TIP3   OH2 9854   2.331   3.835   6.270
 3304TIP3    H1 9855   2.401   3.896   6.251
 3304TIP3    H2 9856   2.375   3.754   6.296
 3305TIP3   OH2 9857   7.783   5.345   2.712
 3305TIP3    H1 9858   7.828   5.413   2.660
 3305TIP3    H2 9859   7.734   5.394   2.778
 3306TIP3   OH2 9860   2.218   1.898   5.307
 3306TIP3    H1 9861   2.281   1.828   5.293
 3306TIP3    H2 9862   2.133   1.859   5.285
 3307TIP3   OH2 9863   6.232   1.035   6.457
 3307TIP3    H1 9864   6.235   1.054   6.363
 3307TIP3    H2 9865   6.313   0.986   6.473
 3308TIP3   OH2 9866   5.107   7.755   0.381
 3308TIP3    H1 9867   5.199   7.771   0.360
 3308TIP3    H2 9868   5.065   7.840   0.372
 3309TIP3   OH2 9869   4.742   7.190   1.944
 3309TIP3    H1 9870   4.711   7.275   1.911
 3309TIP3    H2 9871   4.837   7.195   1.936
 3310TIP3   OH2 9872   7.484   0.885   4.628
 3310TIP3    H1 9873   7.468   0.846   4.542
 3310TIP3    H2 9874   7.397   0.907   4.661
 3311TIP3   OH2 9875   7.086   7.799   2.457
 3311TIP3    H1 9876   7.158   7.792   2.394
 3311TIP3    H2 9877   7.100   7.724   2.516
 3312TIP3   OH2 9878   7.157   2.573   2.700
 3312TIP3    H1 9879   7.081   2.541   2.750
 3312TIP3    H2 9880   7.232   2.536   2.744
 3313TIP3   OH2 9881   7.891   1.857   1.964
 3313TIP3    H1 9882   7.934   1.775   1.941
 3313TIP3    H2 9883   7.823   1.868   1.898
 3314TIP3   OH2 9884   0.872   3.572   2.459
 3314TIP3    H1 9885   0.875   3.482   2.492
 3314TIP3    H2 9886   0.799   3.572   2.398
 3315TIP3   OH2 9887   7.769   3.389   4.343
 3315TIP3    H1 9888   7.760   3.364   4.435
 3315TIP3    H2 9889   7.827   3.465   4.345
 3316TIP3   OH2 9890   5.344   6.395   5.086
 3316TIP3    H1 9891   5.335   6.308   5.046
 3316TIP3    H2 9892   5.434   6.420   5.068
 3317TIP3   OH2 9893   5.777   0.261   1.565
 3317TIP3    H1 9894   5.760   0.345   1.522
 3317TIP3    H2 9895   5.872   0.248   1.556
 3318TIP3   OH2 9896   1.897   0.871   3.538
 3318TIP3    H1 9897   1.863   0.890   3.625
 3318TIP3    H2 9898   1.918   0.956   3.501
 3319TIP3   OH2 9899   5.134   5.351   1.208
 3319TIP3    H1 9900   5.226   5.345   1.232
 3319TIP3    H2 9901   5.104   5.433   1.247
 3320TIP3   OH2 9902   1.912   0.066   4.397
 3320TIP3    H1 9903   2.004   0.092   4.400
 3320TIP3    H2 9904   1.869   0.133   4.343
 3321TIP3   OH2 9905   5.360   4.737   6.726
 3321TIP3    H1 9906   5.267   4.739   6.747
 3321TIP3    H2 9907   5.400   4.794   6.792
 3322TIP3   OH2 9908   2.574   1.826   0.726
 3322TIP3    H1 9909   2.572   1.920   0.708
 3322TIP3    H2 9910   2.481   1.801   0.730
 3323TIP3   OH2 9911   7.542   3.115   6.174
 3323TIP3    H1 9912   7.495   3.060   6.112
 3323TIP3    H2 9913   7.631   3.081   6.174
 3324TIP3   OH2 9914   5.584   1.029   0.360
 3324TIP3    H1 9915   5.566   0.969   0.288
 3324TIP3    H2 9916   5.652   1.088   0.326
 3325TIP3   OH2 9917   7.438   4.845   0.436
 3325TIP3    H1 9918   7.508   4.862   0.374
 3325TIP3    H2 9919   7.357   4.857   0.386
 3326TIP3   OH2 9920   2.749   5.451   5.041
 3326TIP3    H1 9921   2.714   5.380   5.097
 3326TIP3    H2 9922   2.764   5.523   5.102
 3327TIP3   OH2 9923   1.278   2.148   6.309
 3327TIP3    H1 9924   1.298   2.115   6.221
 3327TIP3    H2 9925   1.362   2.144   6.355
 3328TIP3   OH2 9926   6.203   6.620   3.465
 3328TIP3    H1 9927   6.247   6.592   3.384
 3328TIP3    H2 9928   6.246   6.703   3.487
 3329TIP3   OH2 9929   5.121   2.947   5.184
 3329TIP3    H1 9930   5.080   2.933   5.099
 3329TIP3    H2 9931   5.140   3.041   5.186
 3330TIP3   OH2 9932   3.754   6.439   3.261
 3330TIP3    H1 9933   3.819   6.374   3.286
 3330TIP3    H2 9934   3.773   6.515   3.315
 3331TIP3   OH2 9935   7.333   0.685   0.466
 3331TIP3    H1 9936   7.403   0.634   0.426
 3331TIP3    H2 9937   7.355   0.776   0.445
 3332TIP3   OH2 9938   4.534   6.394   3.982
 3332TIP3    H1 9939   4.458   6.335   3.985
 3332TIP3    H2 9940   4.561   6.404   4.073
 3333TIP3   OH2 9941   7.112   3.039   5.149
 3333TIP3    H1 9942   7.154   2.963   5.110
 3333TIP3    H2 9943   7.185   3.093   5.180
 3334TIP3   OH2 9944   7.406   0.835   1.957
 3334TIP3    H1 9945   7.369   0.826   2.045
 3334TIP3    H2 9946   7.333   0.865   1.903
 3335TIP3   OH2 9947   2.040   1.712   2.519
 3335TIP3    H1 9948   2.024   1.759   2.437
 3335TIP3    H2 9949   2.092   1.773   2.571
 3336TIP3   OH2 9950   3.993   6.173   5.677
 3336TIP3    H1 9951   4.070   6.136   5.634
 3336TIP3    H2 9952   4.004   6.152   5.769
 3337TIP3   OH2 9953   3.928   1.592   6.354
 3337TIP3    H1 9954   3.883   1.674   6.376
 3337TIP3    H2 9955   3.875   1.554   6.283
 3338TIP3   OH2 9956   3.585   7.221   0.643
 3338TIP3    H1 9957   3.652   7.256   0.701
 3338TIP3    H2 9958   3.506   7.220   0.697
 3339TIP3   OH2 9959   4.011   1.038   4.410
 3339TIP3    H1 9960   4.022   1.093   4.488
 3339TIP3    H2 9961   3.920   1.054   4.383
 3340TIP3   OH2 9962   2.895  -0.052   5.821
 3340TIP3    H1 9963   2.946   0.012   5.871
 3340TIP3    H2 9964   2.855  -0.001   5.751
 3341TIP3   OH2 9965   2.374   5.916   6.527
 3341TIP3    H1 9966   2.411   5.856   6.462
 3341TIP3    H2 9967   2.329   5.858   6.589
 3342TIP3   OH2 9968   2.704   1.256   5.311
 3342TIP3    H1 9969   2.725   1.182   5.253
 3342TIP3    H2 9970   2.725   1.334   5.260
 3343TIP3   OH2 9971   5.360   5.187   1.509
 3343TIP3    H1 9972   5.274   5.144   1.505
 3343TIP3    H2 9973   5.376   5.217   1.420
 3344TIP3   OH2 9974   0.045   0.682   0.324
 3344TIP3    H1 9975  -0.020   0.628   0.369
 3344TIP3    H2 9976   0.105   0.710   0.393
 3345TIP3   OH2 9977   1.251   5.602   1.556
 3345TIP3    H1 9978   1.268   5.689   1.521
 3345TIP3    H2 9979   1.162   5.609   1.592
 3346TIP3   OH2 9980   0.021   6.045   4.242
 3346TIP3    H1 9981  -0.056   6.055   4.187
 3346TIP3    H2 9982   0.093   6.032   4.179
 3347TIP3   OH2 9983   2.867   0.075   4.493
 3347TIP3    H1 9984   2.828   0.077   4.406
 3347TIP3    H2 9985   2.927   0.150   4.494
 3348TIP3   OH2 9986   5.805   3.512   6.009
 3348TIP3    H1 9987   5.817   3.587   5.951
 3348TIP3    H2 9988   5.882   3.511   6.065
 3349TIP3   OH2 9989   4.206   0.186   2.499
 3349TIP3    H1 9990   4.110   0.181   2.497
 3349TIP3    H2 9991   4.235   0.127   2.429
 3350TIP3   OH2 9992   7.787   2.930   3.912
 3350TIP3    H1 9993   7.867   2.878   3.919
 3350TIP3    H2 9994   7.722   2.869   3.878
 3351TIP3   OH2 9995   7.556   1.320   4.752
 3351TIP3    H1 9996   7.598   1.405   4.763
 3351TIP3    H2 9997   7.569   1.299   4.660
 3352TIP3   OH2 9998   2.522   5.143   4.664
 3352TIP3    H1 9999   2.567   5.167   4.745
 3352TIP3    H210000   2.429   5.143   4.688
 3353TIP3   OH210001   5.596   7.131   5.556
 3353TIP3    H110002   5.522   7.143   5.497
 3353TIP3    H210003   5.672   7.157   5.503
 3354TIP3   OH210004   0.881   6.084   1.060
 3354TIP3    H110005   0.855   6.078   1.153
 3354TIP3    H210006   0.830   6.015   1.017
 3355TIP3   OH210007   5.654   2.374   1.242
 3355TIP3    H110008   5.748   2.390   1.243
 3355TIP3    H210009   5.619   2.440   1.182
 3356TIP3   OH210010   3.244   0.523   1.622
 3356TIP3    H110011   3.244   0.596   1.560
 3356TIP3    H210012   3.303   0.459   1.583
 3357TIP3   OH210013   4.574   0.432   4.923
 3357TIP3    H110014   4.527   0.349   4.920
 3357TIP3    H210015   4.567   0.459   5.015
 3358TIP3   OH210016   1.463   6.652   1.919
 3358TIP3    H110017   1.526   6.608   1.976
 3358TIP3    H210018   1.379   6.642   1.964
 3359TIP3   OH210019   6.287   4.850   0.689
 3359TIP3    H110020   6.362   4.895   0.728
 3359TIP3    H210021   6.241   4.918   0.641
 3360TIP3   OH210022   3.702   7.495   5.023
 3360TIP3    H110023   3.691   7.404   5.051
 3360TIP3    H210024   3.766   7.491   4.952
 3361TIP3   OH210025   0.355   5.703   3.783
 3361TIP3    H110026   0.342   5.797   3.783
 3361TIP3    H210027   0.397   5.685   3.867
 3362TIP3   OH210028   8.112   1.946   0.809
 3362TIP3    H110029   8.183   2.002   0.775
 3362TIP3    H210030   8.122   1.863   0.762
 3363TIP3   OH210031   4.117   3.909   5.721
 3363TIP3    H110032   4.196   3.963   5.723
 3363TIP3    H210033   4.122   3.863   5.637
 3364TIP3   OH210034   7.738   4.906   3.942
 3364TIP3    H110035   7.687   4.943   3.870
 3364TIP3    H210036   7.802   4.973   3.963
 3365TIP3   OH210037   3.709   2.100   4.715
 3365TIP3    H110038   3.791   2.052   4.718
 3365TIP3    H210039   3.693   2.115   4.621
 3366TIP3   OH210040   3.560   2.022   0.456
 3366TIP3    H110041   3.621   2.096   0.453
 3366TIP3    H210042   3.615   1.947   0.478
 3367TIP3   OH210043   6.060   7.675   5.020
 3367TIP3    H110044   6.072   7.648   5.111
 3367TIP3    H210045   6.026   7.764   5.025
 3368TIP3   OH210046   4.820   6.275   5.592
 3368TIP3    H110047   4.884   6.339   5.561
 3368TIP3    H210048   4.793   6.227   5.514
 3369TIP3   OH210049   2.360   3.988   2.450
 3369TIP3    H110050   2.336   3.929   2.379
 3369TIP3    H210051   2.453   4.006   2.435
 3370TIP3   OH210052   1.922   5.360   3.309
 3370TIP3    H110053   1.837   5.391   3.278
 3370TIP3    H210054   1.967   5.439   3.338
 3371TIP3   OH210055   0.466   4.089   3.010
 3371TIP3    H110056   0.401   4.020   3.021
 3371TIP3    H210057   0.457   4.143   3.089
 3372TIP3   OH210058   3.084   4.988   3.543
 3372TIP3    H110059   3.046   4.966   3.457
 3372TIP3    H210060   3.045   5.073   3.565
 3373TIP3   OH210061   1.908   4.351   2.228
 3373TIP3    H110062   1.923   4.442   2.253
 3373TIP3    H210063   1.922   4.349   2.134
 3374TIP3   OH210064   1.757   2.375   2.179
 3374TIP3    H110065   1.737   2.388   2.087
 3374TIP3    H210066   1.694   2.430   2.226
 3375TIP3   OH210067   5.880   2.714   0.030
 3375TIP3    H110068   5.843   2.663   0.102
 3375TIP3    H210069   5.898   2.650  -0.038
 3376TIP3   OH210070   0.623   6.487   3.863
 3376TIP3    H110071   0.603   6.574   3.830
 3376TIP3    H210072   0.608   6.494   3.958
 3377TIP3   OH210073   0.178   1.319   1.967
 3377TIP3    H110074   0.265   1.289   1.940
 3377TIP3    H210075   0.118   1.250   1.938
 3378TIP3   OH210076   1.198   1.789   4.686
 3378TIP3    H110077   1.170   1.700   4.664
 3378TIP3    H210078   1.254   1.778   4.763
 3379TIP3   OH210079   7.865   7.836   2.270
 3379TIP3    H110080   7.944   7.844   2.217
 3379TIP3    H210081   7.806   7.903   2.235
 3380TIP3   OH210082   6.863   4.164   1.448
 3380TIP3    H110083   6.886   4.252   1.419
 3380TIP3    H210084   6.929   4.143   1.515
 3381TIP3   OH210085   7.521   3.378   3.791
 3381TIP3    H110086   7.570   3.441   3.843
 3381TIP3    H210087   7.441   3.424   3.765
 3382TIP3   OH210088   3.933   4.102   4.982
 3382TIP3    H110089   3.842   4.091   5.012
 3382TIP3    H210090   3.969   4.169   5.039
 3383TIP3   OH210091   2.042   2.351   0.894
 3383TIP3    H110092   1.957   2.340   0.936
 3383TIP3    H210093   2.022   2.365   0.802
 3384TIP3   OH210094   0.591   1.108   0.163
 3384TIP3    H110095   0.571   1.020   0.194
 3384TIP3    H210096   0.526   1.164   0.206
 3385TIP3   OH210097   5.321   2.500   4.660
 3385TIP3    H110098   5.241   2.457   4.691
 3385TIP3    H210099   5.387   2.430   4.660
 3386TIP3   OH210100   3.762   1.085   4.307
 3386TIP3    H110101   3.764   1.093   4.211
 3386TIP3    H210102   3.671   1.066   4.328
 3387TIP3   OH210103   6.438   1.240   1.566
 3387TIP3    H110104   6.452   1.335   1.573
 3387TIP3    H210105   6.454   1.220   1.474
 3388TIP3   OH210106   2.073   2.744   2.219
 3388TIP3    H110107   2.069   2.776   2.129
 3388TIP3    H210108   2.092   2.651   2.211
 3389TIP3   OH210109   4.882   2.436   2.653
 3389TIP3    H110110   4.849   2.349   2.674
 3389TIP3    H210111   4.840   2.459   2.570
 3390TIP3   OH210112   0.534   1.344   2.957
 3390TIP3    H110113   0.611   1.324   2.902
 3390TIP3    H210114   0.569   1.397   3.028
 3391TIP3   OH210115   7.696   0.757   5.432
 3391TIP3    H110116   7.784   0.760   5.470
 3391TIP3    H210117   7.703   0.698   5.357
 3392TIP3   OH210118   7.107   5.640   0.462
 3392TIP3    H110119   7.133   5.593   0.383
 3392TIP3    H210120   7.139   5.586   0.534
 3393TIP3   OH210121   6.065   2.439   2.424
 3393TIP3    H110122   6.155   2.414   2.447
 3393TIP3    H210123   6.033   2.365   2.372
 3394TIP3   OH210124   4.686   7.779   6.522
 3394TIP3    H110125   4.706   7.686   6.533
 3394TIP3    H210126   4.593   7.781   6.500
 3395TIP3   OH210127   5.001   2.886   3.744
 3395TIP3    H110128   5.078   2.927   3.781
 3395TIP3    H210129   4.973   2.946   3.674
 3396TIP3   OH210130   1.811   4.783   4.524
 3396TIP3    H110131   1.882   4.779   4.588
 3396TIP3    H210132   1.734   4.808   4.576
 3397TIP3   OH210133   7.972   6.050   0.073
 3397TIP3    H110134   7.972   5.969   0.021
 3397TIP3    H210135   8.038   6.035   0.141
 3398TIP3   OH210136   6.135   6.427   2.979
 3398TIP3    H110137   6.142   6.522   2.991
 3398TIP3    H210138   6.144   6.392   3.067
 3399TIP3   OH210139   0.601   7.223   5.376
 3399TIP3    H110140   0.572   7.300   5.327
 3399TIP3    H210141   0.669   7.184   5.322
 3400TIP3   OH210142   7.404   4.838   3.843
 3400TIP3    H110143   7.385   4.877   3.928
 3400TIP3    H210144   7.446   4.908   3.793
 3401TIP3   OH210145   6.624   3.246   5.669
 3401TIP3    H110146   6.675   3.255   5.589
 3401TIP3    H210147   6.688   3.253   5.739
 3402TIP3   OH210148   3.846   0.250   1.648
 3402TIP3    H110149   3.932   0.278   1.617
 3402TIP3    H210150   3.846   0.271   1.741
 3403TIP3   OH210151   7.854   2.080   4.225
 3403TIP3    H110152   7.883   2.121   4.307
 3403TIP3    H210153   7.907   2.001   4.218
 3404TIP3   OH210154   7.286   5.806   2.343
 3404TIP3    H110155   7.210   5.862   2.360
 3404TIP3    H210156   7.359   5.851   2.385
 3405TIP3   OH210157   7.994   5.493   5.596
 3405TIP3    H110158   7.954   5.550   5.661
 3405TIP3    H210159   7.952   5.408   5.610
 3406TIP3   OH210160   1.389   7.027   5.719
 3406TIP3    H110161   1.376   6.950   5.663
 3406TIP3    H210162   1.321   7.088   5.692
 3407TIP3   OH210163   5.560   1.646   5.808
 3407TIP3    H110164   5.533   1.618   5.896
 3407TIP3    H210165   5.484   1.627   5.752
 3408TIP3   OH210166   1.887   6.467   1.381
 3408TIP3    H110167   1.947   6.395   1.363
 3408TIP3    H210168   1.922   6.508   1.460
 3409TIP3   OH210169   7.027   5.161   1.208
 3409TIP3    H110170   7.121   5.151   1.225
 3409TIP3    H210171   6.985   5.113   1.279
 3410TIP3   OH210172   6.849   1.958   1.251
 3410TIP3    H110173   6.895   2.032   1.211
 3410TIP3    H210174   6.918   1.900   1.281
 3411TIP3   OH210175   4.215   4.647   3.475
 3411TIP3    H110176   4.144   4.583   3.477
 3411TIP3    H210177   4.293   4.596   3.455
 3412TIP3   OH210178   0.138   6.212   1.517
 3412TIP3    H110179   0.081   6.224   1.594
 3412TIP3    H210180   0.081   6.173   1.451
 3413TIP3   OH210181   2.662   7.258   4.550
 3413TIP3    H110182   2.628   7.169   4.543
 3413TIP3    H210183   2.656   7.294   4.461
 3414TIP3   OH210184   3.342   0.473   3.989
 3414TIP3    H110185   3.246   0.469   3.986
 3414TIP3    H210186   3.361   0.561   4.019
 3415TIP3   OH210187   4.200   3.988   1.422
 3415TIP3    H110188   4.215   3.910   1.475
 3415TIP3    H210189   4.136   4.039   1.471
 3416TIP3   OH210190   8.199   6.209   0.479
 3416TIP3    H110191   8.223   6.263   0.404
 3416TIP3    H210192   8.184   6.271   0.550
 3417TIP3   OH210193   1.276   0.202   4.113
 3417TIP3    H110194   1.257   0.203   4.207
 3417TIP3    H210195   1.190   0.194   4.072
 3418TIP3   OH210196   3.273   5.417   4.828
 3418TIP3    H110197   3.250   5.418   4.921
 3418TIP3    H210198   3.352   5.471   4.822
 3419TIP3   OH210199   4.680   0.410   0.400
 3419TIP3    H110200   4.701   0.317   0.398
 3419TIP3    H210201   4.744   0.448   0.459
 3420TIP3   OH210202   3.179   6.877   0.241
 3420TIP3    H110203   3.218   6.964   0.250
 3420TIP3    H210204   3.095   6.883   0.286
 3421TIP3   OH210205   0.446   4.952   4.771
 3421TIP3    H110206   0.530   4.951   4.726
 3421TIP3    H210207   0.385   4.911   4.709
 3422TIP3   OH210208   5.589   0.510   6.682
 3422TIP3    H110209   5.664   0.465   6.643
 3422TIP3    H210210   5.545   0.442   6.732
 3423TIP3   OH210211   4.278   2.121   1.832
 3423TIP3    H110212   4.347   2.147   1.771
 3423TIP3    H210213   4.325   2.096   1.912
 3424TIP3   OH210214   0.284   3.945   3.613
 3424TIP3    H110215   0.198   3.925   3.577
 3424TIP3    H210216   0.297   3.881   3.683
 3425TIP3   OH210217   6.430   6.227   3.887
 3425TIP3    H110218   6.445   6.251   3.796
 3425TIP3    H210219   6.512   6.247   3.932
 3426TIP3   OH210220   3.783   3.227   6.298
 3426TIP3    H110221   3.853   3.167   6.273
 3426TIP3    H210222   3.714   3.171   6.332
 3427TIP3   OH210223   2.839   1.844   3.835
 3427TIP3    H110224   2.789   1.890   3.767
 3427TIP3    H210225   2.911   1.903   3.856
 3428TIP3   OH210226   0.874   0.575   0.770
 3428TIP3    H110227   0.926   0.516   0.716
 3428TIP3    H210228   0.887   0.662   0.731
 3429TIP3   OH210229   1.408   3.256   2.237
 3429TIP3    H110230   1.464   3.311   2.292
 3429TIP3    H210231   1.444   3.266   2.149
 3430TIP3   OH210232   6.145   4.987   5.390
 3430TIP3    H110233   6.102   4.945   5.315
 3430TIP3    H210234   6.117   5.078   5.386
 3431TIP3   OH210235   4.034   2.398   6.487
 3431TIP3    H110236   3.999   2.346   6.415
 3431TIP3    H210237   4.117   2.433   6.454
 3432TIP3   OH210238   5.632   7.462   0.038
 3432TIP3    H110239   5.657   7.395  -0.026
 3432TIP3    H210240   5.559   7.423   0.086
 3433TIP3   OH210241   7.090   2.555   5.372
 3433TIP3    H110242   7.177   2.570   5.409
 3433TIP3    H210243   7.107   2.528   5.282
 3434TIP3   OH210244   6.124   3.357   5.885
 3434TIP3    H110245   6.086   3.273   5.860
 3434TIP3    H210246   6.218   3.339   5.892
 3435TIP3   OH210247   0.481   4.859   5.031
 3435TIP3    H110248   0.462   4.914   4.955
 3435TIP3    H210249   0.468   4.917   5.106
 3436TIP3   OH210250   4.934   4.654   4.608
 3436TIP3    H110251   4.968   4.580   4.557
 3436TIP3    H210252   4.933   4.727   4.546
 3437TIP3   OH210253   5.238   6.627   0.366
 3437TIP3    H110254   5.177   6.649   0.437
 3437TIP3    H210255   5.195   6.660   0.287
 3438TIP3   OH210256   2.764   2.699   0.275
 3438TIP3    H110257   2.728   2.750   0.202
 3438TIP3    H210258   2.748   2.753   0.352
 3439TIP3   OH210259   3.968   1.114   3.978
 3439TIP3    H110260   3.997   1.024   3.986
 3439TIP3    H210261   3.873   1.111   3.992
 3440TIP3   OH210262   7.433   7.622   1.294
 3440TIP3    H110263   7.467   7.564   1.362
 3440TIP3    H210264   7.439   7.571   1.213
 3441TIP3   OH210265   4.537   6.586   5.433
 3441TIP3    H110266   4.497   6.671   5.453
 3441TIP3    H210267   4.616   6.583   5.487
 3442TIP3   OH210268   2.243   0.650   6.529
 3442TIP3    H110269   2.299   0.690   6.595
 3442TIP3    H210270   2.212   0.570   6.569
 3443TIP3   OH210271   5.142   1.663   6.292
 3443TIP3    H110272   5.121   1.666   6.386
 3443TIP3    H210273   5.182   1.577   6.279
 3444TIP3   OH210274   1.407   1.936   0.763
 3444TIP3    H110275   1.454   2.018   0.749
 3444TIP3    H210276   1.314   1.961   0.767
 3445TIP3   OH210277   0.452   0.546   2.438
 3445TIP3    H110278   0.461   0.638   2.412
 3445TIP3    H210279   0.501   0.498   2.371
 3446TIP3   OH210280   3.014   7.485   5.527
 3446TIP3    H110281   3.085   7.549   5.518
 3446TIP3    H210282   2.956   7.502   5.453
 3447TIP3   OH210283   4.811   6.445   1.981
 3447TIP3    H110284   4.754   6.403   1.917
 3447TIP3    H210285   4.752   6.499   2.034
 3448TIP3   OH210286   0.607   7.545   4.488
 3448TIP3    H110287   0.581   7.599   4.562
 3448TIP3    H210288   0.686   7.500   4.517
 3449TIP3   OH210289   3.929   6.247   4.111
 3449TIP3    H110290   3.869   6.322   4.113
 3449TIP3    H210291   3.934   6.218   4.202
 3450TIP3   OH210292   1.155   1.660   1.590
 3450TIP3    H110293   1.085   1.602   1.620
 3450TIP3    H210294   1.163   1.642   1.497
 3451TIP3   OH210295   5.690   0.240   1.841
 3451TIP3    H110296   5.717   0.222   1.751
 3451TIP3    H210297   5.709   0.333   1.854
 3452TIP3   OH210298   4.440   0.732   4.938
 3452TIP3    H110299   4.484   0.729   5.024
 3452TIP3    H210300   4.454   0.644   4.902
 3453TIP3   OH210301   3.097   5.086   1.218
 3453TIP3    H110302   3.073   4.996   1.196
 3453TIP3    H210303   3.181   5.100   1.175
 3454TIP3   OH210304   5.853   0.198   6.191
 3454TIP3    H110305   5.805   0.148   6.125
 3454TIP3    H210306   5.788   0.216   6.259
 3455TIP3   OH210307   3.049   0.505   3.923
 3455TIP3    H110308   2.956   0.502   3.945
 3455TIP3    H210309   3.054   0.561   3.845
 3456TIP3   OH210310   2.251   3.327   4.480
 3456TIP3    H110311   2.235   3.268   4.407
 3456TIP3    H210312   2.345   3.347   4.474
 3457TIP3   OH210313   4.777   2.233   6.583
 3457TIP3    H110314   4.850   2.204   6.639
 3457TIP3    H210315   4.701   2.233   6.641
 3458TIP3   OH210316   2.904   2.504   1.645
 3458TIP3    H110317   2.995   2.533   1.638
 3458TIP3    H210318   2.891   2.492   1.739
 3459TIP3   OH210319   4.731   1.732   3.462
 3459TIP3    H110320   4.708   1.815   3.504
 3459TIP3    H210321   4.696   1.665   3.521
 3460TIP3   OH210322   5.653   5.746   0.574
 3460TIP3    H110323   5.654   5.771   0.666
 3460TIP3    H210324   5.583   5.798   0.535
 3461TIP3   OH210325   4.989   4.302   3.610
 3461TIP3    H110326   5.021   4.390   3.632
 3461TIP3    H210327   5.014   4.249   3.686
 3462TIP3   OH210328   7.054   2.281   5.507
 3462TIP3    H110329   7.135   2.238   5.482
 3462TIP3    H210330   7.048   2.357   5.449
 3463TIP3   OH210331   1.367   2.846   3.427
 3463TIP3    H110332   1.290   2.791   3.412
 3463TIP3    H210333   1.433   2.786   3.463
 3464TIP3   OH210334   8.088   6.185   6.322
 3464TIP3    H110335   8.073   6.092   6.336
 3464TIP3    H210336   8.004   6.219   6.290
 3465TIP3   OH210337   5.073   0.989   2.625
 3465TIP3    H110338   5.139   1.054   2.649
 3465TIP3    H210339   5.019   1.033   2.560
 3466TIP3   OH210340   1.374   5.809   4.093
 3466TIP3    H110341   1.294   5.771   4.131
 3466TIP3    H210342   1.442   5.744   4.111
 3467TIP3   OH210343   1.010   4.041   2.076
 3467TIP3    H110344   0.963   4.099   2.016
 3467TIP3    H210345   0.984   3.953   2.049
 3468TIP3   OH210346   6.003   4.758   3.292
 3468TIP3    H110347   5.918   4.749   3.335
 3468TIP3    H210348   6.063   4.783   3.363
 3469TIP3   OH210349   7.275   0.828   2.877
 3469TIP3    H110350   7.370   0.822   2.886
 3469TIP3    H210351   7.246   0.738   2.866
 3470TIP3   OH210352   1.741   0.600   1.754
 3470TIP3    H110353   1.777   0.549   1.827
 3470TIP3    H210354   1.797   0.578   1.679
 3471TIP3   OH210355   0.609   1.702   4.253
 3471TIP3    H110356   0.641   1.758   4.182
 3471TIP3    H210357   0.548   1.642   4.211
 3472TIP3   OH210358   7.314   2.508   3.713
 3472TIP3    H110359   7.399   2.535   3.679
 3472TIP3    H210360   7.315   2.535   3.805
 3473TIP3   OH210361   3.055   0.886   1.643
 3473TIP3    H110362   3.111   0.950   1.687
 3473TIP3    H210363   3.058   0.912   1.551
 3474TIP3   OH210364   0.540   7.493   1.542
 3474TIP3    H110365   0.476   7.557   1.512
 3474TIP3    H210366   0.624   7.540   1.536
 3475TIP3   OH210367   0.571   3.836   1.029
 3475TIP3    H110368   0.663   3.808   1.033
 3475TIP3    H210369   0.564   3.903   1.097
 3476TIP3   OH210370   3.906   7.112   0.437
 3476TIP3    H110371   3.812   7.095   0.433
 3476TIP3    H210372   3.935   7.106   0.346
 3477TIP3   OH210373   0.645   3.229   0.402
 3477TIP3    H110374   0.727   3.277   0.398
 3477TIP3    H210375   0.582   3.292   0.436
 3478TIP3   OH210376   7.209   0.716   6.266
 3478TIP3    H110377   7.181   0.753   6.183
 3478TIP3    H210378   7.216   0.792   6.324
 3479TIP3   OH210379   5.013   4.485   5.068
 3479TIP3    H110380   5.017   4.559   5.007
 3479TIP3    H210381   5.066   4.417   5.027
 3480TIP3   OH210382   0.759   7.554   3.383
 3480TIP3    H110383   0.845   7.581   3.415
 3480TIP3    H210384   0.778   7.476   3.330
 3481TIP3   OH210385   7.708   6.040   3.633
 3481TIP3    H110386   7.621   6.062   3.668
 3481TIP3    H210387   7.767   6.056   3.706
 3482TIP3   OH210388   3.080   6.709   5.462
 3482TIP3    H110389   3.007   6.737   5.517
 3482TIP3    H210390   3.051   6.626   5.425
 3483TIP3   OH210391   3.940   3.219   4.203
 3483TIP3    H110392   3.959   3.304   4.161
 3483TIP3    H210393   3.862   3.235   4.255
 3484TIP3   OH210394   8.059   2.154   6.259
 3484TIP3    H110395   8.050   2.134   6.352
 3484TIP3    H210396   8.008   2.088   6.214
 3485TIP3   OH210397   6.943   2.074   2.861
 3485TIP3    H110398   6.934   2.027   2.944
 3485TIP3    H210399   6.939   2.006   2.794
 3486TIP3   OH210400   2.736   1.042   5.493
 3486TIP3    H110401   2.827   1.056   5.468
 3486TIP3    H210402   2.689   1.116   5.455
 3487TIP3   OH210403   4.876   0.561   4.021
 3487TIP3    H110404   4.788   0.578   4.055
 3487TIP3    H210405   4.869   0.580   3.927
 3488TIP3   OH210406   8.026   3.144   5.157
 3488TIP3    H110407   7.985   3.093   5.226
 3488TIP3    H210408   8.120   3.127   5.167
 3489TIP3   OH210409   7.780   6.939   2.315
 3489TIP3    H110410   7.686   6.942   2.300
 3489TIP3    H210411   7.816   6.900   2.236
 3490TIP3   OH210412   2.576   1.428   5.675
 3490TIP3    H110413   2.527   1.447   5.595
 3490TIP3    H210414   2.665   1.408   5.644
 3491TIP3   OH210415   1.621   2.357   5.777
 3491TIP3    H110416   1.619   2.362   5.872
 3491TIP3    H210417   1.708   2.324   5.756
 3492TIP3   OH210418   6.482   2.479   5.757
 3492TIP3    H110419   6.409   2.418   5.748
 3492TIP3    H210420   6.560   2.424   5.755
 3493TIP3   OH210421   4.439   5.824   1.946
 3493TIP3    H110422   4.517   5.787   1.988
 3493TIP3    H210423   4.423   5.906   1.992
 3494TIP3   OH210424   5.020   2.520   1.266
 3494TIP3    H110425   4.967   2.527   1.346
 3494TIP3    H210426   5.078   2.446   1.283
 3495TIP3   OH210427   1.702   0.234   4.320
 3495TIP3    H110428   1.643   0.253   4.247
 3495TIP3    H210429   1.741   0.319   4.342
 3496TIP3   OH210430   1.584   5.830   5.283
 3496TIP3    H110431   1.494   5.856   5.265
 3496TIP3    H210432   1.616   5.895   5.345
 3497TIP3   OH210433   0.268   6.653   3.390
 3497TIP3    H110434   0.318   6.644   3.309
 3497TIP3    H210435   0.334   6.662   3.458
 3498TIP3   OH210436   7.512   1.296   3.363
 3498TIP3    H110437   7.491   1.227   3.426
 3498TIP3    H210438   7.441   1.293   3.300
 3499TIP3   OH210439   2.262   3.589   2.945
 3499TIP3    H110440   2.326   3.658   2.931
 3499TIP3    H210441   2.251   3.548   2.860
 3500TIP3   OH210442   5.857   6.795   0.262
 3500TIP3    H110443   5.816   6.870   0.305
 3500TIP3    H210444   5.940   6.782   0.307
 3501TIP3   OH210445   5.130   5.698   4.271
 3501TIP3    H110446   5.126   5.695   4.175
 3501TIP3    H210447   5.095   5.784   4.293
 3502TIP3   OH210448   1.456   5.740   2.800
 3502TIP3    H110449   1.392   5.687   2.753
 3502TIP3    H210450   1.411   5.768   2.880
 3503TIP3   OH210451   8.104   0.547   2.691
 3503TIP3    H110452   8.152   0.628   2.705
 3503TIP3    H210453   8.121   0.524   2.599
 3504TIP3   OH210454  -0.042   2.049   2.625
 3504TIP3    H110455   0.033   2.014   2.673
 3504TIP3    H210456  -0.116   1.996   2.653
 3505TIP3   OH210457   7.448   5.850   4.100
 3505TIP3    H110458   7.490   5.792   4.036
 3505TIP3    H210459   7.430   5.793   4.175
 3506TIP3   OH210460   6.161   5.186   4.363
 3506TIP3    H110461   6.123   5.270   4.338
 3506TIP3    H210462   6.097   5.121   4.332
 3507TIP3   OH210463   0.486   4.829   1.247
 3507TIP3    H110464   0.506   4.757   1.188
 3507TIP3    H210465   0.416   4.878   1.202
 3508TIP3   OH210466   4.107   2.421   5.572
 3508TIP3    H110467   4.075   2.338   5.537
 3508TIP3    H210468   4.159   2.396   5.648
 3509TIP3   OH210469   1.783   5.739   3.385
 3509TIP3    H110470   1.804   5.833   3.383
 3509TIP3    H210471   1.689   5.735   3.369
 3510TIP3   OH210472   4.803   2.120   4.221
 3510TIP3    H110473   4.789   2.213   4.202
 3510TIP3    H210474   4.867   2.092   4.155
 3511TIP3   OH210475   1.032   3.623   2.905
 3511TIP3    H110476   1.069   3.678   2.974
 3511TIP3    H210477   0.943   3.657   2.893
 3512TIP3   OH210478   0.873   3.949   0.924
 3512TIP3    H110479   0.936   3.878   0.907
 3512TIP3    H210480   0.928   4.024   0.948
 3513TIP3   OH210481   1.166   1.998   0.050
 3513TIP3    H110482   1.150   1.913   0.091
 3513TIP3    H210483   1.227   1.978  -0.021
 3514TIP3   OH210484   4.275   7.629   1.027
 3514TIP3    H110485   4.262   7.696   0.960
 3514TIP3    H210486   4.254   7.547   0.983
 3515TIP3   OH210487   4.179   1.780   6.346
 3515TIP3    H110488   4.155   1.698   6.390
 3515TIP3    H210489   4.223   1.752   6.266
 3516TIP3   OH210490   3.837   6.202   4.934
 3516TIP3    H110491   3.743   6.220   4.941
 3516TIP3    H210492   3.852   6.192   4.840
 3517TIP3   OH210493   1.067   3.889   3.756
 3517TIP3    H110494   0.984   3.917   3.796
 3517TIP3    H210495   1.093   3.811   3.805
 3518TIP3   OH210496   2.953   1.346   0.761
 3518TIP3    H110497   2.882   1.302   0.714
 3518TIP3    H210498   2.908   1.394   0.831
 3519TIP3   OH210499   4.205   2.669   6.578
 3519TIP3    H110500   4.241   2.598   6.526
 3519TIP3    H210501   4.281   2.720   6.606
 3520TIP3   OH210502   6.122   3.744   0.117
 3520TIP3    H110503   6.168   3.794   0.050
 3520TIP3    H210504   6.170   3.661   0.124
 3521TIP3   OH210505   4.029   2.633   1.408
 3521TIP3    H110506   4.060   2.693   1.340
 3521TIP3    H210507   4.085   2.651   1.484
 3522TIP3   OH210508   1.064   7.308   5.879
 3522TIP3    H110509   1.128   7.289   5.946
 3522TIP3    H210510   1.027   7.393   5.904
 3523TIP3   OH210511   6.972   3.107   2.523
 3523TIP3    H110512   7.061   3.100   2.557
 3523TIP3    H210513   6.966   3.195   2.487
 3524TIP3   OH210514   4.701   0.379   2.063
 3524TIP3    H110515   4.668   0.291   2.080
 3524TIP3    H210516   4.776   0.365   2.005
 3525TIP3   OH210517   6.473   2.138   6.296
 3525TIP3    H110518   6.432   2.178   6.220
 3525TIP3    H210519   6.405   2.082   6.334
 3526TIP3   OH210520   0.405   1.040   2.038
 3526TIP3    H110521   0.339   0.972   2.040
 3526TIP3    H210522   0.469   1.014   2.105
 3527TIP3   OH210523   2.173   7.331   1.667
 3527TIP3    H110524   2.224   7.399   1.624
 3527TIP3    H210525   2.138   7.277   1.596
 3528TIP3   OH210526   0.700   3.967   3.145
 3528TIP3    H110527   0.738   3.919   3.072
 3528TIP3    H210528   0.607   3.977   3.123
 3529TIP3   OH210529   7.922   7.458   3.412
 3529TIP3    H110530   7.877   7.387   3.458
 3529TIP3    H210531   8.013   7.449   3.437
 3530TIP3   OH210532   6.638   6.809   1.635
 3530TIP3    H110533   6.574   6.837   1.701
 3530TIP3    H210534   6.704   6.878   1.634
 3531TIP3   OH210535   1.104   7.156   2.304
 3531TIP3    H110536   1.037   7.198   2.250
 3531TIP3    H210537   1.163   7.228   2.328
 3532TIP3   OH210538   8.170   0.654   3.104
 3532TIP3    H110539   8.215   0.736   3.120
 3532TIP3    H210540   8.174   0.608   3.188
 3533TIP3   OH210541   5.453   6.773   0.427
 3533TIP3    H110542   5.433   6.863   0.404
 3533TIP3    H210543   5.378   6.722   0.394
 3534TIP3   OH210544   2.337   5.351   0.219
 3534TIP3    H110545   2.400   5.281   0.234
 3534TIP3    H210546   2.254   5.306   0.203
 3535TIP3   OH210547   1.383   0.336   1.939
 3535TIP3    H110548   1.367   0.394   1.865
 3535TIP3    H210549   1.383   0.394   2.015
 3536TIP3   OH210550   1.976   0.594   0.917
 3536TIP3    H110551   1.940   0.602   0.828
 3536TIP3    H210552   1.925   0.657   0.969
 3537TIP3   OH210553   7.180   6.984   2.682
 3537TIP3    H110554   7.232   7.018   2.609
 3537TIP3    H210555   7.237   6.918   2.723
 3538TIP3   OH210556   2.123   5.208   4.973
 3538TIP3    H110557   2.184   5.167   5.034
 3538TIP3    H210558   2.081   5.278   5.024
 3539TIP3   OH210559   4.734   5.573   2.865
 3539TIP3    H110560   4.699   5.492   2.828
 3539TIP3    H210561   4.814   5.547   2.910
 3540TIP3   OH210562   4.466   0.817   0.490
 3540TIP3    H110563   4.530   0.887   0.504
 3540TIP3    H210564   4.401   0.829   0.560
 3541TIP3   OH210565   2.715   1.055   6.325
 3541TIP3    H110566   2.739   1.077   6.235
 3541TIP3    H210567   2.623   1.078   6.332
 3542TIP3   OH210568   1.428   5.116   5.059
 3542TIP3    H110569   1.477   5.066   5.124
 3542TIP3    H210570   1.337   5.092   5.073
 3543TIP3   OH210571   2.668   7.121   2.703
 3543TIP3    H110572   2.722   7.071   2.764
 3543TIP3    H210573   2.592   7.065   2.688
 3544TIP3   OH210574   1.580   7.504   6.011
 3544TIP3    H110575   1.549   7.566   6.078
 3544TIP3    H210576   1.577   7.554   5.929
 3545TIP3   OH210577   0.977   2.040   3.449
 3545TIP3    H110578   0.922   1.963   3.465
 3545TIP3    H210579   0.918   2.114   3.460
 3546TIP3   OH210580   4.830   3.623   1.980
 3546TIP3    H110581   4.755   3.585   2.025
 3546TIP3    H210582   4.869   3.683   2.044
 3547TIP3   OH210583   1.505   4.847   0.261
 3547TIP3    H110584   1.416   4.812   0.253
 3547TIP3    H210585   1.561   4.770   0.263
 3548TIP3   OH210586   3.565   7.446   2.119
 3548TIP3    H110587   3.620   7.472   2.045
 3548TIP3    H210588   3.529   7.528   2.152
 3549TIP3   OH210589   2.219   7.491   5.835
 3549TIP3    H110590   2.192   7.409   5.795
 3549TIP3    H210591   2.145   7.516   5.891
 3550TIP3   OH210592   5.550   7.746   6.256
 3550TIP3    H110593   5.468   7.732   6.208
 3550TIP3    H210594   5.618   7.717   6.195
 3551TIP3   OH210595   0.844   5.253   5.041
 3551TIP3    H110596   0.835   5.252   4.945
 3551TIP3    H210597   0.937   5.268   5.056
 3552TIP3   OH210598   5.731   2.678   3.273
 3552TIP3    H110599   5.704   2.593   3.307
 3552TIP3    H210600   5.817   2.694   3.313
 3553TIP3   OH210601   2.477   2.276   3.535
 3553TIP3    H110602   2.381   2.283   3.531
 3553TIP3    H210603   2.493   2.234   3.620
 3554TIP3   OH210604   5.971   3.262   0.078
 3554TIP3    H110605   6.043   3.235   0.135
 3554TIP3    H210606   6.010   3.323   0.016
 3555TIP3   OH210607   1.009   4.652   2.349
 3555TIP3    H110608   0.916   4.677   2.354
 3555TIP3    H210609   1.034   4.674   2.260
 3556TIP3   OH210610   2.203   3.160   6.067
 3556TIP3    H110611   2.246   3.227   6.120
 3556TIP3    H210612   2.148   3.111   6.129
 3557TIP3   OH210613   3.350   4.905   0.530
 3557TIP3    H110614   3.275   4.854   0.499
 3557TIP3    H210615   3.373   4.960   0.456
 3558TIP3   OH210616   4.653   2.393   5.661
 3558TIP3    H110617   4.631   2.409   5.753
 3558TIP3    H210618   4.597   2.455   5.613
 3559TIP3   OH210619   2.563   3.168   1.576
 3559TIP3    H110620   2.626   3.140   1.643
 3559TIP3    H210621   2.515   3.240   1.617
 3560TIP3   OH210622   3.571   6.624   1.550
 3560TIP3    H110623   3.631   6.607   1.478
 3560TIP3    H210624   3.529   6.707   1.527
 3561TIP3   OH210625   7.202   2.619   0.948
 3561TIP3    H110626   7.203   2.580   0.860
 3561TIP3    H210627   7.208   2.713   0.933
 3562TIP3   OH210628   0.220   3.076   2.682
 3562TIP3    H110629   0.154   3.121   2.629
 3562TIP3    H210630   0.285   3.143   2.703
 3563TIP3   OH210631   1.606   5.426   5.818
 3563TIP3    H110632   1.680   5.387   5.865
 3563TIP3    H210633   1.647   5.482   5.752
 3564TIP3   OH210634   5.475   5.675   5.607
 3564TIP3    H110635   5.524   5.725   5.672
 3564TIP3    H210636   5.392   5.722   5.600
 3565TIP3   OH210637   1.350   6.257   4.471
 3565TIP3    H110638   1.320   6.170   4.445
 3565TIP3    H210639   1.332   6.312   4.394
 3566TIP3   OH210640   3.272   1.044   5.932
 3566TIP3    H110641   3.236   1.131   5.918
 3566TIP3    H210642   3.206   0.984   5.898
 3567TIP3   OH210643   4.464   3.669   1.457
 3567TIP3    H110644   4.524   3.737   1.488
 3567TIP3    H210645   4.380   3.690   1.499
 3568TIP3   OH210646   5.325   7.513   1.330
 3568TIP3    H110647   5.300   7.568   1.256
 3568TIP3    H210648   5.418   7.532   1.344
 3569TIP3   OH210649   4.313   6.159   4.353
 3569TIP3    H110650   4.258   6.083   4.375
 3569TIP3    H210651   4.266   6.234   4.390
 3570TIP3   OH210652   4.240   0.004   5.355
 3570TIP3    H110653   4.303   0.069   5.387
 3570TIP3    H210654   4.188  -0.020   5.432
 3571TIP3   OH210655   0.981   6.119   5.100
 3571TIP3    H110656   0.889   6.124   5.126
 3571TIP3    H210657   0.982   6.059   5.026
 3572TIP3   OH210658   6.239   3.416   4.577
 3572TIP3    H110659   6.317   3.463   4.549
 3572TIP3    H210660   6.168   3.452   4.524
 3573TIP3   OH210661   1.214   7.585   3.001
 3573TIP3    H110662   1.247   7.546   3.082
 3573TIP3    H210663   1.120   7.595   3.017
 3574TIP3   OH210664   1.373   5.329   6.327
 3574TIP3    H110665   1.417   5.333   6.412
 3574TIP3    H210666   1.288   5.371   6.342
 3575TIP3   OH210667   4.129   1.177   1.601
 3575TIP3    H110668   4.119   1.236   1.676
 3575TIP3    H210669   4.071   1.213   1.534
 3576TIP3   OH210670   4.315   1.948   0.629
 3576TIP3    H110671   4.294   1.966   0.721
 3576TIP3    H210672   4.255   1.878   0.604
 3577TIP3   OH210673   7.716   6.658   2.077
 3577TIP3    H110674   7.642   6.668   2.137
 3577TIP3    H210675   7.784   6.615   2.128
 3578TIP3   OH210676   0.434   3.685   4.261
 3578TIP3    H110677   0.433   3.770   4.304
 3578TIP3    H210678   0.514   3.643   4.293
 3579TIP3   OH210679   1.605   0.834   4.814
 3579TIP3    H110680   1.590   0.768   4.746
 3579TIP3    H210681   1.694   0.818   4.844
 3580TIP3   OH210682   4.673   0.512   2.698
 3580TIP3    H110683   4.680   0.465   2.781
 3580TIP3    H210684   4.759   0.499   2.656
 3581TIP3   OH210685   2.977   1.374   4.552
 3581TIP3    H110686   3.055   1.425   4.573
 3581TIP3    H210687   2.955   1.330   4.634
 3582TIP3   OH210688   6.948   0.426   2.555
 3582TIP3    H110689   6.922   0.384   2.473
 3582TIP3    H210690   7.039   0.398   2.569
 3583TIP3   OH210691   0.956   6.600   3.220
 3583TIP3    H110692   0.965   6.508   3.247
 3583TIP3    H210693   1.031   6.643   3.260
 3584TIP3   OH210694   2.429   6.624   5.547
 3584TIP3    H110695   2.364   6.570   5.591
 3584TIP3    H210696   2.437   6.585   5.460
 3585TIP3   OH210697   1.512   2.657   4.919
 3585TIP3    H110698   1.537   2.572   4.884
 3585TIP3    H210699   1.416   2.656   4.919
 3586TIP3   OH210700   3.132   3.579   0.077
 3586TIP3    H110701   3.051   3.557   0.123
 3586TIP3    H210702   3.193   3.509   0.100
 3587TIP3   OH210703   2.679   2.159   1.120
 3587TIP3    H110704   2.734   2.126   1.190
 3587TIP3    H210705   2.607   2.204   1.164
 3588TIP3   OH210706   7.466   6.191   4.048
 3588TIP3    H110707   7.457   6.146   3.964
 3588TIP3    H210708   7.398   6.154   4.103
 3589TIP3   OH210709   3.055   1.950   5.922
 3589TIP3    H110710   3.084   1.960   5.831
 3589TIP3    H210711   3.117   1.887   5.960
 3590TIP3   OH210712   3.696   6.596   2.057
 3590TIP3    H110713   3.610   6.553   2.053
 3590TIP3    H210714   3.749   6.549   1.993
 3591TIP3   OH210715   0.611   6.020   1.993
 3591TIP3    H110716   0.669   6.026   1.916
 3591TIP3    H210717   0.638   5.939   2.036
 3592TIP3   OH210718   6.981   6.372   1.787
 3592TIP3    H110719   6.943   6.319   1.717
 3592TIP3    H210720   7.000   6.457   1.746
 3593TIP3   OH210721   4.145   2.740   4.230
 3593TIP3    H110722   4.145   2.658   4.279
 3593TIP3    H210723   4.082   2.795   4.277
 3594TIP3   OH210724   6.706   3.921   5.332
 3594TIP3    H110725   6.718   3.902   5.239
 3594TIP3    H210726   6.787   3.890   5.374
 3595TIP3   OH210727   3.030   7.265   1.428
 3595TIP3    H110728   3.006   7.319   1.503
 3595TIP3    H210729   3.124   7.280   1.417
 3596TIP3   OH210730   3.121   5.503   6.483
 3596TIP3    H110731   3.210   5.538   6.484
 3596TIP3    H210732   3.079   5.544   6.558
 3597TIP3   OH210733   0.788   2.015   4.510
 3597TIP3    H110734   0.854   1.990   4.446
 3597TIP3    H210735   0.798   1.951   4.581
 3598TIP3   OH210736   7.958   4.159   6.721
 3598TIP3    H110737   7.866   4.186   6.723
 3598TIP3    H210738   7.954   4.063   6.713
 3599TIP3   OH210739   7.189   1.529   3.009
 3599TIP3    H110740   7.266   1.520   2.953
 3599TIP3    H210741   7.168   1.623   3.007
 3600TIP3   OH210742   4.947   5.211   2.865
 3600TIP3    H110743   4.987   5.186   2.948
 3600TIP3    H210744   4.853   5.216   2.883
 3601TIP3   OH210745   8.086   1.437   0.923
 3601TIP3    H110746   8.065   1.429   1.016
 3601TIP3    H210747   8.145   1.513   0.919
 3602TIP3   OH210748   6.402   4.012   4.660
 3602TIP3    H110749   6.317   3.990   4.623
 3602TIP3    H210750   6.399   4.106   4.673
 3603TIP3   OH210751   7.886   3.897   0.882
 3603TIP3    H110752   7.939   3.838   0.828
 3603TIP3    H210753   7.801   3.899   0.838
 3604TIP3   OH210754   4.321   5.593   0.988
 3604TIP3    H110755   4.294   5.653   1.057
 3604TIP3    H210756   4.396   5.547   1.024
 3605TIP3   OH210757   2.488   0.670   6.219
 3605TIP3    H110758   2.506   0.712   6.135
 3605TIP3    H210759   2.462   0.581   6.196
 3606TIP3   OH210760   7.788   7.599   1.110
 3606TIP3    H110761   7.782   7.646   1.193
 3606TIP3    H210762   7.730   7.523   1.122
 3607TIP3   OH210763   1.107   5.959   3.326
 3607TIP3    H110764   1.102   6.049   3.358
 3607TIP3    H210765   1.141   5.909   3.399
 3608TIP3   OH210766   6.103   6.195   5.191
 3608TIP3    H110767   6.052   6.260   5.143
 3608TIP3    H210768   6.105   6.228   5.281
 3609TIP3   OH210769   0.544   2.252   3.953
 3609TIP3    H110770   0.524   2.194   3.880
 3609TIP3    H210771   0.560   2.337   3.913
 3610TIP3   OH210772   1.946   1.873   5.949
 3610TIP3    H110773   1.882   1.944   5.953
 3610TIP3    H210774   2.006   1.892   6.021
 3611TIP3   OH210775   5.687   1.173   6.683
 3611TIP3    H110776   5.771   1.212   6.658
 3611TIP3    H210777   5.700   1.079   6.670
 3612TIP3   OH210778   7.143   4.135   0.410
 3612TIP3    H110779   7.095   4.119   0.492
 3612TIP3    H210780   7.235   4.139   0.436
 3613TIP3   OH210781   0.971   1.898   3.965
 3613TIP3    H110782   1.026   1.954   4.019
 3613TIP3    H210783   1.020   1.888   3.883
 3614TIP3   OH210784   6.850   7.093   2.765
 3614TIP3    H110785   6.907   7.170   2.776
 3614TIP3    H210786   6.865   7.064   2.675
 3615TIP3   OH210787   3.202   4.387   4.709
 3615TIP3    H110788   3.290   4.413   4.738
 3615TIP3    H210789   3.214   4.359   4.618
 3616TIP3   OH210790   3.503   0.262   3.978
 3616TIP3    H110791   3.446   0.335   4.005
 3616TIP3    H210792   3.502   0.265   3.883
 3617TIP3   OH210793   2.943   4.282   4.098
 3617TIP3    H110794   3.006   4.212   4.114
 3617TIP3    H210795   2.865   4.256   4.146
 3618TIP3   OH210796   7.391   1.631   3.488
 3618TIP3    H110797   7.313   1.677   3.456
 3618TIP3    H210798   7.370   1.538   3.479
 3619TIP3   OH210799   0.235   0.862   1.673
 3619TIP3    H110800   0.184   0.894   1.747
 3619TIP3    H210801   0.173   0.858   1.600
 3620TIP3   OH210802   4.595   3.527   1.064
 3620TIP3    H110803   4.687   3.542   1.089
 3620TIP3    H210804   4.545   3.586   1.120
 3621TIP3   OH210805   4.992   2.516   6.684
 3621TIP3    H110806   5.027   2.432   6.653
 3621TIP3    H210807   5.068   2.562   6.721
 3622TIP3   OH210808   0.141   7.564   3.268
 3622TIP3    H110809   0.083   7.489   3.258
 3622TIP3    H210810   0.199   7.541   3.341
 3623TIP3   OH210811   3.031   3.343   3.046
 3623TIP3    H110812   3.047   3.297   2.963
 3623TIP3    H210813   3.037   3.275   3.113
 3624TIP3   OH210814   4.912   7.345   2.383
 3624TIP3    H110815   4.894   7.439   2.393
 3624TIP3    H210816   5.000   7.341   2.347
 3625TIP3   OH210817   6.626   7.176   5.601
 3625TIP3    H110818   6.699   7.168   5.663
 3625TIP3    H210819   6.600   7.086   5.582
 3626TIP3   OH210820   5.318   0.593   1.329
 3626TIP3    H110821   5.298   0.509   1.287
 3626TIP3    H210822   5.368   0.641   1.264
 3627TIP3   OH210823   4.538   3.512   2.726
 3627TIP3    H110824   4.455   3.501   2.679
 3627TIP3    H210825   4.517   3.487   2.816
 3628TIP3   OH210826   1.911   2.419   0.399
 3628TIP3    H110827   1.949   2.334   0.422
 3628TIP3    H210828   1.826   2.419   0.442
 3629TIP3   OH210829   3.868   4.215   1.190
 3629TIP3    H110830   3.829   4.297   1.220
 3629TIP3    H210831   3.946   4.243   1.141
 3630TIP3   OH210832   0.917   5.586   4.459
 3630TIP3    H110833   0.927   5.670   4.414
 3630TIP3    H210834   0.952   5.522   4.397
 3631TIP3   OH210835   3.623   7.659   0.506
 3631TIP3    H110836   3.538   7.702   0.494
 3631TIP3    H210837   3.603   7.582   0.560
 3632TIP3   OH210838   0.478   0.530   3.328
 3632TIP3    H110839   0.436   0.455   3.371
 3632TIP3    H210840   0.429   0.606   3.360
 3633TIP3   OH210841   3.120   0.891   4.172
 3633TIP3    H110842   3.194   0.830   4.169
 3633TIP3    H210843   3.059   0.858   4.107
 3634TIP3   OH210844   7.364   4.617   3.979
 3634TIP3    H110845   7.430   4.599   4.046
 3634TIP3    H210846   7.393   4.699   3.938
 3635TIP3   OH210847   1.424   1.719   6.026
 3635TIP3    H110848   1.462   1.682   5.946
 3635TIP3    H210849   1.371   1.649   6.063
 3636TIP3   OH210850   0.194   2.758   1.353
 3636TIP3    H110851   0.233   2.702   1.421
 3636TIP3    H210852   0.109   2.719   1.336
 3637TIP3   OH210853   7.242   2.987   0.011
 3637TIP3    H110854   7.157   2.971  -0.030
 3637TIP3    H210855   7.221   3.041   0.088
 3638TIP3   OH210856   3.975   2.282   5.959
 3638TIP3    H110857   4.021   2.200   5.939
 3638TIP3    H210858   3.921   2.299   5.882
 3639TIP3   OH210859   5.619   4.113   2.870
 3639TIP3    H110860   5.687   4.108   2.937
 3639TIP3    H210861   5.644   4.188   2.816
 3640TIP3   OH210862   6.942   1.726   0.457
 3640TIP3    H110863   6.984   1.799   0.411
 3640TIP3    H210864   6.889   1.769   0.525
 3641TIP3   OH210865   1.968   4.422   2.489
 3641TIP3    H110866   2.040   4.364   2.464
 3641TIP3    H210867   1.983   4.502   2.439
 3642TIP3   OH210868   7.677   1.649   3.503
 3642TIP3    H110869   7.684   1.707   3.579
 3642TIP3    H210870   7.583   1.640   3.489
 3643TIP3   OH210871   1.619   6.056   2.732
 3643TIP3    H110872   1.711   6.084   2.726
 3643TIP3    H210873   1.612   6.015   2.818
 3644TIP3   OH210874   5.668   1.303   1.032
 3644TIP3    H110875   5.689   1.216   1.000
 3644TIP3    H210876   5.686   1.361   0.958
 3645TIP3   OH210877   6.209   6.451   3.996
 3645TIP3    H110878   6.167   6.426   3.914
 3645TIP3    H210879   6.302   6.434   3.982
 3646TIP3   OH210880   7.601   4.856   4.823
 3646TIP3    H110881   7.583   4.798   4.897
 3646TIP3    H210882   7.686   4.828   4.790
 3647TIP3   OH210883   7.551   7.137   6.590
 3647TIP3    H110884   7.553   7.044   6.614
 3647TIP3    H210885   7.536   7.183   6.673
 3648TIP3   OH210886   0.323   1.640   2.989
 3648TIP3    H110887   0.396   1.672   3.042
 3648TIP3    H210888   0.251   1.700   3.009
 3649TIP3   OH210889   6.202   2.133   1.838
 3649TIP3    H110890   6.206   2.094   1.750
 3649TIP3    H210891   6.121   2.183   1.838
 3650TIP3   OH210892   5.633   7.157   2.060
 3650TIP3    H110893   5.583   7.153   2.141
 3650TIP3    H210894   5.609   7.241   2.021
 3651TIP3   OH210895   6.940   2.833   6.562
 3651TIP3    H110896   7.000   2.759   6.574
 3651TIP3    H210897   6.917   2.831   6.469
 3652TIP3   OH210898   2.612   4.540   0.816
 3652TIP3    H110899   2.614   4.544   0.720
 3652TIP3    H210900   2.650   4.454   0.836
 3653TIP3   OH210901   0.618   4.506   1.358
 3653TIP3    H110902   0.523   4.505   1.362
 3653TIP3    H210903   0.645   4.434   1.415
 3654TIP3   OH210904   7.253   7.058   5.302
 3654TIP3    H110905   7.310   7.079   5.375
 3654TIP3    H210906   7.220   7.143   5.272
 3655TIP3   OH210907   4.140   7.564   5.116
 3655TIP3    H110908   4.098   7.537   5.198
 3655TIP3    H210909   4.096   7.646   5.092
 3656TIP3   OH210910   1.173   7.740   0.466
 3656TIP3    H110911   1.191   7.646   0.473
 3656TIP3    H210912   1.084   7.750   0.501
 3657TIP3   OH210913   5.651   5.428   4.988
 3657TIP3    H110914   5.628   5.396   5.075
 3657TIP3    H210915   5.604   5.371   4.928
 3658TIP3   OH210916   2.381   4.005   5.263
 3658TIP3    H110917   2.307   3.971   5.214
 3658TIP3    H210918   2.445   4.030   5.196
 3659TIP3   OH210919   7.219   5.532   6.653
 3659TIP3    H110920   7.212   5.601   6.719
 3659TIP3    H210921   7.312   5.509   6.651
 3660TIP3   OH210922   4.886   1.818   2.918
 3660TIP3    H110923   4.952   1.827   2.850
 3660TIP3    H210924   4.932   1.779   2.992
 3661TIP3   OH210925   8.252   5.052   0.134
 3661TIP3    H110926   8.330   5.065   0.080
 3661TIP3    H210927   8.182   5.034   0.072
 3662TIP3   OH210928   3.132   6.698   0.736
 3662TIP3    H110929   3.050   6.744   0.722
 3662TIP3    H210930   3.197   6.747   0.686
 3663TIP3   OH210931   6.248   7.098   1.899
 3663TIP3    H110932   6.323   7.084   1.957
 3663TIP3    H210933   6.213   7.183   1.926
 3664TIP3   OH210934   0.300   5.020   1.114
 3664TIP3    H110935   0.230   4.958   1.132
 3664TIP3    H210936   0.263   5.105   1.135
 3665TIP3   OH210937   4.726   4.996   1.290
 3665TIP3    H110938   4.681   5.077   1.312
 3665TIP3    H210939   4.729   4.947   1.373
 3666TIP3   OH210940   1.740   3.526   6.366
 3666TIP3    H110941   1.765   3.599   6.423
 3666TIP3    H210942   1.731   3.566   6.279
 3667TIP3   OH210943   0.864   3.962   1.756
 3667TIP3    H110944   0.876   3.978   1.662
 3667TIP3    H210945   0.818   3.879   1.761
 3668TIP3   OH210946   7.830   1.893   2.822
 3668TIP3    H110947   7.862   1.813   2.779
 3668TIP3    H210948   7.769   1.861   2.889
 3669TIP3   OH210949   0.572   3.185   2.734
 3669TIP3    H110950   0.504   3.252   2.741
 3669TIP3    H210951   0.572   3.160   2.642
 3670TIP3   OH210952   6.204   4.032   1.110
 3670TIP3    H110953   6.217   4.074   1.025
 3670TIP3    H210954   6.237   3.943   1.097
 3671TIP3   OH210955   0.579   3.805   5.843
 3671TIP3    H110956   0.618   3.884   5.881
 3671TIP3    H210957   0.585   3.818   5.748
 3672TIP3   OH210958   3.360   7.823   5.950
 3672TIP3    H110959   3.402   7.869   6.023
 3672TIP3    H210960   3.326   7.893   5.894
 3673TIP3   OH210961   5.296   3.634   4.211
 3673TIP3    H110962   5.368   3.684   4.174
 3673TIP3    H210963   5.275   3.568   4.144
 3674TIP3   OH210964   5.235   0.295   1.764
 3674TIP3    H110965   5.309   0.347   1.795
 3674TIP3    H210966   5.262   0.265   1.677
 3675TIP3   OH210967   6.240   3.571   6.410
 3675TIP3    H110968   6.324   3.603   6.378
 3675TIP3    H210969   6.175   3.626   6.366
 3676TIP3   OH210970   4.236   7.489   4.320
 3676TIP3    H110971   4.321   7.453   4.346
 3676TIP3    H210972   4.206   7.537   4.398
 3677TIP3   OH210973   6.931   3.392   0.817
 3677TIP3    H110974   6.988   3.447   0.870
 3677TIP3    H210975   6.907   3.447   0.743
 3678TIP3   OH210976   2.996   7.763   2.898
 3678TIP3    H110977   2.924   7.787   2.956
 3678TIP3    H210978   2.968   7.794   2.812
 3679TIP3   OH210979   3.804   7.089   5.638
 3679TIP3    H110980   3.843   7.032   5.704
 3679TIP3    H210981   3.711   7.089   5.657
 3680TIP3   OH210982   5.550   2.585   1.080
 3680TIP3    H110983   5.560   2.567   0.986
 3680TIP3    H210984   5.482   2.652   1.084
 3681TIP3   OH210985   5.456   3.904   4.742
 3681TIP3    H110986   5.529   3.869   4.792
 3681TIP3    H210987   5.438   3.838   4.675
 3682TIP3   OH210988   2.002   1.236   1.366
 3682TIP3    H110989   2.091   1.233   1.333
 3682TIP3    H210990   1.995   1.321   1.410
 3683TIP3   OH210991   7.704   1.594   4.027
 3683TIP3    H110992   7.690   1.504   3.999
 3683TIP3    H210993   7.789   1.617   3.990
 3684TIP3   OH210994   2.954   5.259   3.971
 3684TIP3    H110995   2.981   5.295   4.056
 3684TIP3    H210996   2.977   5.167   3.976
 3685TIP3   OH210997   0.410   2.423   1.745
 3685TIP3    H110998   0.492   2.430   1.794
 3685TIP3    H210999   0.394   2.328   1.740
 3686TIP3   OH211000   4.528   2.617   2.305
 3686TIP3    H111001   4.472   2.694   2.319
 3686TIP3    H211002   4.471   2.543   2.327
 3687TIP3   OH211003   6.956   2.675   2.142
 3687TIP3    H111004   7.037   2.707   2.103
 3687TIP3    H211005   6.935   2.740   2.209
 3688TIP3   OH211006   5.940   0.464   0.906
 3688TIP3    H111007   6.019   0.474   0.854
 3688TIP3    H211008   5.964   0.494   0.994
 3689TIP3   OH211009   7.298   6.779   1.854
 3689TIP3    H111010   7.285   6.702   1.910
 3689TIP3    H211011   7.357   6.748   1.785
 3690TIP3   OH211012   2.735   5.498   2.885
 3690TIP3    H111013   2.783   5.576   2.914
 3690TIP3    H211014   2.649   5.531   2.861
 3691TIP3   OH211015   5.962   3.036   0.343
 3691TIP3    H111016   6.009   2.984   0.278
 3691TIP3    H211017   6.018   3.113   0.356
 3692TIP3   OH211018   8.312   2.278   1.987
 3692TIP3    H111019   8.297   2.319   1.901
 3692TIP3    H211020   8.328   2.352   2.045
 3693TIP3   OH211021   1.738   4.462   5.886
 3693TIP3    H111022   1.798   4.483   5.957
 3693TIP3    H211023   1.795   4.433   5.815
 3694TIP3   OH211024   8.190   0.977   6.360
 3694TIP3    H111025   8.285   0.971   6.356
 3694TIP3    H211026   8.173   1.065   6.393
 3695TIP3   OH211027   0.715   4.632   2.676
 3695TIP3    H111028   0.697   4.612   2.768
 3695TIP3    H211029   0.751   4.720   2.677
 3696TIP3   OH211030   3.857   5.645   2.773
 3696TIP3    H111031   3.879   5.717   2.831
 3696TIP3    H211032   3.826   5.687   2.693
 3697TIP3   OH211033   4.157   6.478   5.544
 3697TIP3    H111034   4.154   6.573   5.549
 3697TIP3    H211035   4.066   6.450   5.538
 3698TIP3   OH211036   3.698   3.947   3.367
 3698TIP3    H111037   3.683   3.966   3.459
 3698TIP3    H211038   3.735   3.859   3.366
 3699TIP3   OH211039   3.244   2.616   1.121
 3699TIP3    H111040   3.181   2.574   1.061
 3699TIP3    H211041   3.190   2.673   1.176
 3700TIP3   OH211042   4.700   5.915   2.215
 3700TIP3    H111043   4.679   5.993   2.163
 3700TIP3    H211044   4.772   5.943   2.272
 3701TIP3   OH211045   6.002   0.900   6.501
 3701TIP3    H111046   5.923   0.943   6.534
 3701TIP3    H211047   6.070   0.967   6.505
 3702TIP3   OH211048   2.804   6.755   4.634
 3702TIP3    H111049   2.803   6.673   4.683
 3702TIP3    H211050   2.890   6.794   4.653
 3703TIP3   OH211051   6.195   2.802   4.208
 3703TIP3    H111052   6.152   2.841   4.285
 3703TIP3    H211053   6.223   2.716   4.237
 3704TIP3   OH211054   5.207   4.877   0.882
 3704TIP3    H111055   5.151   4.949   0.854
 3704TIP3    H211056   5.296   4.909   0.868
 3705TIP3   OH211057   2.638   0.720   5.679
 3705TIP3    H111058   2.648   0.654   5.610
 3705TIP3    H211059   2.543   0.735   5.683
 3706TIP3   OH211060   7.233   1.029   4.699
 3706TIP3    H111061   7.241   1.004   4.791
 3706TIP3    H211062   7.216   1.123   4.702
 3707TIP3   OH211063   2.352   6.027   1.230
 3707TIP3    H111064   2.422   6.092   1.227
 3707TIP3    H211065   2.383   5.962   1.293
 3708TIP3   OH211066   7.526   6.729   5.634
 3708TIP3    H111067   7.591   6.779   5.683
 3708TIP3    H211068   7.468   6.795   5.597
 3709TIP3   OH211069   3.459   3.858   4.020
 3709TIP3    H111070   3.422   3.944   3.999
 3709TIP3    H211071   3.405   3.826   4.092
 3710TIP3   OH211072   0.250   6.406   0.808
 3710TIP3    H111073   0.279   6.431   0.896
 3710TIP3    H211074   0.173   6.460   0.792
 3711TIP3   OH211075   4.319   7.497   0.320
 3711TIP3    H111076   4.248   7.444   0.284
 3711TIP3    H211077   4.298   7.506   0.413
 3712TIP3   OH211078   0.782   2.474   6.086
 3712TIP3    H111079   0.758   2.566   6.078
 3712TIP3    H211080   0.784   2.458   6.180
 3713TIP3   OH211081   0.543   1.186   3.679
 3713TIP3    H111082   0.610   1.120   3.692
 3713TIP3    H211083   0.462   1.145   3.709
 3714TIP3   OH211084   0.081   2.144   5.426
 3714TIP3    H111085   0.151   2.208   5.417
 3714TIP3    H211086   0.000   2.196   5.418
 3715TIP3   OH211087   5.973   2.249   1.737
 3715TIP3    H111088   5.987   2.337   1.702
 3715TIP3    H211089   5.881   2.231   1.721
 3716TIP3   OH211090   6.682   0.316   1.711
 3716TIP3    H111091   6.715   0.387   1.766
 3716TIP3    H211092   6.738   0.319   1.633
 3717TIP3   OH211093   1.249   3.537   5.076
 3717TIP3    H111094   1.284   3.480   5.144
 3717TIP3    H211095   1.178   3.486   5.037
 3718TIP3   OH211096   6.405   7.415   3.900
 3718TIP3    H111097   6.463   7.367   3.840
 3718TIP3    H211098   6.380   7.351   3.966
 3719TIP3   OH211099   4.004   6.724   5.517
 3719TIP3    H111100   3.914   6.691   5.525
 3719TIP3    H211101   3.997   6.797   5.455
 3720TIP3   OH211102   3.449   5.924   0.264
 3720TIP3    H111103   3.411   5.839   0.243
 3720TIP3    H211104   3.399   5.955   0.339
 3721TIP3   OH211105   8.187   5.222   4.258
 3721TIP3    H111106   8.102   5.266   4.250
 3721TIP3    H211107   8.229   5.235   4.173
 3722TIP3   OH211108   7.866   1.487   0.647
 3722TIP3    H111109   7.898   1.446   0.567
 3722TIP3    H211110   7.890   1.426   0.716
 3723TIP3   OH211111   5.075   4.082   1.621
 3723TIP3    H111112   5.077   4.131   1.704
 3723TIP3    H211113   5.030   4.141   1.560
 3724TIP3   OH211114   7.492   3.012   4.752
 3724TIP3    H111115   7.543   3.043   4.826
 3724TIP3    H211116   7.495   2.916   4.758
 3725TIP3   OH211117   6.753   3.801   5.632
 3725TIP3    H111118   6.837   3.839   5.658
 3725TIP3    H211119   6.688   3.857   5.674
 3726TIP3   OH211120   5.803   7.309   0.421
 3726TIP3    H111121   5.867   7.307   0.493
 3726TIP3    H211122   5.824   7.389   0.373
 3727TIP3   OH211123   2.260   6.527   6.192
 3727TIP3    H111124   2.209   6.473   6.132
 3727TIP3    H211125   2.336   6.555   6.141
 3728TIP3   OH211126   2.131   5.698   1.353
 3728TIP3    H111127   2.092   5.616   1.382
 3728TIP3    H211128   2.105   5.762   1.419
 3729TIP3   OH211129   7.093   2.557   5.004
 3729TIP3    H111130   7.000   2.544   5.022
 3729TIP3    H211131   7.134   2.475   5.031
 3730TIP3   OH211132   6.435   4.282   4.758
 3730TIP3    H111133   6.403   4.265   4.847
 3730TIP3    H211134   6.363   4.328   4.715
 3731TIP3   OH211135   5.816   1.474   5.868
 3731TIP3    H111136   5.847   1.399   5.919
 3731TIP3    H211137   5.751   1.437   5.808
 3732TIP3   OH211138   5.111   3.837   0.687
 3732TIP3    H111139   5.087   3.870   0.601
 3732TIP3    H211140   5.105   3.913   0.745
 3733TIP3   OH211141   0.752   2.928   4.845
 3733TIP3    H111142   0.698   3.007   4.844
 3733TIP3    H211143   0.842   2.961   4.852
 3734TIP3   OH211144   1.526   1.305   2.631
 3734TIP3    H111145   1.496   1.240   2.694
 3734TIP3    H211146   1.598   1.263   2.584
 3735TIP3   OH211147   5.496   0.851   5.414
 3735TIP3    H111148   5.413   0.805   5.426
 3735TIP3    H211149   5.512   0.847   5.319
 3736TIP3   OH211150   1.981   7.443   3.572
 3736TIP3    H111151   1.886   7.443   3.562
 3736TIP3    H211152   2.010   7.366   3.524
 3737TIP3   OH211153   5.309   7.132   3.123
 3737TIP3    H111154   5.386   7.166   3.079
 3737TIP3    H211155   5.238   7.192   3.099
 3738TIP3   OH211156   1.919   0.256   5.252
 3738TIP3    H111157   1.868   0.228   5.177
 3738TIP3    H211158   2.010   0.246   5.224
 3739TIP3   OH211159   4.923   6.933   0.468
 3739TIP3    H111160   5.013   6.966   0.457
 3739TIP3    H211161   4.875   7.007   0.506
 3740TIP3   OH211162   3.127   1.291   5.044
 3740TIP3    H111163   3.193   1.249   4.990
 3740TIP3    H211164   3.152   1.270   5.134
 3741TIP3   OH211165   2.209   0.609   6.240
 3741TIP3    H111166   2.228   0.633   6.331
 3741TIP3    H211167   2.162   0.526   6.247
 3742TIP3   OH211168   7.330   6.810   3.316
 3742TIP3    H111169   7.364   6.748   3.253
 3742TIP3    H211170   7.239   6.783   3.331
 3743TIP3   OH211171   3.351   6.560   4.493
 3743TIP3    H111172   3.446   6.551   4.505
 3743TIP3    H211173   3.340   6.572   4.398
 3744TIP3   OH211174   7.913   6.281   1.960
 3744TIP3    H111175   7.911   6.314   1.870
 3744TIP3    H211176   7.821   6.277   1.985
 3745TIP3   OH211177   7.734   4.169   6.495
 3745TIP3    H111178   7.783   4.086   6.494
 3745TIP3    H211179   7.763   4.214   6.415
 3746TIP3   OH211180   0.363   4.457   4.705
 3746TIP3    H111181   0.379   4.506   4.625
 3746TIP3    H211182   0.413   4.503   4.773
 3747TIP3   OH211183   2.445   6.669   2.994
 3747TIP3    H111184   2.425   6.576   3.003
 3747TIP3    H211185   2.537   6.677   3.019
 3748TIP3   OH211186   3.552   6.271   5.458
 3748TIP3    H111187   3.597   6.234   5.534
 3748TIP3    H211188   3.616   6.264   5.387
 3749TIP3   OH211189  -0.004   2.962   1.790
 3749TIP3    H111190   0.055   3.037   1.790
 3749TIP3    H211191   0.019   2.913   1.869
 3750TIP3   OH211192   4.694   4.370   1.019
 3750TIP3    H111193   4.654   4.405   1.098
 3750TIP3    H211194   4.699   4.275   1.035
 3751TIP3   OH211195   7.613   7.699   5.158
 3751TIP3    H111196   7.698   7.662   5.181
 3751TIP3    H211197   7.633   7.790   5.133
 3752TIP3   OH211198   1.342   7.212   5.064
 3752TIP3    H111199   1.385   7.277   5.119
 3752TIP3    H211200   1.396   7.133   5.074
 3753TIP3   OH211201   1.272   0.324   3.473
 3753TIP3    H111202   1.199   0.370   3.515
 3753TIP3    H211203   1.248   0.231   3.478
 3754TIP3   OH211204   3.217   3.726   3.104
 3754TIP3    H111205   3.141   3.695   3.054
 3754TIP3    H211206   3.202   3.820   3.115
 3755TIP3   OH211207   4.344   7.540   0.597
 3755TIP3    H111208   4.374   7.629   0.575
 3755TIP3    H211209   4.308   7.549   0.686
 3756TIP3   OH211210   2.205   5.576   2.668
 3756TIP3    H111211   2.174   5.486   2.673
 3756TIP3    H211212   2.174   5.617   2.749
 3757TIP3   OH211213   2.267   2.702   3.704
 3757TIP3    H111214   2.282   2.771   3.768
 3757TIP3    H211215   2.223   2.633   3.753
 3758TIP3   OH211216   5.362   1.131   1.819
 3758TIP3    H111217   5.285   1.171   1.859
 3758TIP3    H211218   5.421   1.204   1.803
 3759TIP3   OH211219   6.259   6.492   1.419
 3759TIP3    H111220   6.254   6.540   1.337
 3759TIP3    H211221   6.184   6.432   1.416
 3760TIP3   OH211222   0.015   3.509   3.925
 3760TIP3    H111223   0.036   3.590   3.880
 3760TIP3    H211224   0.073   3.444   3.885
 3761TIP3   OH211225   6.794   5.389   6.564
 3761TIP3    H111226   6.839   5.304   6.562
 3761TIP3    H211227   6.720   5.375   6.622
 3762TIP3   OH211228   8.075   2.686   0.129
 3762TIP3    H111229   8.002   2.624   0.134
 3762TIP3    H211230   8.062   2.746   0.203
 3763TIP3   OH211231   0.637   0.559   1.199
 3763TIP3    H111232   0.542   0.564   1.206
 3763TIP3    H211233   0.653   0.495   1.130
 3764TIP3   OH211234   1.075   6.624   2.453
 3764TIP3    H111235   1.109   6.575   2.529
 3764TIP3    H211236   1.031   6.557   2.401
 3765TIP3   OH211237   6.283   2.248   2.578
 3765TIP3    H111238   6.321   2.202   2.503
 3765TIP3    H211239   6.224   2.185   2.618
 3766TIP3   OH211240   1.786   1.088   6.360
 3766TIP3    H111241   1.760   1.082   6.452
 3766TIP3    H211242   1.750   1.009   6.320
 3767TIP3   OH211243   3.789   1.351   4.334
 3767TIP3    H111244   3.708   1.393   4.306
 3767TIP3    H211245   3.768   1.258   4.336
 3768TIP3   OH211246   3.975   1.377   4.145
 3768TIP3    H111247   3.924   1.374   4.226
 3768TIP3    H211248   3.961   1.292   4.105
 3769TIP3   OH211249   2.671   6.332   0.416
 3769TIP3    H111250   2.726   6.270   0.369
 3769TIP3    H211251   2.690   6.417   0.376
 3770TIP3   OH211252   3.132   0.007   5.391
 3770TIP3    H111253   3.094   0.044   5.471
 3770TIP3    H211254   3.066  -0.056   5.360
 3771TIP3   OH211255   7.601   0.003   6.305
 3771TIP3    H111256   7.553  -0.020   6.385
 3771TIP3    H211257   7.598   0.099   6.303
 3772TIP3   OH211258   4.536   2.404   4.886
 3772TIP3    H111259   4.505   2.316   4.904
 3772TIP3    H211260   4.518   2.452   4.967
 3773TIP3   OH211261   7.881   5.059   2.210
 3773TIP3    H111262   7.850   5.028   2.125
 3773TIP3    H211263   7.926   4.983   2.248
 3774TIP3   OH211264   1.556   7.292   3.096
 3774TIP3    H111265   1.569   7.354   3.025
 3774TIP3    H211266   1.601   7.212   3.067
 3775TIP3   OH211267   7.140   6.551   6.373
 3775TIP3    H111268   7.112   6.515   6.289
 3775TIP3    H211269   7.113   6.643   6.369
 3776TIP3   OH211270   0.795   4.659   3.945
 3776TIP3    H111271   0.701   4.679   3.954
 3776TIP3    H211272   0.797   4.574   3.900
 3777TIP3   OH211273   2.168   6.379   0.048
 3777TIP3    H111274   2.139   6.289   0.040
 3777TIP3    H211275   2.217   6.382   0.130
 3778TIP3   OH211276   6.827   4.097   5.080
 3778TIP3    H111277   6.811   4.144   4.998
 3778TIP3    H211278   6.792   4.010   5.065
 3779TIP3   OH211279   1.634   5.172   2.168
 3779TIP3    H111280   1.647   5.266   2.179
 3779TIP3    H211281   1.565   5.150   2.231
 3780TIP3   OH211282   3.516   1.770   1.220
 3780TIP3    H111283   3.523   1.819   1.302
 3780TIP3    H211284   3.602   1.729   1.209
 3781TIP3   OH211285   5.222   2.346   1.284
 3781TIP3    H111286   5.251   2.260   1.252
 3781TIP3    H211287   5.303   2.390   1.310
 3782TIP3   OH211288   1.122   7.164   6.098
 3782TIP3    H111289   1.059   7.115   6.046
 3782TIP3    H211290   1.204   7.115   6.089
 3783TIP3   OH211291   6.186   7.750   3.309
 3783TIP3    H111292   6.259   7.807   3.287
 3783TIP3    H211293   6.211   7.710   3.393
 3784TIP3   OH211294   2.545   7.532   5.656
 3784TIP3    H111295   2.490   7.575   5.591
 3784TIP3    H211296   2.610   7.598   5.679
 3785TIP3   OH211297   5.520   0.643   2.896
 3785TIP3    H111298   5.552   0.616   2.982
 3785TIP3    H211299   5.467   0.720   2.913
 3786TIP3   OH211300   6.849   2.011   3.600
 3786TIP3    H111301   6.833   1.918   3.619
 3786TIP3    H211302   6.862   2.051   3.686
 3787TIP3   OH211303   1.653   0.514   4.384
 3787TIP3    H111304   1.708   0.562   4.445
 3787TIP3    H211305   1.677   0.548   4.298
 3788TIP3   OH211306   0.062   3.918   5.983
 3788TIP3    H111307   0.156   3.914   5.999
 3788TIP3    H211308   0.052   3.986   5.916
 3789TIP3   OH211309   3.130   6.658   1.009
 3789TIP3    H111310   3.040   6.636   1.034
 3789TIP3    H211311   3.129   6.658   0.913
 3790TIP3   OH211312   5.970   2.739   1.212
 3790TIP3    H111313   6.062   2.728   1.190
 3790TIP3    H211314   5.962   2.831   1.237
 3791TIP3   OH211315   6.026   2.198   3.871
 3791TIP3    H111316   6.111   2.211   3.827
 3791TIP3    H211317   6.033   2.249   3.952
 3792TIP3   OH211318   2.701   2.517   5.566
 3792TIP3    H111319   2.734   2.448   5.624
 3792TIP3    H211320   2.683   2.472   5.483
 3793TIP3   OH211321   3.534   7.697   3.012
 3793TIP3    H111322   3.546   7.768   3.076
 3793TIP3    H211323   3.454   7.653   3.040
 3794TIP3   OH211324   6.660   3.330   4.654
 3794TIP3    H111325   6.591   3.280   4.610
 3794TIP3    H211326   6.729   3.339   4.589
 3795TIP3   OH211327   0.336   1.395   3.902
 3795TIP3    H111328   0.284   1.317   3.920
 3795TIP3    H211329   0.291   1.436   3.828
 3796TIP3   OH211330   8.078   7.638   6.105
 3796TIP3    H111331   8.097   7.724   6.067
 3796TIP3    H211332   8.149   7.623   6.167
 3797TIP3   OH211333   1.174   1.388   4.254
 3797TIP3    H111334   1.196   1.477   4.281
 3797TIP3    H211335   1.080   1.380   4.269
 3798TIP3   OH211336   7.971   4.279   2.196
 3798TIP3    H111337   7.979   4.191   2.159
 3798TIP3    H211338   8.021   4.276   2.277
 3799TIP3   OH211339   2.833   3.714   4.930
 3799TIP3    H111340   2.759   3.760   4.892
 3799TIP3    H211341   2.910   3.764   4.903
 3800TIP3   OH211342   7.998   4.838   2.973
 3800TIP3    H111343   7.965   4.778   2.906
 3800TIP3    H211344   8.023   4.781   3.046
 3801TIP3   OH211345   7.685   7.252   2.496
 3801TIP3    H111346   7.719   7.317   2.557
 3801TIP3    H211347   7.590   7.254   2.510
 3802TIP3   OH211348   6.312   0.964   1.635
 3802TIP3    H111349   6.287   0.873   1.623
 3802TIP3    H211350   6.245   1.014   1.587
 3803TIP3   OH211351   3.586   3.636   1.501
 3803TIP3    H111352   3.605   3.561   1.445
 3803TIP3    H211353   3.597   3.712   1.443
 3804TIP3   OH211354   1.997   2.301   5.061
 3804TIP3    H111355   2.083   2.295   5.103
 3804TIP3    H211356   2.003   2.240   4.987
 3805TIP3   OH211357   5.617   1.011   2.363
 3805TIP3    H111358   5.553   1.028   2.432
 3805TIP3    H211359   5.629   0.916   2.364
 3806TIP3   OH211360   6.298   3.561   1.070
 3806TIP3    H111361   6.277   3.567   1.164
 3806TIP3    H211362   6.347   3.479   1.062
 3807TIP3   OH211363   7.178   0.586   2.761
 3807TIP3    H111364   7.083   0.596   2.769
 3807TIP3    H211365   7.194   0.492   2.771
 3808TIP3   OH211366   4.064   4.761   0.050
 3808TIP3    H111367   4.047   4.724   0.137
 3808TIP3    H211368   4.159   4.757   0.041
 3809TIP3   OH211369   1.114   0.224   2.098
 3809TIP3    H111370   1.085   0.315   2.096
 3809TIP3    H211371   1.157   0.214   2.183
 3810TIP3   OH211372   0.815   3.081   5.927
 3810TIP3    H111373   0.845   2.994   5.901
 3810TIP3    H211374   0.845   3.139   5.857
 3811TIP3   OH211375   8.195   4.280   6.502
 3811TIP3    H111376   8.253   4.250   6.433
 3811TIP3    H211377   8.150   4.356   6.465
 3812TIP3   OH211378   6.388   6.385   2.099
 3812TIP3    H111379   6.307   6.399   2.049
 3812TIP3    H211380   6.369   6.310   2.155
 3813TIP3   OH211381   8.261   4.760   5.690
 3813TIP3    H111382   8.189   4.737   5.632
 3813TIP3    H211383   8.271   4.855   5.680
 3814TIP3   OH211384   2.049   7.175   1.402
 3814TIP3    H111385   1.966   7.164   1.449
 3814TIP3    H211386   2.026   7.225   1.324
 3815TIP3   OH211387   5.137   2.473   0.426
 3815TIP3    H111388   5.126   2.464   0.521
 3815TIP3    H211389   5.049   2.490   0.393
 3816TIP3   OH211390   3.095   4.013   0.501
 3816TIP3    H111391   3.047   3.989   0.580
 3816TIP3    H211392   3.069   3.948   0.436
 3817TIP3   OH211393   1.219   3.536   4.141
 3817TIP3    H111394   1.294   3.548   4.200
 3817TIP3    H211395   1.208   3.441   4.135
 3818TIP3   OH211396   4.920   4.068   6.765
 3818TIP3    H111397   4.904   3.978   6.736
 3818TIP3    H211398   4.995   4.062   6.823
 3819TIP3   OH211399   7.421   4.402   5.653
 3819TIP3    H111400   7.449   4.494   5.652
 3819TIP3    H211401   7.478   4.358   5.591
 3820TIP3   OH211402   4.704   0.446   0.114
 3820TIP3    H111403   4.674   0.520   0.061
 3820TIP3    H211404   4.679   0.469   0.203
 3821TIP3   OH211405   7.484   1.419   2.321
 3821TIP3    H111406   7.488   1.445   2.413
 3821TIP3    H211407   7.402   1.370   2.313
 3822TIP3   OH211408   6.730   1.349   4.325
 3822TIP3    H111409   6.672   1.415   4.287
 3822TIP3    H211410   6.745   1.286   4.255
 3823TIP3   OH211411   6.206   7.346   3.725
 3823TIP3    H111412   6.122   7.320   3.762
 3823TIP3    H211413   6.262   7.360   3.801
 3824TIP3   OH211414   1.709   4.359   3.088
 3824TIP3    H111415   1.656   4.319   3.019
 3824TIP3    H211416   1.785   4.395   3.042
 3825TIP3   OH211417   3.916   1.841   1.902
 3825TIP3    H111418   3.919   1.882   1.989
 3825TIP3    H211419   3.828   1.803   1.897
 3826TIP3   OH211420   5.275   3.119   0.740
 3826TIP3    H111421   5.246   3.209   0.755
 3826TIP3    H211422   5.240   3.070   0.814
 3827TIP3   OH211423   0.565   3.578   2.415
 3827TIP3    H111424   0.507   3.516   2.372
 3827TIP3    H211425   0.520   3.662   2.406
 3828TIP3   OH211426   2.682   7.387   5.444
 3828TIP3    H111427   2.656   7.443   5.516
 3828TIP3    H211428   2.653   7.433   5.365
 3829TIP3   OH211429   1.636   5.582   2.429
 3829TIP3    H111430   1.713   5.586   2.372
 3829TIP3    H211431   1.639   5.664   2.478
 3830TIP3   OH211432   1.583   2.072   5.235
 3830TIP3    H111433   1.609   2.142   5.175
 3830TIP3    H211434   1.550   2.003   5.178
 3831TIP3   OH211435   0.252   6.163   4.573
 3831TIP3    H111436   0.213   6.090   4.525
 3831TIP3    H211437   0.181   6.199   4.626
 3832TIP3   OH211438   3.815   2.171   1.960
 3832TIP3    H111439   3.824   2.107   2.030
 3832TIP3    H211440   3.796   2.119   1.882
 3833TIP3   OH211441   5.685   1.940   3.789
 3833TIP3    H111442   5.683   2.007   3.857
 3833TIP3    H211443   5.751   1.971   3.727
 3834TIP3   OH211444   6.028   5.620   1.385
 3834TIP3    H111445   6.007   5.535   1.425
 3834TIP3    H211446   6.087   5.661   1.448
 3835TIP3   OH211447   1.447   7.344   3.852
 3835TIP3    H111448   1.389   7.362   3.926
 3835TIP3    H211449   1.442   7.422   3.797
 3836TIP3   OH211450   1.850   3.030   3.866
 3836TIP3    H111451   1.861   3.057   3.774
 3836TIP3    H211452   1.765   3.068   3.891
 3837TIP3   OH211453   4.657   6.245   2.590
 3837TIP3    H111454   4.566   6.228   2.616
 3837TIP3    H211455   4.705   6.168   2.620
 3838TIP3   OH211456   5.460   5.554   4.149
 3838TIP3    H111457   5.489   5.574   4.238
 3838TIP3    H211458   5.516   5.607   4.093
 3839TIP3   OH211459   6.342   5.248   0.830
 3839TIP3    H111460   6.248   5.233   0.817
 3839TIP3    H211461   6.376   5.163   0.858
 3840TIP3   OH211462   7.647   6.256   1.986
 3840TIP3    H111463   7.644   6.283   2.077
 3840TIP3    H211464   7.627   6.162   1.988
 3841TIP3   OH211465   0.689   2.277   4.508
 3841TIP3    H111466   0.632   2.298   4.582
 3841TIP3    H211467   0.707   2.184   4.517
 3842TIP3   OH211468   0.463   0.751   2.792
 3842TIP3    H111469   0.384   0.773   2.744
 3842TIP3    H211470   0.438   0.754   2.884
 3843TIP3   OH211471   0.544   4.843   4.075
 3843TIP3    H111472   0.462   4.795   4.091
 3843TIP3    H211473   0.534   4.925   4.124
 3844TIP3   OH211474   8.100   0.768   2.377
 3844TIP3    H111475   8.011   0.733   2.386
 3844TIP3    H211476   8.088   0.862   2.370
 3845TIP3   OH211477   4.981   6.146   2.866
 3845TIP3    H111478   5.064   6.194   2.868
 3845TIP3    H211479   4.919   6.208   2.827
 3846TIP3   OH211480   7.335   4.540   0.019
 3846TIP3    H111481   7.253   4.522   0.066
 3846TIP3    H211482   7.320   4.507  -0.069
 3847TIP3   OH211483   1.662   6.859   6.347
 3847TIP3    H111484   1.608   6.813   6.283
 3847TIP3    H211485   1.711   6.790   6.392
 3848TIP3   OH211486   1.027   1.787   2.789
 3848TIP3    H111487   1.004   1.857   2.851
 3848TIP3    H211488   1.113   1.813   2.755
 3849TIP3   OH211489   7.486   4.266   5.018
 3849TIP3    H111490   7.392   4.253   5.001
 3849TIP3    H211491   7.492   4.357   5.046
 3850TIP3   OH211492   7.738   2.321   4.870
 3850TIP3    H111493   7.664   2.312   4.930
 3850TIP3    H211494   7.807   2.267   4.909
 3851TIP3   OH211495   0.056   3.918   3.490
 3851TIP3    H111496   0.008   4.001   3.493
 3851TIP3    H211497   0.028   3.877   3.408
 3852TIP3   OH211498   7.209   5.057   4.495
 3852TIP3    H111499   7.230   5.027   4.583
 3852TIP3    H211500   7.213   4.978   4.441
 3853TIP3   OH211501   1.492   0.433   3.621
 3853TIP3    H111502   1.426   0.469   3.681
 3853TIP3    H211503   1.443   0.410   3.542
 3854TIP3   OH211504   3.885   5.806   6.259
 3854TIP3    H111505   3.887   5.884   6.314
 3854TIP3    H211506   3.807   5.816   6.205
 3855TIP3   OH211507   7.084   7.641   3.334
 3855TIP3    H111508   7.123   7.554   3.340
 3855TIP3    H211509   7.102   7.681   3.419
 3856TIP3   OH211510   3.517   1.243   4.545
 3856TIP3    H111511   3.427   1.213   4.562
 3856TIP3    H211512   3.534   1.215   4.455
 3857TIP3   OH211513   3.490   1.004   4.361
 3857TIP3    H111514   3.433   0.986   4.437
 3857TIP3    H211515   3.432   1.047   4.298
 3858TIP3   OH211516   4.253   5.372   1.762
 3858TIP3    H111517   4.226   5.285   1.794
 3858TIP3    H211518   4.339   5.386   1.803
 3859TIP3   OH211519   2.976   6.387   3.133
 3859TIP3    H111520   3.049   6.402   3.194
 3859TIP3    H211521   3.017   6.380   3.047
 3860TIP3   OH211522   2.802   1.061   5.163
 3860TIP3    H111523   2.838   1.081   5.076
 3860TIP3    H211524   2.846   0.980   5.189
 3861TIP3   OH211525   7.877   3.417   3.164
 3861TIP3    H111526   7.833   3.461   3.091
 3861TIP3    H211527   7.861   3.474   3.239
 3862TIP3   OH211528   1.351   5.912   1.564
 3862TIP3    H111529   1.304   5.994   1.573
 3862TIP3    H211530   1.441   5.938   1.544
 3863TIP3   OH211531   0.665   6.389   1.333
 3863TIP3    H111532   0.726   6.419   1.401
 3863TIP3    H211533   0.590   6.448   1.342
 3864TIP3   OH211534   8.011   1.698   4.357
 3864TIP3    H111535   8.038   1.781   4.318
 3864TIP3    H211536   8.074   1.634   4.323
 3865TIP3   OH211537   1.381   6.280   5.397
 3865TIP3    H111538   1.376   6.274   5.302
 3865TIP3    H211539   1.294   6.310   5.424
 3866TIP3   OH211540   4.960   3.383   5.039
 3866TIP3    H111541   5.010   3.400   4.959
 3866TIP3    H211542   5.024   3.394   5.109
 3867TIP3   OH211543   1.734   0.143   0.761
 3867TIP3    H111544   1.639   0.142   0.750
 3867TIP3    H211545   1.747   0.140   0.856
 3868TIP3   OH211546   5.876   1.196   5.570
 3868TIP3    H111547   5.939   1.149   5.515
 3868TIP3    H211548   5.896   1.288   5.555
 3869TIP3   OH211549   8.119   3.481   6.003
 3869TIP3    H111550   8.209   3.452   5.987
 3869TIP3    H211551   8.102   3.545   5.934
 3870TIP3   OH211552   6.521   5.395   1.060
 3870TIP3    H111553   6.490   5.312   1.026
 3870TIP3    H211554   6.444   5.433   1.104
 3871TIP3   OH211555   4.878   0.553   4.402
 3871TIP3    H111556   4.928   0.593   4.474
 3871TIP3    H211557   4.789   0.585   4.414
 3872TIP3   OH211558   2.795   6.814   3.726
 3872TIP3    H111559   2.724   6.768   3.681
 3872TIP3    H211560   2.775   6.805   3.819
 3873TIP3   OH211561   4.485   4.263   1.563
 3873TIP3    H111562   4.507   4.170   1.563
 3873TIP3    H211563   4.407   4.269   1.617
 3874TIP3   OH211564   6.569   4.944   4.898
 3874TIP3    H111565   6.540   4.933   4.989
 3874TIP3    H211566   6.488   4.945   4.847
 3875TIP3   OH211567   3.280   2.966   4.915
 3875TIP3    H111568   3.372   2.975   4.941
 3875TIP3    H211569   3.234   3.032   4.967
 3876TIP3   OH211570   3.036   2.644   3.461
 3876TIP3    H111571   3.069   2.584   3.395
 3876TIP3    H211572   3.112   2.700   3.481
 3877TIP3   OH211573   3.410   1.750   0.506
 3877TIP3    H111574   3.490   1.783   0.465
 3877TIP3    H211575   3.430   1.659   0.528
 3878TIP3   OH211576   4.445   5.782   0.527
 3878TIP3    H111577   4.426   5.869   0.563
 3878TIP3    H211578   4.397   5.722   0.583
 3879TIP3   OH211579   2.695   4.764   5.238
 3879TIP3    H111580   2.749   4.710   5.179
 3879TIP3    H211581   2.759   4.813   5.290
 3880TIP3   OH211582   1.022   4.950   3.518
 3880TIP3    H111583   0.934   4.985   3.511
 3880TIP3    H211584   1.079   5.027   3.517
 3881TIP3   OH211585   0.027   4.670   3.605
 3881TIP3    H111586   0.023   4.624   3.521
 3881TIP3    H211587   0.059   4.757   3.582
 3882TIP3   OH211588   4.773   7.660   3.844
 3882TIP3    H111589   4.696   7.636   3.793
 3882TIP3    H211590   4.808   7.576   3.875
 3883TIP3   OH211591   3.568   1.023   5.740
 3883TIP3    H111592   3.515   0.948   5.767
 3883TIP3    H211593   3.625   1.040   5.815
 3884TIP3   OH211594   7.857   6.813   4.222
 3884TIP3    H111595   7.778   6.866   4.233
 3884TIP3    H211596   7.913   6.864   4.163
 3885TIP3   OH211597   6.816   1.550   6.490
 3885TIP3    H111598   6.893   1.503   6.522
 3885TIP3    H211599   6.810   1.627   6.547
 3886TIP3   OH211600   6.941   2.320   4.650
 3886TIP3    H111601   6.984   2.277   4.576
 3886TIP3    H211602   6.918   2.248   4.709
 3887TIP3   OH211603   3.374   2.773   6.097
 3887TIP3    H111604   3.371   2.862   6.132
 3887TIP3    H211605   3.395   2.785   6.004
 3888TIP3   OH211606   2.053   6.140   4.924
 3888TIP3    H111607   2.124   6.186   4.969
 3888TIP3    H211608   2.026   6.201   4.854
 3889TIP3   OH211609   3.925   3.022   2.218
 3889TIP3    H111610   4.018   3.035   2.234
 3889TIP3    H211611   3.920   3.001   2.124
 3890TIP3   OH211612   1.533   4.960   5.262
 3890TIP3    H111613   1.491   4.907   5.330
 3890TIP3    H211614   1.625   4.935   5.266
 3891TIP3   OH211615   1.461   5.015   5.631
 3891TIP3    H111616   1.438   4.943   5.572
 3891TIP3    H211617   1.471   4.973   5.716
 3892TIP3   OH211618   1.881   6.087   2.857
 3892TIP3    H111619   1.890   6.112   2.949
 3892TIP3    H211620   1.953   6.132   2.813
 3893TIP3   OH211621   0.322   3.962   6.050
 3893TIP3    H111622   0.287   4.028   6.111
 3893TIP3    H211623   0.415   3.982   6.044
 3894TIP3   OH211624   7.709   7.405   0.853
 3894TIP3    H111625   7.758   7.339   0.901
 3894TIP3    H211626   7.769   7.479   0.846
 3895TIP3   OH211627   5.730   2.360   4.498
 3895TIP3    H111628   5.806   2.332   4.448
 3895TIP3    H211629   5.766   2.398   4.578
 3896TIP3   OH211630   2.179   7.198   5.249
 3896TIP3    H111631   2.189   7.221   5.157
 3896TIP3    H211632   2.241   7.126   5.263
 3897TIP3   OH211633   3.326   1.885   4.016
 3897TIP3    H111634   3.410   1.931   4.016
 3897TIP3    H211635   3.265   1.947   4.055
 3898TIP3   OH211636   6.464   1.255   0.042
 3898TIP3    H111637   6.464   1.346   0.012
 3898TIP3    H211638   6.527   1.254   0.114
 3899TIP3   OH211639   7.182   6.343   3.402
 3899TIP3    H111640   7.267   6.315   3.368
 3899TIP3    H211641   7.202   6.420   3.456
 3900TIP3   OH211642   7.758   2.915   2.896
 3900TIP3    H111643   7.752   2.888   2.988
 3900TIP3    H211644   7.671   2.947   2.874
 3901TIP3   OH211645   3.130   1.782   5.249
 3901TIP3    H111646   3.115   1.745   5.162
 3901TIP3    H211647   3.042   1.796   5.285
 3902TIP3   OH211648   5.014   4.058   3.100
 3902TIP3    H111649   5.091   4.064   3.156
 3902TIP3    H211650   4.992   3.965   3.101
 3903TIP3   OH211651   5.956   7.251   3.749
 3903TIP3    H111652   5.958   7.197   3.670
 3903TIP3    H211653   5.866   7.244   3.781
 3904TIP3   OH211654   3.329   6.187   5.684
 3904TIP3    H111655   3.269   6.251   5.721
 3904TIP3    H211656   3.406   6.239   5.658
 3905TIP3   OH211657   4.947   3.026   5.848
 3905TIP3    H111658   4.959   2.979   5.930
 3905TIP3    H211659   4.966   3.117   5.869
 3906TIP3   OH211660   7.122   4.933   0.541
 3906TIP3    H111661   7.203   4.974   0.571
 3906TIP3    H211662   7.052   4.976   0.591
 3907TIP3   OH211663   2.007   4.900   6.374
 3907TIP3    H111664   2.011   4.874   6.282
 3907TIP3    H211665   1.922   4.944   6.383
 3908TIP3   OH211666   2.021   2.762   4.397
 3908TIP3    H111667   1.931   2.733   4.410
 3908TIP3    H211668   2.058   2.765   4.486
 3909TIP3   OH211669   3.579   2.630   3.082
 3909TIP3    H111670   3.616   2.704   3.034
 3909TIP3    H211671   3.502   2.604   3.030
 3910TIP3   OH211672   7.786   7.550   2.365
 3910TIP3    H111673   7.813   7.631   2.323
 3910TIP3    H211674   7.717   7.576   2.426
 3911TIP3   OH211675   1.589   1.571   2.690
 3911TIP3    H111676   1.583   1.478   2.670
 3911TIP3    H211677   1.629   1.610   2.612
 3912TIP3   OH211678   3.399   3.448   4.507
 3912TIP3    H111679   3.341   3.404   4.445
 3912TIP3    H211680   3.384   3.402   4.590
 3913TIP3   OH211681   6.752   4.961   6.603
 3913TIP3    H111682   6.667   4.947   6.645
 3913TIP3    H211683   6.784   5.043   6.643
 3914TIP3   OH211684   6.268   2.356   4.541
 3914TIP3    H111685   6.310   2.318   4.464
 3914TIP3    H211686   6.197   2.296   4.563
 3915TIP3   OH211687   5.724   5.658   0.970
 3915TIP3    H111688   5.637   5.692   0.946
 3915TIP3    H211689   5.732   5.678   1.064
 3916TIP3   OH211690   3.997   7.329   6.712
 3916TIP3    H111691   3.970   7.420   6.725
 3916TIP3    H211692   4.043   7.330   6.628
 3917TIP3   OH211693   3.293   3.076   1.816
 3917TIP3    H111694   3.210   3.112   1.785
 3917TIP3    H211695   3.269   3.019   1.889
 3918TIP3   OH211696   2.661   1.651   5.470
 3918TIP3    H111697   2.622   1.719   5.526
 3918TIP3    H211698   2.702   1.591   5.531
 3919TIP3   OH211699   4.375   0.966   3.980
 3919TIP3    H111700   4.434   0.891   3.970
 3919TIP3    H211701   4.430   1.042   3.959
 3920TIP3   OH211702   4.925   7.794   3.666
 3920TIP3    H111703   4.908   7.748   3.583
 3920TIP3    H211704   4.870   7.749   3.730
 3921TIP3   OH211705   3.362   0.709   4.229
 3921TIP3    H111706   3.447   0.667   4.237
 3921TIP3    H211707   3.325   0.706   4.317
 3922TIP3   OH211708   4.295   1.338   4.793
 3922TIP3    H111709   4.280   1.417   4.741
 3922TIP3    H211710   4.362   1.289   4.745
 3923TIP3   OH211711   0.439   5.792   3.291
 3923TIP3    H111712   0.498   5.850   3.243
 3923TIP3    H211713   0.386   5.750   3.223
 3924TIP3   OH211714   3.337   3.630   3.370
 3924TIP3    H111715   3.329   3.704   3.430
 3924TIP3    H211716   3.307   3.664   3.286
 3925TIP3   OH211717   2.934   7.276   2.282
 3925TIP3    H111718   2.921   7.249   2.373
 3925TIP3    H211719   3.017   7.324   2.283
 3926TIP3   OH211720   3.351   4.372   5.117
 3926TIP3    H111721   3.433   4.390   5.163
 3926TIP3    H211722   3.359   4.282   5.088
 3927TIP3   OH211723   5.772   5.058   3.844
 3927TIP3    H111724   5.852   5.077   3.795
 3927TIP3    H211725   5.715   5.133   3.828
 3928TIP3   OH211726   2.351   6.645   2.578
 3928TIP3    H111727   2.381   6.713   2.518
 3928TIP3    H211728   2.298   6.587   2.523
 3929TIP3   OH211729   5.433   3.510   1.221
 3929TIP3    H111730   5.481   3.516   1.304
 3929TIP3    H211731   5.496   3.536   1.155
 3930TIP3   OH211732   2.026   3.573   5.102
 3930TIP3    H111733   1.962   3.588   5.171
 3930TIP3    H211734   2.106   3.614   5.135
 3931TIP3   OH211735   6.797  -0.059   6.406
 3931TIP3    H111736   6.784  -0.053   6.311
 3931TIP3    H211737   6.806   0.031   6.435
 3932TIP3   OH211738   3.513   6.777   4.268
 3932TIP3    H111739   3.531   6.819   4.352
 3932TIP3    H211740   3.521   6.683   4.286
 3933TIP3   OH211741   4.741   1.633   6.661
 3933TIP3    H111742   4.758   1.539   6.659
 3933TIP3    H211743   4.677   1.647   6.592
 3934TIP3   OH211744   5.553   7.664   0.843
 3934TIP3    H111745   5.482   7.664   0.779
 3934TIP3    H211746   5.543   7.582   0.890
 3935TIP3   OH211747   1.521   1.734   3.572
 3935TIP3    H111748   1.606   1.709   3.536
 3935TIP3    H211749   1.519   1.695   3.660
 3936TIP3   OH211750   6.970   3.696   0.363
 3936TIP3    H111751   6.952   3.770   0.420
 3936TIP3    H211752   6.926   3.622   0.405
 3937TIP3   OH211753   6.303   4.814   3.170
 3937TIP3    H111754   6.326   4.805   3.263
 3937TIP3    H211755   6.299   4.908   3.155
 3938TIP3   OH211756   5.023   3.257   3.295
 3938TIP3    H111757   5.094   3.322   3.296
 3938TIP3    H211758   5.043   3.202   3.220
 3939TIP3   OH211759   8.253   6.354   1.771
 3939TIP3    H111760   8.239   6.389   1.683
 3939TIP3    H211761   8.200   6.275   1.775
 3940TIP3   OH211762   1.588   2.709   2.839
 3940TIP3    H111763   1.618   2.708   2.748
 3940TIP3    H211764   1.667   2.695   2.890
 3941TIP3   OH211765   6.094   7.695   6.737
 3941TIP3    H111766   6.184   7.698   6.770
 3941TIP3    H211767   6.052   7.626   6.789
 3942TIP3   OH211768   0.262   3.945   3.235
 3942TIP3    H111769   0.330   3.878   3.243
 3942TIP3    H211770   0.271   3.998   3.314
 3943TIP3   OH211771   0.295   5.171   4.822
 3943TIP3    H111772   0.345   5.090   4.833
 3943TIP3    H211773   0.333   5.211   4.744
 3944TIP3   OH211774   1.057   5.851   5.927
 3944TIP3    H111775   1.015   5.914   5.868
 3944TIP3    H211776   1.132   5.818   5.878
 3945TIP3   OH211777   2.822   0.548   3.474
 3945TIP3    H111778   2.828   0.634   3.431
 3945TIP3    H211779   2.729   0.539   3.496
 3946TIP3   OH211780   0.703   1.368   6.762
 3946TIP3    H111781   0.771   1.413   6.711
 3946TIP3    H211782   0.692   1.285   6.717
 3947TIP3   OH211783   3.627   3.655   6.362
 3947TIP3    H111784   3.536   3.653   6.331
 3947TIP3    H211785   3.638   3.743   6.398
 3948TIP3   OH211786   0.210   3.190   6.512
 3948TIP3    H111787   0.301   3.205   6.539
 3948TIP3    H211788   0.159   3.249   6.567
 3949TIP3   OH211789   1.122   4.619   2.615
 3949TIP3    H111790   1.105   4.536   2.571
 3949TIP3    H211791   1.157   4.676   2.546
 3950TIP3   OH211792   0.125   6.276   4.788
 3950TIP3    H111793   0.040   6.278   4.830
 3950TIP3    H211794   0.188   6.279   4.860
 3951TIP3   OH211795   0.531   5.645   0.838
 3951TIP3    H111796   0.604   5.610   0.787
 3951TIP3    H211797   0.571   5.677   0.919
 3952TIP3   OH211798   2.236   2.384   1.865
 3952TIP3    H111799   2.191   2.305   1.835
 3952TIP3    H211800   2.257   2.432   1.785
 3953TIP3   OH211801   4.062   2.855   2.635
 3953TIP3    H111802   4.112   2.795   2.689
 3953TIP3    H211803   3.980   2.809   2.618
 3954TIP3   OH211804   5.806   7.367   1.023
 3954TIP3    H111805   5.775   7.307   1.091
 3954TIP3    H211806   5.890   7.400   1.056
 3955TIP3   OH211807   0.810   6.599   2.533
 3955TIP3    H111808   0.768   6.608   2.447
 3955TIP3    H211809   0.901   6.623   2.517
 3956TIP3   OH211810   4.033   6.668   2.629
 3956TIP3    H111811   4.107   6.729   2.629
 3956TIP3    H211812   4.064   6.592   2.581
 3957TIP3   OH211813   4.165   3.381   1.265
 3957TIP3    H111814   4.225   3.311   1.291
 3957TIP3    H211815   4.184   3.395   1.172
 3958TIP3   OH211816   1.901   3.282   5.979
 3958TIP3    H111817   1.975   3.300   5.922
 3958TIP3    H211818   1.858   3.205   5.939
 3959TIP3   OH211819   4.598   7.736   2.841
 3959TIP3    H111820   4.515   7.744   2.793
 3959TIP3    H211821   4.630   7.826   2.849
 3960TIP3   OH211822   1.859   2.153   5.732
 3960TIP3    H111823   1.800   2.110   5.670
 3960TIP3    H211824   1.931   2.185   5.678
 3961TIP3   OH211825   3.579   5.569   5.229
 3961TIP3    H111826   3.591   5.534   5.317
 3961TIP3    H211827   3.633   5.648   5.228
 3962TIP3   OH211828   4.579  -0.016   1.651
 3962TIP3    H111829   4.499  -0.018   1.598
 3962TIP3    H211830   4.562   0.049   1.719
 3963TIP3   OH211831   1.948   4.891   5.957
 3963TIP3    H111832   1.919   4.873   5.868
 3963TIP3    H211833   1.900   4.970   5.982
 3964TIP3   OH211834   4.616   4.318   0.773
 3964TIP3    H111835   4.588   4.227   0.776
 3964TIP3    H211836   4.622   4.344   0.865
 3965TIP3   OH211837   4.594   5.449   3.468
 3965TIP3    H111838   4.660   5.512   3.495
 3965TIP3    H211839   4.558   5.415   3.550
 3966TIP3   OH211840   2.963   2.672   6.586
 3966TIP3    H111841   2.888   2.728   6.567
 3966TIP3    H211842   3.031   2.732   6.617
 3967TIP3   OH211843   3.484   2.351   0.164
 3967TIP3    H111844   3.482   2.276   0.223
 3967TIP3    H211845   3.532   2.419   0.213
 3968TIP3   OH211846   2.955   2.415   5.198
 3968TIP3    H111847   2.994   2.413   5.110
 3968TIP3    H211848   2.921   2.326   5.211
 3969TIP3   OH211849   7.084   2.628   4.021
 3969TIP3    H111850   7.129   2.678   3.953
 3969TIP3    H211851   7.153   2.576   4.062
 3970TIP3   OH211852   8.288   1.408   5.785
 3970TIP3    H111853   8.303   1.499   5.812
 3970TIP3    H211854   8.302   1.409   5.690
 3971TIP3   OH211855   2.692   0.809   6.407
 3971TIP3    H111856   2.704   0.902   6.390
 3971TIP3    H211857   2.598   0.794   6.396
 3972TIP3   OH211858   6.927   1.698   2.898
 3972TIP3    H111859   6.835   1.718   2.878
 3972TIP3    H211860   6.976   1.769   2.858
 3973TIP3   OH211861   6.259   2.888   3.120
 3973TIP3    H111862   6.327   2.861   3.182
 3973TIP3    H211863   6.305   2.900   3.038
 3974TIP3   OH211864   2.518   2.614   1.673
 3974TIP3    H111865   2.543   2.541   1.616
 3974TIP3    H211866   2.595   2.672   1.671
 3975TIP3   OH211867   5.119   1.468   4.501
 3975TIP3    H111868   5.089   1.380   4.477
 3975TIP3    H211869   5.042   1.509   4.541
 3976TIP3   OH211870   2.337   3.869   1.291
 3976TIP3    H111871   2.390   3.868   1.211
 3976TIP3    H211872   2.365   3.948   1.337
 3977TIP3   OH211873   2.538   6.931   5.943
 3977TIP3    H111874   2.612   6.871   5.949
 3977TIP3    H211875   2.481   6.892   5.877
 3978TIP3   OH211876   4.245   0.929   0.667
 3978TIP3    H111877   4.246   0.888   0.754
 3978TIP3    H211878   4.177   0.882   0.619
 3979TIP3   OH211879   5.761   4.334   4.758
 3979TIP3    H111880   5.806   4.290   4.830
 3979TIP3    H211881   5.692   4.273   4.732
 3980TIP3   OH211882   3.558   7.806   3.316
 3980TIP3    H111883   3.580   7.867   3.386
 3980TIP3    H211884   3.496   7.745   3.357
 3981TIP3   OH211885   0.456   7.591   2.174
 3981TIP3    H111886   0.425   7.681   2.186
 3981TIP3    H211887   0.391   7.550   2.117
 3982TIP3   OH211888   7.854   6.909   2.879
 3982TIP3    H111889   7.802   6.837   2.915
 3982TIP3    H211890   7.813   6.929   2.795
 3983TIP3   OH211891   3.311   7.512   3.442
 3983TIP3    H111892   3.334   7.433   3.492
 3983TIP3    H211893   3.319   7.583   3.506
 3984TIP3   OH211894   2.372   2.620   4.747
 3984TIP3    H111895   2.403   2.678   4.816
 3984TIP3    H211896   2.439   2.626   4.679
 3985TIP3   OH211897   6.649   4.892   4.603
 3985TIP3    H111898   6.658   4.923   4.693
 3985TIP3    H211899   6.574   4.833   4.605
 3986TIP3   OH211900   5.786   4.197   0.904
 3986TIP3    H111901   5.733   4.136   0.854
 3986TIP3    H211902   5.724   4.260   0.940
 3987TIP3   OH211903   4.663   4.251   0.106
 3987TIP3    H111904   4.621   4.224   0.188
 3987TIP3    H211905   4.753   4.271   0.131
 3988TIP3   OH211906   6.325   3.698   0.429
 3988TIP3    H111907   6.325   3.703   0.333
 3988TIP3    H211908   6.359   3.610   0.448
 3989TIP3   OH211909   4.103   0.602   4.356
 3989TIP3    H111910   4.093   0.507   4.346
 3989TIP3    H211911   4.162   0.628   4.285
 3990TIP3   OH211912   7.414   2.315   5.360
 3990TIP3    H111913   7.382   2.378   5.424
 3990TIP3    H211914   7.502   2.345   5.338
 3991TIP3   OH211915   5.104   0.607   3.803
 3991TIP3    H111916   5.164   0.654   3.861
 3991TIP3    H211917   5.081   0.670   3.735
 3992TIP3   OH211918   2.080   3.582   0.332
 3992TIP3    H111919   2.107   3.542   0.414
 3992TIP3    H211920   2.024   3.517   0.290
 3993TIP3   OH211921   8.101   7.137   1.429
 3993TIP3    H111922   8.118   7.168   1.340
 3993TIP3    H211923   8.188   7.121   1.466
 3994TIP3   OH211924   3.034   3.832   6.326
 3994TIP3    H111925   3.000   3.887   6.397
 3994TIP3    H211926   2.957   3.812   6.272
 3995TIP3   OH211927   7.502   4.130   4.626
 3995TIP3    H111928   7.570   4.197   4.626
 3995TIP3    H211929   7.499   4.100   4.535
 3996TIP3   OH211930   3.346   3.943   2.748
 3996TIP3    H111931   3.288   3.868   2.738
 3996TIP3    H211932   3.385   3.956   2.661
 3997TIP3   OH211933   5.512   4.173   6.665
 3997TIP3    H111934   5.599   4.144   6.692
 3997TIP3    H211935   5.527   4.253   6.615
 3998TIP3   OH211936   4.255   6.097   3.562
 3998TIP3    H111937   4.224   6.053   3.641
 3998TIP3    H211938   4.345   6.122   3.582
 3999TIP3   OH211939   2.425   0.979   5.176
 3999TIP3    H111940   2.486   0.910   5.202
 3999TIP3    H211941   2.470   1.026   5.106
 4000TIP3   OH211942   0.655   5.811   6.621
 4000TIP3    H111943   0.611   5.878   6.672
 4000TIP3    H211944   0.584   5.759   6.583
 4001TIP3   OH211945   3.449   5.071   1.390
 4001TIP3    H111946   3.456   4.987   1.345
 4001TIP3    H211947   3.425   5.133   1.322
 4002TIP3   OH211948   1.915   4.014   5.965
 4002TIP3    H111949   1.968   3.970   6.032
 4002TIP3    H211950   1.844   4.055   6.014
 4003TIP3   OH211951   4.110   0.197   6.001
 4003TIP3    H111952   4.204   0.213   6.006
 4003TIP3    H211953   4.070   0.282   6.020
 4004TIP3   OH211954   0.935   3.621   0.545
 4004TIP3    H111955   0.948   3.529   0.569
 4004TIP3    H211956   1.020   3.649   0.511
 4005TIP3   OH211957   3.005   3.555   6.399
 4005TIP3    H111958   3.044   3.632   6.357
 4005TIP3    H211959   2.916   3.551   6.364
 4006TIP3   OH211960   2.648   3.808   0.356
 4006TIP3    H111961   2.663   3.735   0.296
 4006TIP3    H211962   2.571   3.782   0.407
 4007TIP3   OH211963   3.191   1.991   1.866
 4007TIP3    H111964   3.108   2.039   1.863
 4007TIP3    H211965   3.244   2.038   1.931
 4008TIP3   OH211966   0.243   3.611   4.095
 4008TIP3    H111967   0.274   3.524   4.070
 4008TIP3    H211968   0.313   3.645   4.151
 4009TIP3   OH211969   0.315   3.678   4.936
 4009TIP3    H111970   0.316   3.732   5.015
 4009TIP3    H211971   0.401   3.635   4.935
 4010TIP3   OH211972   2.657   6.780   1.687
 4010TIP3    H111973   2.690   6.857   1.733
 4010TIP3    H211974   2.567   6.770   1.719
 4011TIP3   OH211975   5.074   4.190   1.884
 4011TIP3    H111976   5.151   4.168   1.937
 4011TIP3    H211977   5.070   4.285   1.885
 4012TIP3   OH211978   0.409   5.747   6.007
 4012TIP3    H111979   0.448   5.676   6.057
 4012TIP3    H211980   0.466   5.823   6.024
 4013TIP3   OH211981   7.510   7.476   1.047
 4013TIP3    H111982   7.418   7.473   1.022
 4013TIP3    H211983   7.557   7.478   0.964
 4014TIP3   OH211984   0.967   1.632   3.815
 4014TIP3    H111985   0.911   1.681   3.876
 4014TIP3    H211986   1.048   1.619   3.863
 4015TIP3   OH211987   1.024   4.422   0.870
 4015TIP3    H111988   1.007   4.328   0.879
 4015TIP3    H211989   1.085   4.443   0.940
 4016TIP3   OH211990   2.431   1.717   4.560
 4016TIP3    H111991   2.471   1.630   4.556
 4016TIP3    H211992   2.338   1.702   4.540
 4017TIP3   OH211993   6.987   6.308   3.210
 4017TIP3    H111994   6.911   6.321   3.268
 4017TIP3    H211995   7.062   6.313   3.269
 4018TIP3   OH211996   1.703   6.023   0.624
 4018TIP3    H111997   1.759   5.964   0.573
 4018TIP3    H211998   1.614   5.994   0.604
 4019TIP3   OH211999   6.713   2.763   4.864
 4019TIP3    H112000   6.746   2.791   4.779
 4019TIP3    H212001   6.655   2.689   4.844
 4020TIP3   OH212002   1.209   0.144   2.344
 4020TIP3    H112003   1.253   0.181   2.421
 4020TIP3    H212004   1.132   0.101   2.380
 4021TIP3   OH212005   0.489   0.898   3.284
 4021TIP3    H112006   0.552   0.883   3.354
 4021TIP3    H212007   0.406   0.866   3.319
 4022TIP3   OH212008   7.117   6.671   2.721
 4022TIP3    H112009   7.144   6.579   2.728
 4022TIP3    H212010   7.139   6.695   2.631
 4023TIP3   OH212011   7.956   0.107   4.110
 4023TIP3    H112012   7.876   0.057   4.093
 4023TIP3    H212013   7.982   0.080   4.198
 4024TIP3   OH212014   6.350   4.097   5.401
 4024TIP3    H112015   6.401   4.047   5.465
 4024TIP3    H212016   6.272   4.125   5.448
 4025TIP3   OH212017   6.696   3.253   5.195
 4025TIP3    H112018   6.741   3.168   5.194
 4025TIP3    H212019   6.650   3.257   5.111
 4026TIP3   OH212020   6.592   5.587   3.832
 4026TIP3    H112021   6.656   5.640   3.784
 4026TIP3    H212022   6.645   5.528   3.885
 4027TIP3   OH212023   3.534   2.783   0.499
 4027TIP3    H112024   3.553   2.723   0.572
 4027TIP3    H212025   3.620   2.812   0.469
 4028TIP3   OH212026   8.093   6.503   4.634
 4028TIP3    H112027   8.008   6.546   4.647
 4028TIP3    H212028   8.074   6.410   4.647
 4029TIP3   OH212029   2.197   0.826   3.481
 4029TIP3    H112030   2.173   0.792   3.395
 4029TIP3    H212031   2.158   0.913   3.485
 4030TIP3   OH212032   4.639   6.948   0.221
 4030TIP3    H112033   4.645   7.042   0.233
 4030TIP3    H212034   4.700   6.911   0.285
 4031TIP3   OH212035   3.766   3.822   2.279
 4031TIP3    H112036   3.767   3.789   2.189
 4031TIP3    H212037   3.856   3.813   2.309
 4032TIP3   OH212038   7.289   1.448   3.255
 4032TIP3    H112039   7.287   1.486   3.168
 4032TIP3    H212040   7.232   1.505   3.308
 4033TIP3   OH212041   4.380   6.497   2.869
 4033TIP3    H112042   4.463   6.479   2.913
 4033TIP3    H212043   4.347   6.576   2.911
 4034TIP3   OH212044   8.259   5.260   4.752
 4034TIP3    H112045   8.295   5.181   4.791
 4034TIP3    H212046   8.187   5.230   4.697
 4035TIP3   OH212047   2.986   5.761   0.731
 4035TIP3    H112048   3.046   5.746   0.804
 4035TIP3    H212049   3.006   5.849   0.701
 4036TIP3   OH212050   4.971   6.143   3.862
 4036TIP3    H112051   4.988   6.134   3.769
 4036TIP3    H212052   5.014   6.225   3.887
 4037TIP3   OH212053   4.636   6.307   1.160
 4037TIP3    H112054   4.635   6.382   1.100
 4037TIP3    H212055   4.595   6.340   1.240
 4038TIP3   OH212056   0.997   7.675   6.685
 4038TIP3    H112057   1.084   7.688   6.648
 4038TIP3    H212058   0.941   7.734   6.635
 4039TIP3   OH212059   7.251   1.144   1.586
 4039TIP3    H112060   7.202   1.186   1.515
 4039TIP3    H212061   7.305   1.078   1.542
 4040TIP3   OH212062   1.201   3.855   6.047
 4040TIP3    H112063   1.171   3.941   6.017
 4040TIP3    H212064   1.227   3.870   6.138
 4041TIP3   OH212065   6.996   4.668   0.903
 4041TIP3    H112066   6.946   4.736   0.948
 4041TIP3    H212067   6.970   4.675   0.811
 4042TIP3   OH212068   7.962   4.094   0.484
 4042TIP3    H112069   7.875   4.091   0.444
 4042TIP3    H212070   7.990   4.003   0.489
 4043TIP3   OH212071   4.030   6.874   4.428
 4043TIP3    H112072   4.100   6.847   4.370
 4043TIP3    H212073   4.069   6.872   4.515
 4044TIP3   OH212074   3.481   5.482   3.058
 4044TIP3    H112075   3.568   5.510   3.029
 4044TIP3    H212076   3.493   5.392   3.088
 4045TIP3   OH212077   6.008   7.531   2.092
 4045TIP3    H112078   5.929   7.477   2.090
 4045TIP3    H212079   6.004   7.582   2.011
 4046TIP3   OH212080   2.080   6.808   1.164
 4046TIP3    H112081   2.065   6.721   1.201
 4046TIP3    H212082   2.159   6.840   1.209
 4047TIP3   OH212083   2.297   0.269   4.211
 4047TIP3    H112084   2.365   0.334   4.227
 4047TIP3    H212085   2.224   0.296   4.266
 4048TIP3   OH212086   2.472   3.264   5.529
 4048TIP3    H112087   2.493   3.200   5.596
 4048TIP3    H212088   2.447   3.211   5.453
 4049TIP3   OH212089   7.676   6.268   2.836
 4049TIP3    H112090   7.643   6.247   2.923
 4049TIP3    H212091   7.740   6.337   2.850
 4050TIP3   OH212092   5.127   1.094   1.402
 4050TIP3    H112093   5.183   1.016   1.400
 4050TIP3    H212094   5.157   1.148   1.329
 4051TIP3   OH212095   4.693   4.527   6.385
 4051TIP3    H112096   4.690   4.434   6.362
 4051TIP3    H212097   4.651   4.571   6.311
 4052TIP3   OH212098   7.210   1.815   0.754
 4052TIP3    H112099   7.303   1.795   0.752
 4052TIP3    H212100   7.175   1.773   0.675
 4053TIP3   OH212101   2.571   6.277   6.490
 4053TIP3    H112102   2.592   6.329   6.567
 4053TIP3    H212103   2.561   6.341   6.420
 4054TIP3   OH212104   1.127   1.500   5.348
 4054TIP3    H112105   1.047   1.507   5.296
 4054TIP3    H212106   1.097   1.468   5.434
 4055TIP3   OH212107   6.856   5.852   4.325
 4055TIP3    H112108   6.810   5.803   4.258
 4055TIP3    H212109   6.787   5.904   4.368
 4056TIP3   OH212110   4.098   4.087   0.719
 4056TIP3    H112111   4.114   4.129   0.804
 4056TIP3    H212112   4.102   3.993   0.737
 4057TIP3   OH212113   7.995   3.302   5.772
 4057TIP3    H112114   7.942   3.281   5.848
 4057TIP3    H212115   7.997   3.398   5.770
 4058TIP3   OH212116   5.800   6.717   1.020
 4058TIP3    H112117   5.876   6.674   1.061
 4058TIP3    H212118   5.729   6.706   1.084
 4059TIP3   OH212119   3.922   5.090   6.314
 4059TIP3    H112120   3.961   5.165   6.359
 4059TIP3    H212121   3.996   5.034   6.290
 4060TIP3   OH212122   3.066   7.277   0.291
 4060TIP3    H112123   3.028   7.245   0.372
 4060TIP3    H212124   3.139   7.217   0.273
 4061TIP3   OH212125   1.353   1.290   5.350
 4061TIP3    H112126   1.379   1.229   5.419
 4061TIP3    H212127   1.395   1.257   5.271
 4062TIP3   OH212128   7.134   2.120   6.028
 4062TIP3    H112129   7.212   2.065   6.034
 4062TIP3    H212130   7.089   2.105   6.111
 4063TIP3   OH212131   6.692   2.585   3.735
 4063TIP3    H112132   6.745   2.574   3.813
 4063TIP3    H212133   6.605   2.607   3.768
 4064TIP3   OH212134   0.098   6.433   5.364
 4064TIP3    H112135   0.057   6.502   5.311
 4064TIP3    H212136   0.135   6.372   5.300
 4065TIP3   OH212137   1.609   5.121   4.251
 4065TIP3    H112138   1.523   5.123   4.208
 4065TIP3    H212139   1.601   5.051   4.316
 4066TIP3   OH212140   5.379   7.600   3.519
 4066TIP3    H112141   5.327   7.638   3.448
 4066TIP3    H212142   5.461   7.650   3.518
 4067TIP3   OH212143   2.018   5.476   2.326
 4067TIP3    H112144   1.944   5.483   2.266
 4067TIP3    H212145   2.088   5.437   2.272
 4068TIP3   OH212146   0.516   5.389   1.076
 4068TIP3    H112147   0.598   5.392   1.027
 4068TIP3    H212148   0.468   5.315   1.038
 4069TIP3   OH212149   2.103   2.006   6.165
 4069TIP3    H112150   2.089   2.059   6.086
 4069TIP3    H212151   2.023   2.018   6.216
 4070TIP3   OH212152   1.498   1.278   2.966
 4070TIP3    H112153   1.485   1.187   2.991
 4070TIP3    H212154   1.409   1.314   2.960
 4071TIP3   OH212155   4.592   6.134   0.490
 4071TIP3    H112156   4.543   6.214   0.508
 4071TIP3    H212157   4.534   6.063   0.519
 4072TIP3   OH212158   4.256   6.496   1.017
 4072TIP3    H112159   4.211   6.451   0.946
 4072TIP3    H212160   4.348   6.499   0.990
 4073TIP3   OH212161   0.540   1.239   1.349
 4073TIP3    H112162   0.629   1.227   1.381
 4073TIP3    H212163   0.534   1.333   1.330
 4074TIP3   OH212164   1.860   3.966   4.348
 4074TIP3    H112165   1.765   3.961   4.341
 4074TIP3    H212166   1.889   3.994   4.261
 4075TIP3   OH212167   6.157   0.228   5.769
 4075TIP3    H112168   6.136   0.318   5.790
 4075TIP3    H212169   6.114   0.212   5.685
 4076TIP3   OH212170   6.160   3.164   0.503
 4076TIP3    H112171   6.242   3.211   0.519
 4076TIP3    H212172   6.165   3.088   0.560
 4077TIP3   OH212173   3.209   6.025   2.408
 4077TIP3    H112174   3.294   6.055   2.374
 4077TIP3    H212175   3.232   5.960   2.474
 4078TIP3   OH212176   0.820   5.939   2.436
 4078TIP3    H112177   0.909   5.962   2.461
 4078TIP3    H212178   0.765   5.983   2.500
 4079TIP3   OH212179   7.209   3.533   3.664
 4079TIP3    H112180   7.146   3.534   3.736
 4079TIP3    H212181   7.271   3.603   3.686
 4080TIP3   OH212182   4.255   0.995   3.395
 4080TIP3    H112183   4.292   1.065   3.449
 4080TIP3    H212184   4.312   0.989   3.319
 4081TIP3   OH212185   2.469   4.605   4.887
 4081TIP3    H112186   2.432   4.693   4.895
 4081TIP3    H212187   2.531   4.611   4.815
 4082TIP3   OH212188   2.256   7.314   4.555
 4082TIP3    H112189   2.313   7.237   4.553
 4082TIP3    H212190   2.298   7.374   4.617
 4083TIP3   OH212191   0.754   3.090   3.132
 4083TIP3    H112192   0.805   3.148   3.188
 4083TIP3    H212193   0.693   3.046   3.192
 4084TIP3   OH212194   2.043   2.901   1.684
 4084TIP3    H112195   1.951   2.879   1.671
 4084TIP3    H212196   2.090   2.842   1.625
 4085TIP3   OH212197   5.173   7.027   0.415
 4085TIP3    H112198   5.175   7.078   0.335
 4085TIP3    H212199   5.207   7.086   0.483
 4086TIP3   OH212200   1.813   3.258   4.664
 4086TIP3    H112201   1.823   3.208   4.745
 4086TIP3    H212202   1.838   3.197   4.595
 4087TIP3   OH212203   6.676   7.346   4.652
 4087TIP3    H112204   6.659   7.303   4.736
 4087TIP3    H212205   6.619   7.300   4.590
 4088TIP3   OH212206   5.778   1.615   2.434
 4088TIP3    H112207   5.711   1.654   2.377
 4088TIP3    H212208   5.733   1.598   2.516
 4089TIP3   OH212209   6.348   7.529   2.883
 4089TIP3    H112210   6.291   7.585   2.935
 4089TIP3    H212211   6.389   7.588   2.820
 4090TIP3   OH212212   1.104   5.593   0.743
 4090TIP3    H112213   1.147   5.632   0.819
 4090TIP3    H212214   1.116   5.657   0.673
 4091TIP3   OH212215   7.291   1.563   6.613
 4091TIP3    H112216   7.312   1.476   6.646
 4091TIP3    H212217   7.375   1.601   6.589
 4092TIP3   OH212218   7.212   2.085   1.143
 4092TIP3    H112219   7.153   2.143   1.192
 4092TIP3    H212220   7.284   2.142   1.116
 4093TIP3   OH212221   1.396   4.600   1.903
 4093TIP3    H112222   1.351   4.608   1.987
 4093TIP3    H212223   1.449   4.680   1.896
 4094TIP3   OH212224   6.089   2.818   5.309
 4094TIP3    H112225   6.059   2.729   5.327
 4094TIP3    H212226   6.149   2.808   5.234
 4095TIP3   OH212227   0.141   7.314   4.377
 4095TIP3    H112228   0.110   7.398   4.341
 4095TIP3    H212229   0.236   7.318   4.370
 4096TIP3   OH212230   1.477   1.843   1.407
 4096TIP3    H112231   1.396   1.880   1.373
 4096TIP3    H212232   1.485   1.758   1.364
 4097TIP3   OH212233   8.267   0.922   4.154
 4097TIP3    H112234   8.239   0.975   4.229
 4097TIP3    H212235   8.278   0.834   4.189
 4098TIP3   OH212236   0.418   6.307   3.042
 4098TIP3    H112237   0.434   6.296   2.948
 4098TIP3    H212238   0.501   6.283   3.083
 4099TIP3   OH212239   2.369   2.384   6.676
 4099TIP3    H112240   2.413   2.465   6.701
 4099TIP3    H212241   2.397   2.321   6.743
 4100TIP3   OH212242   1.800   3.666   5.583
 4100TIP3    H112243   1.841   3.743   5.621
 4100TIP3    H212244   1.719   3.655   5.634
 4101TIP3   OH212245   3.423   0.556   6.403
 4101TIP3    H112246   3.506   0.592   6.435
 4101TIP3    H212247   3.398   0.613   6.331
 4102TIP3   OH212248   1.169   6.719   5.121
 4102TIP3    H112249   1.228   6.655   5.161
 4102TIP3    H212250   1.202   6.804   5.151
 4103TIP3   OH212251   5.816   3.733   2.656
 4103TIP3    H112252   5.829   3.701   2.745
 4103TIP3    H212253   5.870   3.676   2.602
 4104TIP3   OH212254   6.124   5.107   1.222
 4104TIP3    H112255   6.135   5.081   1.313
 4104TIP3    H212256   6.137   5.026   1.173
 4105TIP3   OH212257   5.795   4.992   1.394
 4105TIP3    H112258   5.877   4.945   1.377
 4105TIP3    H212259   5.727   4.924   1.389
 4106TIP3   OH212260   5.709   5.332   5.926
 4106TIP3    H112261   5.688   5.322   6.019
 4106TIP3    H212262   5.625   5.347   5.883
 4107TIP3   OH212263   2.985   1.083   4.921
 4107TIP3    H112264   3.031   1.002   4.944
 4107TIP3    H212265   3.032   1.152   4.967
 4108TIP3   OH212266   1.066   4.516   1.443
 4108TIP3    H112267   1.041   4.445   1.503
 4108TIP3    H212268   1.157   4.534   1.464
 4109TIP3   OH212269   3.189   5.963   3.603
 4109TIP3    H112270   3.119   5.930   3.660
 4109TIP3    H212271   3.267   5.914   3.630
 4110TIP3   OH212272   7.525   5.274   4.074
 4110TIP3    H112273   7.534   5.323   4.156
 4110TIP3    H212274   7.601   5.301   4.022
 4111TIP3   OH212275   1.460   3.128   5.314
 4111TIP3    H112276   1.491   3.206   5.361
 4111TIP3    H212277   1.469   3.151   5.221
 4112TIP3   OH212278   3.289   5.709   5.154
 4112TIP3    H112279   3.362   5.739   5.209
 4112TIP3    H212280   3.305   5.615   5.145
 4113TIP3   OH212281   6.444   1.233   2.197
 4113TIP3    H112282   6.432   1.184   2.116
 4113TIP3    H212283   6.381   1.305   2.190
 4114TIP3   OH212284   4.478   2.058   2.228
 4114TIP3    H112285   4.414   1.988   2.237
 4114TIP3    H212286   4.433   2.126   2.177
 4115TIP3   OH212287   0.819   1.131   2.237
 4115TIP3    H112288   0.811   1.222   2.207
 4115TIP3    H212289   0.728   1.102   2.247
 4116TIP3   OH212290   4.347   1.335   4.149
 4116TIP3    H112291   4.346   1.390   4.227
 4116TIP3    H212292   4.285   1.265   4.169
 4117TIP3   OH212293   1.390   2.778   4.495
 4117TIP3    H112294   1.446   2.770   4.418
 4117TIP3    H212295   1.365   2.688   4.517
 4118TIP3   OH212296   5.102   3.844   5.508
 4118TIP3    H112297   5.114   3.926   5.461
 4118TIP3    H212298   5.191   3.813   5.524
 4119TIP3   OH212299   2.947   6.214   5.235
 4119TIP3    H112300   2.901   6.182   5.312
 4119TIP3    H212301   3.018   6.152   5.221
 4120TIP3   OH212302   2.718   1.209   0.587
 4120TIP3    H112303   2.683   1.277   0.531
 4120TIP3    H212304   2.740   1.137   0.527
 4121TIP3   OH212305   3.856   0.625   4.848
 4121TIP3    H112306   3.945   0.592   4.835
 4121TIP3    H212307   3.868   0.713   4.885
 4122TIP3   OH212308   3.900   3.543   6.775
 4122TIP3    H112309   3.916   3.466   6.720
 4122TIP3    H212310   3.978   3.597   6.762
 4123TIP3   OH212311   2.047   1.002   2.567
 4123TIP3    H112312   1.981   1.059   2.528
 4123TIP3    H212313   2.014   0.913   2.550
 4124TIP3   OH212314   3.159   0.475   2.283
 4124TIP3    H112315   3.207   0.509   2.359
 4124TIP3    H212316   3.071   0.460   2.315
 4125TIP3   OH212317   1.150   0.622   1.058
 4125TIP3    H112318   1.101   0.630   1.140
 4125TIP3    H212319   1.235   0.586   1.084
 4126TIP3   OH212320   0.958   0.675   1.737
 4126TIP3    H112321   0.924   0.595   1.698
 4126TIP3    H212322   0.884   0.710   1.788
 4127TIP3   OH212323   3.963  -0.018   3.290
 4127TIP3    H112324   4.047  -0.040   3.250
 4127TIP3    H212325   3.943   0.069   3.257
 4128TIP3   OH212326   5.394   0.787   2.115
 4128TIP3    H112327   5.332   0.717   2.137
 4128TIP3    H212328   5.338   0.858   2.083
 4129TIP3   OH212329   6.314   3.337   4.809
 4129TIP3    H112330   6.334   3.427   4.834
 4129TIP3    H212331   6.299   3.341   4.715
 4130TIP3   OH212332   2.972   2.304   3.130
 4130TIP3    H112333   2.882   2.335   3.121
 4130TIP3    H212334   2.964   2.221   3.177
 4131TIP3   OH212335   1.420   6.497   1.080
 4131TIP3    H112336   1.464   6.545   1.150
 4131TIP3    H212337   1.492   6.462   1.026
 4132TIP3   OH212338   3.603   4.634   5.631
 4132TIP3    H112339   3.655   4.693   5.686
 4132TIP3    H212340   3.608   4.671   5.544
 4133TIP3   OH212341   4.081   2.088   5.719
 4133TIP3    H112342   4.148   2.149   5.689
 4133TIP3    H212343   4.117   2.050   5.799
 4134TIP3   OH212344   2.564   5.157   3.195
 4134TIP3    H112345   2.571   5.096   3.122
 4134TIP3    H212346   2.541   5.240   3.155
 4135TIP3   OH212347   0.015   5.461   1.954
 4135TIP3    H112348   0.015   5.532   2.018
 4135TIP3    H212349   0.015   5.506   1.869
 4136TIP3   OH212350   6.739   4.291   5.604
 4136TIP3    H112351   6.799   4.311   5.532
 4136TIP3    H212352   6.694   4.374   5.621
 4137TIP3   OH212353   0.802   5.100   0.237
 4137TIP3    H112354   0.763   5.082   0.152
 4137TIP3    H212355   0.846   5.184   0.226
 4138TIP3   OH212356   7.735   1.183   5.548
 4138TIP3    H112357   7.774   1.134   5.621
 4138TIP3    H212358   7.664   1.127   5.516
 4139TIP3   OH212359   2.837   7.067   5.551
 4139TIP3    H112360   2.886   6.998   5.595
 4139TIP3    H212361   2.903   7.131   5.524
 4140TIP3   OH212362   2.459   2.857   2.123
 4140TIP3    H112363   2.413   2.892   2.047
 4140TIP3    H212364   2.531   2.918   2.138
 4141TIP3   OH212365   4.283   2.480   6.398
 4141TIP3    H112366   4.357   2.419   6.406
 4141TIP3    H212367   4.283   2.507   6.306
 4142TIP3   OH212368   3.704   3.569   5.209
 4142TIP3    H112369   3.618   3.578   5.250
 4142TIP3    H212370   3.749   3.504   5.262
 4143TIP3   OH212371   4.343   1.846   5.291
 4143TIP3    H112372   4.334   1.872   5.382
 4143TIP3    H212373   4.428   1.881   5.264
 4144TIP3   OH212374   0.611   6.744   3.820
 4144TIP3    H112375   0.544   6.767   3.884
 4144TIP3    H212376   0.688   6.795   3.846
 4145TIP3   OH212377   0.988   0.792   0.653
 4145TIP3    H112378   1.042   0.715   0.672
 4145TIP3    H212379   1.036   0.865   0.692
 4146TIP3   OH212380   3.668   3.838   0.569
 4146TIP3    H112381   3.628   3.782   0.637
 4146TIP3    H212382   3.595   3.862   0.512
 4147TIP3   OH212383   3.408   4.110   4.391
 4147TIP3    H112384   3.386   4.199   4.417
 4147TIP3    H212385   3.464   4.077   4.461
 4148TIP3   OH212386   4.372   2.010   2.654
 4148TIP3    H112387   4.300   1.948   2.649
 4148TIP3    H212388   4.410   1.997   2.741
 4149TIP3   OH212389   5.852   6.690   0.742
 4149TIP3    H112390   5.824   6.700   0.833
 4149TIP3    H212391   5.817   6.767   0.698
 4150TIP3   OH212392   4.746   6.064   1.552
 4150TIP3    H112393   4.747   6.000   1.480
 4150TIP3    H212394   4.721   6.012   1.629
 4151TIP3   OH212395   5.555   1.992   2.181
 4151TIP3    H112396   5.503   1.975   2.102
 4151TIP3    H212397   5.506   2.059   2.228
 4152TIP3   OH212398   4.064  -0.004   2.936
 4152TIP3    H112399   4.065  -0.090   2.977
 4152TIP3    H212400   4.049  -0.021   2.843
 4153TIP3   OH212401   7.702   5.996   4.090
 4153TIP3    H112402   7.608   5.982   4.082
 4153TIP3    H212403   7.729   5.941   4.163
 4154TIP3   OH212404   1.294   7.269   1.472
 4154TIP3    H112405   1.277   7.182   1.438
 4154TIP3    H212406   1.239   7.327   1.419
 4155TIP3   OH212407   2.524   4.491   5.261
 4155TIP3    H112408   2.483   4.577   5.247
 4155TIP3    H212409   2.491   4.437   5.189
 4156TIP3   OH212410   1.768   7.630   5.211
 4156TIP3    H112411   1.851   7.677   5.217
 4156TIP3    H212412   1.789   7.540   5.232
 4157TIP3   OH212413   0.120   5.869   2.989
 4157TIP3    H112414   0.143   5.958   3.017
 4157TIP3    H212415   0.027   5.862   3.007
 4158TIP3   OH212416   2.533   7.664   3.559
 4158TIP3    H112417   2.591   7.589   3.547
 4158TIP3    H212418   2.457   7.644   3.505
 4159TIP3   OH212419   5.441   6.128   1.607
 4159TIP3    H112420   5.471   6.187   1.538
 4159TIP3    H212421   5.366   6.083   1.568
 4160TIP3   OH212422   6.166   3.714   4.663
 4160TIP3    H112423   6.216   3.716   4.581
 4160TIP3    H212424   6.203   3.640   4.712
 4161TIP3   OH212425   5.372   3.920   3.100
 4161TIP3    H112426   5.367   3.828   3.076
 4161TIP3    H212427   5.310   3.929   3.173
 4162TIP3   OH212428   5.451   2.451   2.604
 4162TIP3    H112429   5.456   2.403   2.687
 4162TIP3    H212430   5.394   2.398   2.549
 4163TIP3   OH212431   0.719   5.118   2.460
 4163TIP3    H112432   0.759   5.103   2.374
 4163TIP3    H212433   0.630   5.147   2.440
 4164TIP3   OH212434   0.408   6.337   3.662
 4164TIP3    H112435   0.475   6.333   3.593
 4164TIP3    H212436   0.456   6.326   3.743
 4165TIP3   OH212437   8.188   0.482   3.315
 4165TIP3    H112438   8.236   0.404   3.341
 4165TIP3    H212439   8.187   0.537   3.393
 4166TIP3   OH212440   5.085   2.967   0.884
 4166TIP3    H112441   5.007   3.013   0.854
 4166TIP3    H212442   5.083   2.884   0.837
 4167TIP3   OH212443   0.225   1.645   0.523
 4167TIP3    H112444   0.272   1.717   0.481
 4167TIP3    H212445   0.135   1.653   0.490
 4168TIP3   OH212446   7.230   6.432   3.996
 4168TIP3    H112447   7.196   6.366   4.056
 4168TIP3    H212448   7.153   6.470   3.955
 4169TIP3   OH212449   4.441   5.295   2.531
 4169TIP3    H112450   4.404   5.235   2.466
 4169TIP3    H212451   4.512   5.340   2.484
 4170TIP3   OH212452   5.215   0.759   6.720
 4170TIP3    H112453   5.254   0.774   6.806
 4170TIP3    H212454   5.261   0.683   6.686
 4171TIP3   OH212455   3.925   4.355  -0.001
 4171TIP3    H112456   3.949   4.263   0.011
 4171TIP3    H212457   3.846   4.366   0.051
 4172TIP3   OH212458   3.866   7.673   3.111
 4172TIP3    H112459   3.862   7.766   3.132
 4172TIP3    H212460   3.821   7.665   3.027
 4173TIP3   OH212461   4.816   5.265   5.404
 4173TIP3    H112462   4.901   5.295   5.371
 4173TIP3    H212463   4.807   5.306   5.489
 4174TIP3   OH212464   4.353   1.352   2.544
 4174TIP3    H112465   4.270   1.306   2.530
 4174TIP3    H212466   4.330   1.425   2.602
 4175TIP3   OH212467   3.401   0.682   4.940
 4175TIP3    H112468   3.329   0.618   4.938
 4175TIP3    H212469   3.477   0.632   4.912
 4176TIP3   OH212470   6.874   4.119   0.201
 4176TIP3    H112471   6.966   4.091   0.201
 4176TIP3    H212472   6.871   4.191   0.264
 4177TIP3   OH212473   0.347   2.972   3.472
 4177TIP3    H112474   0.403   2.966   3.550
 4177TIP3    H212475   0.302   2.888   3.468
 4178TIP3   OH212476   4.804   3.519   4.202
 4178TIP3    H112477   4.823   3.604   4.241
 4178TIP3    H212478   4.798   3.459   4.277
 4179TIP3   OH212479   1.964   5.074   2.843
 4179TIP3    H112480   2.001   4.989   2.867
 4179TIP3    H212481   1.879   5.076   2.887
 4180TIP3   OH212482   4.563   5.250   4.110
 4180TIP3    H112483   4.612   5.239   4.028
 4180TIP3    H212484   4.484   5.197   4.098
 4181TIP3   OH212485   4.572   4.880   0.306
 4181TIP3    H112486   4.578   4.937   0.383
 4181TIP3    H212487   4.661   4.879   0.270
 4182TIP3   OH212488   1.248   3.991   2.915
 4182TIP3    H112489   1.237   4.027   2.828
 4182TIP3    H212490   1.314   4.047   2.956
 4183TIP3   OH212491   7.129   7.714   6.308
 4183TIP3    H112492   7.093   7.634   6.346
 4183TIP3    H212493   7.122   7.779   6.377
 4184TIP3   OH212494   7.243   3.672   1.406
 4184TIP3    H112495   7.197   3.736   1.460
 4184TIP3    H212496   7.235   3.590   1.454
 4185TIP3   OH212497   2.265   1.812   4.831
 4185TIP3    H112498   2.276   1.908   4.833
 4185TIP3    H212499   2.339   1.781   4.780
 4186TIP3   OH212500   3.566   6.890   3.148
 4186TIP3    H112501   3.643   6.854   3.103
 4186TIP3    H212502   3.547   6.827   3.217
 4187TIP3   OH212503   8.063   5.274   2.733
 4187TIP3    H112504   8.095   5.232   2.653
 4187TIP3    H212505   7.969   5.254   2.734
 4188TIP3   OH212506   7.178   7.826   5.855
 4188TIP3    H112507   7.128   7.816   5.774
 4188TIP3    H212508   7.247   7.760   5.848
 4189TIP3   OH212509   4.939   6.447   3.557
 4189TIP3    H112510   5.020   6.496   3.572
 4189TIP3    H212511   4.881   6.474   3.628
 4190TIP3   OH212512   4.924   7.418   6.159
 4190TIP3    H112513   4.934   7.506   6.195
 4190TIP3    H212514   4.951   7.426   6.068
 4191TIP3   OH212515   1.537   6.921   0.709
 4191TIP3    H112516   1.517   6.936   0.617
 4191TIP3    H212517   1.487   6.843   0.732
 4192TIP3   OH212518   2.150   0.541   0.108
 4192TIP3    H112519   2.164   0.538   0.014
 4192TIP3    H212520   2.231   0.507   0.146
 4193TIP3   OH212521   7.398   4.904   0.990
 4193TIP3    H112522   7.480   4.952   0.983
 4193TIP3    H212523   7.409   4.828   0.934
 4194TIP3   OH212524   6.630   5.906   2.052
 4194TIP3    H112525   6.652   5.927   1.961
 4194TIP3    H212526   6.689   5.835   2.075
 4195TIP3   OH212527   1.543   6.291   1.403
 4195TIP3    H112528   1.464   6.254   1.365
 4195TIP3    H212529   1.614   6.265   1.344
 4196TIP3   OH212530   3.247   4.540   0.909
 4196TIP3    H112531   3.160   4.573   0.886
 4196TIP3    H212532   3.300   4.619   0.917
 4197TIP3   OH212533   5.038   5.195   2.407
 4197TIP3    H112534   4.975   5.253   2.364
 4197TIP3    H212535   4.984   5.127   2.448
 4198TIP3   OH212536   3.069   0.161   0.387
 4198TIP3    H112537   2.989   0.167   0.334
 4198TIP3    H212538   3.130   0.221   0.346
 4199TIP3   OH212539   0.609   1.231   3.318
 4199TIP3    H112540   0.616   1.148   3.271
 4199TIP3    H212541   0.531   1.222   3.372
 4200TIP3   OH212542   6.057   1.529   4.462
 4200TIP3    H112543   6.019   1.531   4.375
 4200TIP3    H212544   6.145   1.493   4.449
 4201TIP3   OH212545   2.454   6.229   6.153
 4201TIP3    H112546   2.528   6.176   6.184
 4201TIP3    H212547   2.474   6.318   6.181
 4202TIP3   OH212548   7.507   2.641   3.593
 4202TIP3    H112549   7.561   2.679   3.522
 4202TIP3    H212550   7.464   2.717   3.633
 4203TIP3   OH212551   5.218   7.812   4.359
 4203TIP3    H112552   5.310   7.788   4.351
 4203TIP3    H212553   5.190   7.771   4.441
 4204TIP3   OH212554   7.716   1.664   4.333
 4204TIP3    H112555   7.699   1.642   4.241
 4204TIP3    H212556   7.809   1.647   4.345
 4205TIP3   OH212557   0.409   3.267   1.356
 4205TIP3    H112558   0.358   3.348   1.367
 4205TIP3    H212559   0.342   3.199   1.342
 4206TIP3   OH212560   0.544   5.751   5.243
 4206TIP3    H112561   0.455   5.783   5.227
 4206TIP3    H212562   0.560   5.770   5.335
 4207TIP3   OH212563   1.266   4.489   6.098
 4207TIP3    H112564   1.218   4.565   6.066
 4207TIP3    H212565   1.219   4.414   6.061
 4208TIP3   OH212566   8.244   0.789   2.599
 4208TIP3    H112567   8.296   0.862   2.567
 4208TIP3    H212568   8.202   0.753   2.520
 4209TIP3   OH212569   4.803   5.766   5.752
 4209TIP3    H112570   4.889   5.748   5.790
 4209TIP3    H212571   4.764   5.680   5.740
 4210TIP3   OH212572   7.593   5.063   5.270
 4210TIP3    H112573   7.534   4.994   5.239
 4210TIP3    H212574   7.671   5.017   5.300
 4211TIP3   OH212575   6.929   7.368   4.575
 4211TIP3    H112576   6.843   7.345   4.612
 4211TIP3    H212577   6.954   7.292   4.523
 4212TIP3   OH212578   3.506   1.895   4.682
 4212TIP3    H112579   3.526   1.981   4.719
 4212TIP3    H212580   3.583   1.842   4.701
 4213TIP3   OH212581   6.400   4.753   3.457
 4213TIP3    H112582   6.428   4.689   3.523
 4213TIP3    H212583   6.444   4.834   3.483
 4214TIP3   OH212584   8.009   0.295   0.317
 4214TIP3    H112585   7.927   0.281   0.269
 4214TIP3    H212586   8.078   0.273   0.255
 4215TIP3   OH212587   3.146   0.895   3.677
 4215TIP3    H112588   3.055   0.915   3.696
 4215TIP3    H212589   3.189   0.981   3.675
 4216TIP3   OH212590   8.146   1.590   4.609
 4216TIP3    H112591   8.090   1.642   4.551
 4216TIP3    H212592   8.170   1.514   4.557
 4217TIP3   OH212593   1.944   1.832   4.747
 4217TIP3    H112594   1.986   1.754   4.712
 4217TIP3    H212595   1.930   1.813   4.840
 4218TIP3   OH212596   7.198   1.076   0.665
 4218TIP3    H112597   7.286   1.063   0.700
 4218TIP3    H212598   7.208   1.149   0.603
 4219TIP3   OH212599   1.816   0.215   5.981
 4219TIP3    H112600   1.773   0.301   5.989
 4219TIP3    H212601   1.748   0.158   5.945
 4220TIP3   OH212602   2.899   0.683   1.517
 4220TIP3    H112603   2.913   0.707   1.425
 4220TIP3    H212604   2.965   0.733   1.565
 4221TIP3   OH212605   1.018   4.926   4.812
 4221TIP3    H112606   1.039   4.916   4.719
 4221TIP3    H212607   1.079   4.867   4.857
 4222TIP3   OH212608   1.459   4.546   1.083
 4222TIP3    H112609   1.456   4.626   1.136
 4222TIP3    H212610   1.552   4.535   1.063
 4223TIP3   OH212611   0.773   0.321   3.969
 4223TIP3    H112612   0.801   0.368   4.048
 4223TIP3    H212613   0.763   0.230   3.998
 4224TIP3   OH212614   8.104   6.865   0.842
 4224TIP3    H112615   8.133   6.954   0.859
 4224TIP3    H212616   8.166   6.810   0.889
 4225TIP3   OH212617   1.017   5.579   4.753
 4225TIP3    H112618   1.102   5.617   4.731
 4225TIP3    H212619   0.957   5.614   4.687
 4226TIP3   OH212620   2.465   1.473   1.693
 4226TIP3    H112621   2.537   1.474   1.757
 4226TIP3    H212622   2.401   1.535   1.728
 4227TIP3   OH212623   5.057   1.121   0.373
 4227TIP3    H112624   5.002   1.121   0.295
 4227TIP3    H212625   5.146   1.135   0.340
 4228TIP3   OH212626   3.632   5.797   6.179
 4228TIP3    H112627   3.572   5.813   6.251
 4228TIP3    H212628   3.628   5.702   6.166
 4229TIP3   OH212629   2.919   7.074   2.086
 4229TIP3    H112630   2.960   7.127   2.154
 4229TIP3    H212631   2.892   7.137   2.019
 4230TIP3   OH212632   7.048   6.301   4.935
 4230TIP3    H112633   7.066   6.356   5.012
 4230TIP3    H212634   6.956   6.276   4.945
 4231TIP3   OH212635   1.182   6.633   6.326
 4231TIP3    H112636   1.211   6.648   6.236
 4231TIP3    H212637   1.095   6.596   6.318
 4232TIP3   OH212638   4.635   2.770   6.335
 4232TIP3    H112639   4.717   2.814   6.359
 4232TIP3    H212640   4.628   2.698   6.397
 4233TIP3   OH212641   4.127   0.768   1.696
 4233TIP3    H112642   4.136   0.714   1.774
 4233TIP3    H212643   4.186   0.842   1.710
 4234TIP3   OH212644   2.649   6.398   6.719
 4234TIP3    H112645   2.665   6.327   6.782
 4234TIP3    H212646   2.638   6.476   6.773
 4235TIP3   OH212647   6.455   6.207   2.760
 4235TIP3    H112648   6.526   6.144   2.754
 4235TIP3    H212649   6.376   6.155   2.771
 4236TIP3   OH212650   4.262   4.261   4.389
 4236TIP3    H112651   4.344   4.285   4.432
 4236TIP3    H212652   4.275   4.285   4.298
 4237TIP3   OH212653   0.297   4.364   1.568
 4237TIP3    H112654   0.381   4.406   1.587
 4237TIP3    H212655   0.235   4.410   1.624
 4238TIP3   OH212656   1.104   1.697   0.209
 4238TIP3    H112657   1.024   1.710   0.157
 4238TIP3    H212658   1.100   1.606   0.236
 4239TIP3   OH212659   5.341   5.593   0.400
 4239TIP3    H112660   5.336   5.573   0.306
 4239TIP3    H212661   5.327   5.509   0.444
 4240TIP3   OH212662   3.679   4.109   2.953
 4240TIP3    H112663   3.682   4.200   2.924
 4240TIP3    H212664   3.748   4.065   2.903
 4241TIP3   OH212665   1.633   6.092   3.680
 4241TIP3    H112666   1.592   6.064   3.598
 4241TIP3    H212667   1.603   6.181   3.694
 4242TIP3   OH212668   6.370   0.752   2.403
 4242TIP3    H112669   6.438   0.789   2.458
 4242TIP3    H212670   6.328   0.685   2.457
 4243TIP3   OH212671   5.495   6.530   4.261
 4243TIP3    H112672   5.490   6.574   4.176
 4243TIP3    H212673   5.418   6.473   4.263
 4244TIP3   OH212674   3.403   0.284   0.055
 4244TIP3    H112675   3.406   0.345  -0.019
 4244TIP3    H212676   3.478   0.227   0.042
 4245TIP3   OH212677   3.228   0.534   4.445
 4245TIP3    H112678   3.257   0.620   4.476
 4245TIP3    H212679   3.268   0.472   4.506
 4246TIP3   OH212680   1.941   0.163   5.727
 4246TIP3    H112681   1.891   0.189   5.804
 4246TIP3    H212682   2.033   0.178   5.752
 4247TIP3   OH212683   2.563   1.996   4.867
 4247TIP3    H112684   2.625   1.924   4.879
 4247TIP3    H212685   2.610   2.074   4.898
 4248TIP3   OH212686   5.466   6.455   0.380
 4248TIP3    H112687   5.419   6.530   0.345
 4248TIP3    H212688   5.397   6.399   0.417
 4249TIP3   OH212689   5.900   1.741   0.353
 4249TIP3    H112690   5.901   1.655   0.311
 4249TIP3    H212691   5.960   1.732   0.427
 4250TIP3   OH212692   1.478   0.583   0.965
 4250TIP3    H112693   1.449   0.598   0.875
 4250TIP3    H212694   1.430   0.505   0.993
 4251TIP3   OH212695   4.775   0.828   6.474
 4251TIP3    H112696   4.855   0.810   6.424
 4251TIP3    H212697   4.794   0.798   6.562
 4252TIP3   OH212698   5.681   7.057   2.532
 4252TIP3    H112699   5.659   7.088   2.620
 4252TIP3    H212700   5.732   7.128   2.493
 4253TIP3   OH212701   5.671   7.195   3.493
 4253TIP3    H112702   5.625   7.117   3.462
 4253TIP3    H212703   5.757   7.163   3.519
 4254TIP3   OH212704   5.563   5.848   0.809
 4254TIP3    H112705   5.527   5.935   0.827
 4254TIP3    H212706   5.658   5.859   0.814
 4255TIP3   OH212707   6.631   7.142   4.152
 4255TIP3    H112708   6.547   7.170   4.115
 4255TIP3    H212709   6.673   7.095   4.080
 4256TIP3   OH212710   2.966   6.236   1.645
 4256TIP3    H112711   2.939   6.323   1.675
 4256TIP3    H212712   2.904   6.176   1.686
 4257TIP3   OH212713   0.891   5.966   1.666
 4257TIP3    H112714   0.951   6.031   1.629
 4257TIP3    H212715   0.844   6.013   1.735
 4258TIP3   OH212716   0.228   7.661   6.715
 4258TIP3    H112717   0.241   7.720   6.789
 4258TIP3    H212718   0.266   7.578   6.744
 4259TIP3   OH212719   0.618   4.305   6.717
 4259TIP3    H112720   0.523   4.313   6.725
 4259TIP3    H212721   0.636   4.215   6.742
 4260TIP3   OH212722   5.970   6.079   2.994
 4260TIP3    H112723   5.955   5.985   3.001
 4260TIP3    H212724   5.893   6.119   3.035
 4261TIP3   OH212725   0.864   5.715   3.472
 4261TIP3    H112726   0.781   5.760   3.461
 4261TIP3    H212727   0.904   5.756   3.548
 4262TIP3   OH212728   1.858   0.211   2.264
 4262TIP3    H112729   1.776   0.250   2.234
 4262TIP3    H212730   1.834   0.122   2.290
 4263TIP3   OH212731   7.977   3.472   6.236
 4263TIP3    H112732   8.015   3.480   6.149
 4263TIP3    H212733   8.045   3.432   6.289
 4264TIP3   OH212734   6.189   0.907   2.250
 4264TIP3    H112735   6.248   0.837   2.276
 4264TIP3    H212736   6.213   0.926   2.159
 4265TIP3   OH212737   4.793   6.686   1.142
 4265TIP3    H112738   4.811   6.642   1.226
 4265TIP3    H212739   4.754   6.770   1.167
 4266TIP3   OH212740   3.468   7.185   5.203
 4266TIP3    H112741   3.545   7.167   5.148
 4266TIP3    H212742   3.416   7.247   5.153
 4267TIP3   OH212743   2.972   1.180   0.254
 4267TIP3    H112744   2.931   1.102   0.217
 4267TIP3    H212745   2.922   1.253   0.218
 4268TIP3   OH212746   0.981   0.596   2.327
 4268TIP3    H112747   0.904   0.647   2.354
 4268TIP3    H212748   0.951   0.505   2.331
 4269TIP3   OH212749   3.348   0.855   6.292
 4269TIP3    H112750   3.284   0.889   6.355
 4269TIP3    H212751   3.300   0.789   6.242
 4270TIP3   OH212752   5.897   3.507   5.160
 4270TIP3    H112753   5.932   3.455   5.088
 4270TIP3    H212754   5.882   3.443   5.230
 4271TIP3   OH212755   7.233   5.353   0.346
 4271TIP3    H112756   7.257   5.398   0.265
 4271TIP3    H212757   7.154   5.305   0.324
 4272TIP3   OH212758   0.402   7.690   4.049
 4272TIP3    H112759   0.410   7.779   4.015
 4272TIP3    H212760   0.452   7.690   4.130
 4273TIP3   OH212761   4.169   5.178   5.634
 4273TIP3    H112762   4.245   5.176   5.692
 4273TIP3    H212763   4.205   5.201   5.548
 4274TIP3   OH212764   0.748   7.197   3.199
 4274TIP3    H112765   0.742   7.188   3.104
 4274TIP3    H212766   0.816   7.135   3.225
 4275TIP3   OH212767   7.173   3.929   4.840
 4275TIP3    H112768   7.201   3.890   4.757
 4275TIP3    H212769   7.166   4.022   4.822
 4276TIP3   OH212770   0.371   6.930   6.046
 4276TIP3    H112771   0.355   6.943   5.952
 4276TIP3    H212772   0.465   6.917   6.053
 4277TIP3   OH212773   7.055   5.638   1.840
 4277TIP3    H112774   7.139   5.607   1.873
 4277TIP3    H212775   7.027   5.571   1.778
 4278TIP3   OH212776   5.808   3.353   6.449
 4278TIP3    H112777   5.752   3.281   6.478
 4278TIP3    H212778   5.751   3.407   6.394
 4279TIP3   OH212779   0.737   0.331   4.256
 4279TIP3    H112780   0.669   0.382   4.300
 4279TIP3    H212781   0.694   0.250   4.231
 4280TIP3   OH212782   0.179   3.709   1.613
 4280TIP3    H112783   0.148   3.778   1.554
 4280TIP3    H212784   0.209   3.639   1.555
 4281TIP3   OH212785   6.102   3.824   6.209
 4281TIP3    H112786   6.023   3.779   6.240
 4281TIP3    H212787   6.069   3.897   6.157
 4282TIP3   OH212788   4.657   5.179   1.665
 4282TIP3    H112789   4.617   5.250   1.715
 4282TIP3    H212790   4.643   5.101   1.720
 4283TIP3   OH212791   6.936   0.347   5.516
 4283TIP3    H112792   7.018   0.339   5.565
 4283TIP3    H212793   6.962   0.379   5.430
 4284TIP3   OH212794   4.470   2.688   1.194
 4284TIP3    H112795   4.446   2.637   1.117
 4284TIP3    H212796   4.395   2.746   1.208
 4285TIP3   OH212797   3.556   0.700   0.421
 4285TIP3    H112798   3.583   0.720   0.331
 4285TIP3    H212799   3.460   0.690   0.415
 4286TIP3   OH212800   7.097   7.451   6.450
 4286TIP3    H112801   7.033   7.379   6.459
 4286TIP3    H212802   7.179   7.414   6.481
 4287TIP3   OH212803   7.911   4.154   4.828
 4287TIP3    H112804   7.932   4.246   4.844
 4287TIP3    H212805   7.981   4.105   4.872
 4288TIP3   OH212806   2.657   0.070   6.062
 4288TIP3    H112807   2.638   0.121   6.141
 4288TIP3    H212808   2.752   0.072   6.054
 4289TIP3   OH212809   5.210   2.548   4.404
 4289TIP3    H112810   5.259   2.534   4.486
 4289TIP3    H212811   5.225   2.640   4.382
 4290TIP3   OH212812   5.140   0.915   1.795
 4290TIP3    H112813   5.056   0.895   1.753
 4290TIP3    H212814   5.148   1.010   1.786
 4291TIP3   OH212815   3.079   0.220   2.641
 4291TIP3    H112816   3.028   0.301   2.641
 4291TIP3    H212817   3.071   0.186   2.731
 4292TIP3   OH212818   3.198   0.958   2.089
 4292TIP3    H112819   3.178   0.866   2.109
 4292TIP3    H212820   3.278   0.976   2.137
 4293TIP3   OH212821   3.786   2.749   2.706
 4293TIP3    H112822   3.699   2.710   2.696
 4293TIP3    H212823   3.798   2.756   2.800
 4294TIP3   OH212824   4.522   4.480   2.488
 4294TIP3    H112825   4.491   4.506   2.402
 4294TIP3    H212826   4.588   4.413   2.471
 4295TIP3   OH212827   4.250   1.673   4.828
 4295TIP3    H112828   4.319   1.690   4.892
 4295TIP3    H212829   4.295   1.676   4.743
 4296TIP3   OH212830   0.760   1.871   6.429
 4296TIP3    H112831   0.800   1.785   6.443
 4296TIP3    H212832   0.820   1.916   6.369
 4297TIP3   OH212833   4.073   7.229   6.144
 4297TIP3    H112834   3.991   7.184   6.168
 4297TIP3    H212835   4.136   7.159   6.132
 4298TIP3   OH212836   0.811   4.714   6.101
 4298TIP3    H112837   0.726   4.684   6.134
 4298TIP3    H212838   0.794   4.801   6.065
 4299TIP3   OH212839   2.199   1.522   0.617
 4299TIP3    H112840   2.195   1.580   0.541
 4299TIP3    H212841   2.288   1.489   0.617
 4300TIP3   OH212842   4.337   4.067   5.700
 4300TIP3    H112843   4.317   4.158   5.680
 4300TIP3    H212844   4.430   4.057   5.679
 4301TIP3   OH212845   0.760   5.700   3.867
 4301TIP3    H112846   0.703   5.767   3.904
 4301TIP3    H212847   0.700   5.639   3.823
 4302TIP3   OH212848   6.406   2.209   1.417
 4302TIP3    H112849   6.325   2.259   1.427
 4302TIP3    H212850   6.430   2.184   1.506
 4303TIP3   OH212851   4.889   4.191   1.340
 4303TIP3    H112852   4.907   4.281   1.366
 4303TIP3    H212853   4.975   4.151   1.329
 4304TIP3   OH212854   5.614   6.550   6.053
 4304TIP3    H112855   5.590   6.507   6.134
 4304TIP3    H212856   5.703   6.520   6.034
 4305TIP3   OH212857   0.415   7.682   3.095
 4305TIP3    H112858   0.364   7.748   3.142
 4305TIP3    H212859   0.478   7.732   3.044
 4306TIP3   OH212860   5.594   1.353   5.703
 4306TIP3    H112861   5.609   1.267   5.743
 4306TIP3    H212862   5.523   1.339   5.641
 4307TIP3   OH212863   5.493   2.625   4.887
 4307TIP3    H112864   5.574   2.668   4.860
 4307TIP3    H212865   5.439   2.696   4.922
 4308TIP3   OH212866   7.278   5.651   2.633
 4308TIP3    H112867   7.288   5.643   2.727
 4308TIP3    H212868   7.322   5.574   2.597
 4309TIP3   OH212869   1.480   0.805   1.176
 4309TIP3    H112870   1.519   0.838   1.257
 4309TIP3    H212871   1.473   0.711   1.189
 4310TIP3   OH212872   6.442   1.554   5.515
 4310TIP3    H112873   6.393   1.556   5.433
 4310TIP3    H212874   6.487   1.639   5.518
 4311TIP3   OH212875   3.016   0.611   3.668
 4311TIP3    H112876   2.967   0.582   3.592
 4311TIP3    H212877   3.100   0.641   3.633
 4312TIP3   OH212878   6.474   3.740   5.100
 4312TIP3    H112879   6.521   3.662   5.130
 4312TIP3    H212880   6.396   3.744   5.155
 4313TIP3   OH212881   1.617   7.089   1.300
 4313TIP3    H112882   1.677   7.124   1.366
 4313TIP3    H212883   1.587   7.006   1.337
 4314TIP3   OH212884   8.135   4.184   6.174
 4314TIP3    H112885   8.046   4.192   6.207
 4314TIP3    H212886   8.154   4.090   6.178
 4315TIP3   OH212887   3.958   6.020   6.454
 4315TIP3    H112888   4.051   6.030   6.433
 4315TIP3    H212889   3.949   6.059   6.540
 4316TIP3   OH212890   3.723   6.541   3.010
 4316TIP3    H112891   3.708   6.502   3.096
 4316TIP3    H212892   3.800   6.497   2.976
 4317TIP3   OH212893   5.289   3.689   0.875
 4317TIP3    H112894   5.257   3.754   0.814
 4317TIP3    H212895   5.213   3.666   0.928
 4318TIP3   OH212896   4.833   0.810   5.999
 4318TIP3    H112897   4.840   0.876   6.068
 4318TIP3    H212898   4.913   0.758   6.007
 4319TIP3   OH212899   0.111   1.710   5.690
 4319TIP3    H112900   0.172   1.670   5.629
 4319TIP3    H212901   0.150   1.795   5.713
 4320TIP3   OH212902   4.000   1.450   5.928
 4320TIP3    H112903   3.952   1.517   5.879
 4320TIP3    H212904   4.045   1.398   5.861
 4321TIP3   OH212905   4.114   1.787   3.800
 4321TIP3    H112906   4.166   1.775   3.880
 4321TIP3    H212907   4.107   1.699   3.763
 4322TIP3   OH212908   2.966   6.148   6.008
 4322TIP3    H112909   2.995   6.057   6.000
 4322TIP3    H212910   2.926   6.153   6.095
 4323TIP3   OH212911   7.025   0.052   5.461
 4323TIP3    H112912   6.945   0.007   5.435
 4323TIP3    H212913   6.996   0.138   5.490
 4324TIP3   OH212914   2.419   1.897   2.967
 4324TIP3    H112915   2.345   1.953   2.988
 4324TIP3    H212916   2.489   1.958   2.944
 4325TIP3   OH212917   0.913   6.037   5.782
 4325TIP3    H112918   0.899   6.098   5.854
 4325TIP3    H212919   0.841   5.975   5.789
 4326TIP3   OH212920   1.559   1.616   6.584
 4326TIP3    H112921   1.547   1.696   6.635
 4326TIP3    H212922   1.476   1.603   6.539
 4327TIP3   OH212923   0.910   7.162   1.990
 4327TIP3    H112924   0.869   7.245   2.014
 4327TIP3    H212925   0.885   7.148   1.899
 4328TIP3   OH212926   3.351   6.369   6.625
 4328TIP3    H112927   3.270   6.345   6.579
 4328TIP3    H212928   3.366   6.460   6.601
 4329TIP3   OH212929   6.555   2.955   2.274
 4329TIP3    H112930   6.481   2.912   2.317
 4329TIP3    H212931   6.609   2.986   2.346
 4330TIP3   OH212932   7.442   7.494   5.067
 4330TIP3    H112933   7.517   7.536   5.109
 4330TIP3    H212934   7.378   7.564   5.055
 4331TIP3   OH212935   5.388   5.062   0.732
 4331TIP3    H112936   5.306   5.069   0.682
 4331TIP3    H212937   5.457   5.083   0.668
 4332TIP3   OH212938   1.152   3.307   4.459
 4332TIP3    H112939   1.230   3.271   4.418
 4332TIP3    H212940   1.178   3.325   4.549
 4333TIP3   OH212941   2.824   6.772   2.723
 4333TIP3    H112942   2.839   6.859   2.759
 4333TIP3    H212943   2.732   6.753   2.743
 4334TIP3   OH212944   0.493   6.668   3.558
 4334TIP3    H112945   0.503   6.685   3.651
 4334TIP3    H212946   0.578   6.634   3.530
 4335TIP3   OH212947   7.077   4.254   5.182
 4335TIP3    H112948   7.003   4.232   5.238
 4335TIP3    H212949   7.149   4.273   5.243
 4336TIP3   OH212950   6.587   0.525   4.454
 4336TIP3    H112951   6.589   0.553   4.545
 4336TIP3    H212952   6.611   0.603   4.404
 4337TIP3   OH212953   3.549   4.638   2.607
 4337TIP3    H112954   3.536   4.731   2.589
 4337TIP3    H212955   3.538   4.631   2.702
 4338TIP3   OH212956   1.189   2.192   4.373
 4338TIP3    H112957   1.137   2.241   4.436
 4338TIP3    H212958   1.159   2.222   4.287
 4339TIP3   OH212959   0.683   2.242   1.504
 4339TIP3    H112960   0.708   2.164   1.454
 4339TIP3    H212961   0.612   2.281   1.452
 4340TIP3   OH212962   6.320   6.323   2.534
 4340TIP3    H112963   6.282   6.237   2.515
 4340TIP3    H212964   6.386   6.305   2.601
 4341TIP3   OH212965   1.284   7.164   6.506
 4341TIP3    H112966   1.316   7.078   6.480
 4341TIP3    H212967   1.351   7.197   6.566
 4342TIP3   OH212968   1.832   2.648   4.163
 4342TIP3    H112969   1.922   2.624   4.187
 4342TIP3    H212970   1.840   2.684   4.075
 4343TIP3   OH212971   6.787   2.836   3.873
 4343TIP3    H112972   6.814   2.829   3.964
 4343TIP3    H212973   6.703   2.881   3.876
 4344TIP3   OH212974   2.763   3.439   3.305
 4344TIP3    H112975   2.702   3.499   3.261
 4344TIP3    H212976   2.844   3.489   3.314
 4345TIP3   OH212977   2.523   7.412   3.847
 4345TIP3    H112978   2.525   7.401   3.942
 4345TIP3    H212979   2.543   7.505   3.834
 4346TIP3   OH212980   2.080   6.196   3.991
 4346TIP3    H112981   2.049   6.125   3.935
 4346TIP3    H212982   2.175   6.186   3.991
 4347TIP3   OH212983   7.818   3.023   5.286
 4347TIP3    H112984   7.830   2.969   5.365
 4347TIP3    H212985   7.724   3.038   5.282
 4348TIP3   OH212986   5.993   3.894   4.140
 4348TIP3    H112987   6.003   3.878   4.046
 4348TIP3    H212988   6.065   3.847   4.181
 4349TIP3   OH212989   1.584   4.187   0.482
 4349TIP3    H112990   1.607   4.140   0.402
 4349TIP3    H212991   1.499   4.150   0.508
 4350TIP3   OH212992   2.012   5.614   1.861
 4350TIP3    H112993   2.044   5.662   1.937
 4350TIP3    H212994   2.090   5.580   1.819
 4351TIP3   OH212995   5.188   7.412   3.514
 4351TIP3    H112996   5.248   7.486   3.502
 4351TIP3    H212997   5.182   7.372   3.427
 4352TIP3   OH212998   4.447   5.743   1.696
 4352TIP3    H112999   4.360   5.737   1.656
 4352TIP3    H213000   4.431   5.779   1.783
 4353TIP3   OH213001   6.097   5.150   0.941
 4353TIP3    H113002   6.012   5.180   0.975
 4353TIP3    H213003   6.081   5.061   0.910
 4354TIP3   OH213004   4.074   5.364   3.557
 4354TIP3    H113005   4.040   5.453   3.570
 4354TIP3    H213006   4.162   5.367   3.594
 4355TIP3   OH213007   4.441   4.953   4.581
 4355TIP3    H113008   4.504   5.001   4.528
 4355TIP3    H213009   4.356   4.970   4.539
 4356TIP3   OH213010   2.848   6.363   0.060
 4356TIP3    H113011   2.842   6.428  -0.011
 4356TIP3    H213012   2.931   6.382   0.103
 4357TIP3   OH213013   6.032   7.152   4.995
 4357TIP3    H113014   6.064   7.083   4.937
 4357TIP3    H213015   6.048   7.119   5.084
 4358TIP3   OH213016   6.036   6.131   6.251
 4358TIP3    H113017   5.986   6.137   6.170
 4358TIP3    H213018   5.997   6.058   6.299
 4359TIP3   OH213019   3.914   6.808   6.682
 4359TIP3    H113020   3.822   6.808   6.656
 4359TIP3    H213021   3.913   6.838   6.773
 4360TIP3   OH213022   4.570   5.355   1.865
 4360TIP3    H113023   4.522   5.291   1.917
 4360TIP3    H213024   4.521   5.437   1.876
 4361TIP3   OH213025   3.160   2.895   1.980
 4361TIP3    H113026   3.205   2.883   2.064
 4361TIP3    H213027   3.181   2.816   1.930
 4362TIP3   OH213028   7.120   6.972   2.202
 4362TIP3    H113029   7.209   6.945   2.223
 4362TIP3    H213030   7.086   6.901   2.146
 4363TIP3   OH213031   2.332   2.489   5.442
 4363TIP3    H113032   2.406   2.429   5.454
 4363TIP3    H213033   2.372   2.575   5.433
 4364TIP3   OH213034   7.631   7.132   4.226
 4364TIP3    H113035   7.662   7.159   4.313
 4364TIP3    H213036   7.539   7.155   4.225
 4365TIP3   OH213037   2.899   1.591   4.366
 4365TIP3    H113038   2.947   1.516   4.401
 4365TIP3    H213039   2.857   1.630   4.442
 4366TIP3   OH213040   2.896   5.111   2.712
 4366TIP3    H113041   2.944   5.136   2.791
 4366TIP3    H213042   2.887   5.192   2.662
 4367TIP3   OH213043   4.325   4.863   6.004
 4367TIP3    H113044   4.310   4.928   6.073
 4367TIP3    H213045   4.355   4.785   6.051
 4368TIP3   OH213046   0.088   1.303   0.069
 4368TIP3    H113047   0.174   1.337   0.091
 4368TIP3    H213048   0.032   1.381   0.062
 4369TIP3   OH213049   0.082   6.822   3.427
 4369TIP3    H113050   0.018   6.775   3.481
 4369TIP3    H213051   0.141   6.754   3.395
 4370TIP3   OH213052   0.298   7.505   2.393
 4370TIP3    H113053   0.339   7.558   2.461
 4370TIP3    H213054   0.331   7.542   2.311
 4371TIP3   OH213055   1.470   3.251   5.060
 4371TIP3    H113056   1.434   3.311   5.125
 4371TIP3    H213057   1.479   3.303   4.981
 4372TIP3   OH213058   3.455   4.986   6.344
 4372TIP3    H113059   3.445   5.008   6.436
 4372TIP3    H213060   3.547   4.961   6.335
 4373TIP3   OH213061   0.096   5.371   6.501
 4373TIP3    H113062   0.188   5.384   6.475
 4373TIP3    H213063   0.079   5.440   6.565
 4374TIP3   OH213064   1.132   4.266   5.403
 4374TIP3    H113065   1.122   4.355   5.371
 4374TIP3    H213066   1.184   4.222   5.335
 4375TIP3   OH213067   4.998   5.979   6.388
 4375TIP3    H113068   4.941   5.907   6.360
 4375TIP3    H213069   4.989   6.045   6.319
 4376TIP3   OH213070   4.737   5.335   4.286
 4376TIP3    H113071   4.691   5.357   4.367
 4376TIP3    H213072   4.669   5.295   4.231
 4377TIP3   OH213073   5.947   4.239   1.431
 4377TIP3    H113074   5.887   4.248   1.358
 4377TIP3    H213075   6.033   4.253   1.394
 4378TIP3   OH213076   7.317   2.523   0.367
 4378TIP3    H113077   7.236   2.500   0.321
 4378TIP3    H213078   7.374   2.448   0.353
 4379TIP3   OH213079   5.783   1.789   4.595
 4379TIP3    H113080   5.756   1.813   4.683
 4379TIP3    H213081   5.770   1.694   4.590
 4380TIP3   OH213082   4.971   2.092   6.431
 4380TIP3    H113083   4.902   2.146   6.470
 4380TIP3    H213084   4.935   2.065   6.347
 4381TIP3   OH213085   4.876   5.428   3.963
 4381TIP3    H113086   4.916   5.374   4.031
 4381TIP3    H213087   4.807   5.372   3.925
 4382TIP3   OH213088   5.995   3.875   0.827
 4382TIP3    H113089   6.045   3.835   0.755
 4382TIP3    H213090   5.926   3.924   0.783
 4383TIP3   OH213091   8.058   3.099   5.532
 4383TIP3    H113092   8.108   3.096   5.450
 4383TIP3    H213093   8.125   3.106   5.600
 4384TIP3   OH213094   4.444   0.000   0.504
 4384TIP3    H113095   4.352   0.023   0.496
 4384TIP3    H213096   4.478   0.057   0.573
 4385TIP3   OH213097   1.344   5.868   1.844
 4385TIP3    H113098   1.373   5.778   1.857
 4385TIP3    H213099   1.349   5.882   1.749
 4386TIP3   OH213100   5.202   7.411   1.559
 4386TIP3    H113101   5.231   7.462   1.483
 4386TIP3    H213102   5.139   7.468   1.604
 4387TIP3   OH213103   6.524   3.478   1.790
 4387TIP3    H113104   6.492   3.554   1.837
 4387TIP3    H213105   6.477   3.479   1.707
 4388TIP3   OH213106   6.920   2.426   2.537
 4388TIP3    H113107   6.947   2.457   2.623
 4388TIP3    H213108   6.994   2.446   2.480
 4389TIP3   OH213109   6.146   4.102   3.770
 4389TIP3    H113110   6.156   4.151   3.689
 4389TIP3    H213111   6.236   4.085   3.799
 4390TIP3   OH213112   7.405   7.431   6.134
 4390TIP3    H113113   7.404   7.338   6.156
 4390TIP3    H213114   7.498   7.454   6.131
 4391TIP3   OH213115   1.452   6.481   2.620
 4391TIP3    H113116   1.459   6.387   2.603
 4391TIP3    H213117   1.504   6.522   2.551
 4392TIP3   OH213118   7.006   5.512   6.122
 4392TIP3    H113119   6.933   5.531   6.063
 4392TIP3    H213120   6.968   5.514   6.209
 4393TIP3   OH213121   5.559   5.631   3.027
 4393TIP3    H113122   5.466   5.651   3.037
 4393TIP3    H213123   5.563   5.564   2.959
 4394TIP3   OH213124   0.103   1.632   4.280
 4394TIP3    H113125   0.129   1.661   4.367
 4394TIP3    H213126   0.129   1.704   4.222
 4395TIP3   OH213127   6.939   3.714   1.432
 4395TIP3    H113128   6.890   3.795   1.417
 4395TIP3    H213129   7.013   3.740   1.487
 4396TIP3   OH213130   1.428   3.442   6.176
 4396TIP3    H113131   1.460   3.416   6.090
 4396TIP3    H213132   1.358   3.505   6.158
 4397TIP3   OH213133   3.014   2.124   1.266
 4397TIP3    H113134   3.057   2.207   1.287
 4397TIP3    H213135   2.962   2.104   1.345
 4398TIP3   OH213136   6.245   7.486   1.715
 4398TIP3    H113137   6.190   7.423   1.669
 4398TIP3    H213138   6.277   7.437   1.791
 4399TIP3   OH213139   5.909   0.078   2.441
 4399TIP3    H113140   5.862   0.002   2.474
 4399TIP3    H213141   5.842   0.144   2.426
 4400TIP3   OH213142   7.133   3.992   0.132
 4400TIP3    H113143   7.211   4.026   0.089
 4400TIP3    H213144   7.158   3.904   0.161
 4401TIP3   OH213145   4.551   1.860   2.459
 4401TIP3    H113146   4.496   1.931   2.491
 4401TIP3    H213147   4.639   1.898   2.453
 4402TIP3   OH213148   7.193   5.307   2.325
 4402TIP3    H113149   7.222   5.216   2.333
 4402TIP3    H213150   7.220   5.348   2.407
 4403TIP3   OH213151   4.777   5.988   4.970
 4403TIP3    H113152   4.810   6.074   4.946
 4403TIP3    H213153   4.854   5.940   4.999
 4404TIP3   OH213154   2.226   3.675   5.286
 4404TIP3    H113155   2.319   3.670   5.311
 4404TIP3    H213156   2.191   3.746   5.339
 4405TIP3   OH213157   5.015   3.894   0.426
 4405TIP3    H113158   5.086   3.896   0.362
 4405TIP3    H213159   4.941   3.937   0.382
 4406TIP3   OH213160   3.729   7.559   6.701
 4406TIP3    H113161   3.799   7.587   6.760
 4406TIP3    H213162   3.655   7.617   6.722
 4407TIP3   OH213163   4.781   2.947   0.043
 4407TIP3    H113164   4.798   2.893   0.119
 4407TIP3    H213165   4.849   2.923  -0.020
 4408TIP3   OH213166   5.788   3.999   4.551
 4408TIP3    H113167   5.818   4.052   4.477
 4408TIP3    H213168   5.820   3.910   4.531
 4409TIP3   OH213169   5.633   1.297   6.189
 4409TIP3    H113170   5.582   1.361   6.139
 4409TIP3    H213171   5.660   1.345   6.267
 4410TIP3   OH213172   5.553   0.861   1.366
 4410TIP3    H113173   5.581   0.952   1.359
 4410TIP3    H213174   5.615   0.822   1.428
 4411TIP3   OH213175   6.665   3.633   4.215
 4411TIP3    H113176   6.612   3.567   4.259
 4411TIP3    H213177   6.604   3.677   4.155
 4412TIP3   OH213178   5.376   3.018   5.689
 4412TIP3    H113179   5.460   3.047   5.725
 4412TIP3    H213180   5.370   3.062   5.604
 4413TIP3   OH213181   0.213   0.645   5.061
 4413TIP3    H113182   0.262   0.701   5.120
 4413TIP3    H213183   0.174   0.705   4.997
 4414TIP3   OH213184   1.170   1.594   3.977
 4414TIP3    H113185   1.244   1.626   4.028
 4414TIP3    H213186   1.185   1.500   3.968
 4415TIP3   OH213187   0.802   0.944   3.141
 4415TIP3    H113188   0.724   0.900   3.107
 4415TIP3    H213189   0.860   0.873   3.169
 4416TIP3   OH213190   2.876   6.759   2.261
 4416TIP3    H113191   2.942   6.764   2.192
 4416TIP3    H213192   2.926   6.768   2.342
 4417TIP3   OH213193   4.640   0.382   5.461
 4417TIP3    H113194   4.708   0.319   5.485
 4417TIP3    H213195   4.573   0.329   5.417
 4418TIP3   OH213196   3.177   2.713   4.970
 4418TIP3    H113197   3.223   2.790   4.938
 4418TIP3    H213198   3.090   2.719   4.932
 4419TIP3   OH213199   2.189   5.165   2.027
 4419TIP3    H113200   2.205   5.260   2.027
 4419TIP3    H213201   2.095   5.157   2.037
 4420TIP3   OH213202   1.844   5.538   4.416
 4420TIP3    H113203   1.843   5.511   4.324
 4420TIP3    H213204   1.936   5.532   4.442
 4421TIP3   OH213205   3.862   2.368   2.905
 4421TIP3    H113206   3.923   2.328   2.843
 4421TIP3    H213207   3.787   2.308   2.906
 4422TIP3   OH213208   4.669   1.422   2.597
 4422TIP3    H113209   4.691   1.403   2.506
 4422TIP3    H213210   4.586   1.469   2.592
 4423TIP3   OH213211   1.142   5.190   1.135
 4423TIP3    H113212   1.156   5.257   1.068
 4423TIP3    H213213   1.049   5.199   1.159
 4424TIP3   OH213214   7.948   1.922   5.201
 4424TIP3    H113215   7.937   1.991   5.266
 4424TIP3    H213216   7.980   1.847   5.250
 4425TIP3   OH213217   1.807   3.059   5.800
 4425TIP3    H113218   1.853   3.041   5.718
 4425TIP3    H213219   1.782   2.973   5.833
 4426TIP3   OH213220   5.526   6.850   1.792
 4426TIP3    H113221   5.476   6.768   1.802
 4426TIP3    H213222   5.491   6.890   1.713
 4427TIP3   OH213223   1.767   0.346   2.621
 4427TIP3    H113224   1.680   0.385   2.622
 4427TIP3    H213225   1.810   0.378   2.700
 4428TIP3   OH213226   6.067   6.553   2.070
 4428TIP3    H113227   6.070   6.625   2.133
 4428TIP3    H213228   5.977   6.555   2.036
 4429TIP3   OH213229   8.039   1.545   5.077
 4429TIP3    H113230   8.071   1.629   5.043
 4429TIP3    H213231   8.030   1.559   5.171
 4430TIP3   OH213232   2.435   1.422   3.711
 4430TIP3    H113233   2.507   1.379   3.758
 4430TIP3    H213234   2.358   1.369   3.730
 4431TIP3   OH213235   5.334   1.993   2.008
 4431TIP3    H113236   5.291   2.078   2.014
 4431TIP3    H213237   5.328   1.969   1.916
 4432TIP3   OH213238   7.764   1.083   5.123
 4432TIP3    H113239   7.675   1.052   5.137
 4432TIP3    H213240   7.796   1.104   5.211
 4433TIP3   OH213241   5.476   6.382   0.692
 4433TIP3    H113242   5.414   6.383   0.619
 4433TIP3    H213243   5.443   6.447   0.753
 4434TIP3   OH213244   2.953   2.010   0.379
 4434TIP3    H113245   2.862   2.008   0.349
 4434TIP3    H213246   2.996   2.075   0.323
 4435TIP3   OH213247   6.162   0.293   5.160
 4435TIP3    H113248   6.174   0.248   5.244
 4435TIP3    H213249   6.118   0.228   5.104
 4436TIP3   OH213250   3.848   2.045   4.009
 4436TIP3    H113251   3.880   2.093   3.933
 4436TIP3    H213252   3.851   1.953   3.982
 4437TIP3   OH213253   5.583   7.501   2.706
 4437TIP3    H113254   5.599   7.588   2.743
 4437TIP3    H213255   5.490   7.485   2.723
 4438TIP3   OH213256   4.115   4.576   0.360
 4438TIP3    H113257   4.145   4.529   0.438
 4438TIP3    H213258   4.022   4.591   0.377
 4439TIP3   OH213259   7.665   1.312   1.017
 4439TIP3    H113260   7.670   1.268   0.932
 4439TIP3    H213261   7.707   1.397   1.003
 4440TIP3   OH213262   1.926   1.573   0.706
 4440TIP3    H113263   1.991   1.546   0.771
 4440TIP3    H213264   1.952   1.528   0.626
 4441TIP3   OH213265   3.852   5.586   6.611
 4441TIP3    H113266   3.846   5.492   6.627
 4441TIP3    H213267   3.942   5.609   6.636
 4442TIP3   OH213268   3.027   2.523   5.630
 4442TIP3    H113269   2.954   2.523   5.692
 4442TIP3    H213270   3.007   2.595   5.571
 4443TIP3   OH213271   7.078   1.493   1.562
 4443TIP3    H113272   7.148   1.485   1.498
 4443TIP3    H213273   7.040   1.405   1.566
 4444TIP3   OH213274   1.439   0.270   2.842
 4444TIP3    H113275   1.472   0.217   2.914
 4444TIP3    H213276   1.453   0.217   2.764
 4445TIP3   OH213277   6.870   1.746   6.670
 4445TIP3    H113278   6.804   1.790   6.724
 4445TIP3    H213279   6.920   1.818   6.630
 4446TIP3   OH213280   7.966   1.419   5.918
 4446TIP3    H113281   8.016   1.369   5.853
 4446TIP3    H213282   7.962   1.361   5.994
 4447TIP3   OH213283   5.566   1.088   5.630
 4447TIP3    H113284   5.554   1.019   5.564
 4447TIP3    H213285   5.659   1.109   5.627
 4448TIP3   OH213286   1.522   1.356   4.912
 4448TIP3    H113287   1.547   1.444   4.881
 4448TIP3    H213288   1.602   1.304   4.902
 4449TIP3   OH213289   1.420   0.243   6.497
 4449TIP3    H113290   1.482   0.288   6.555
 4449TIP3    H213291   1.394   0.310   6.433
 4450TIP3   OH213292   4.472   3.319   6.528
 4450TIP3    H113293   4.453   3.340   6.619
 4450TIP3    H213294   4.413   3.247   6.507
 4451TIP3   OH213295   5.233   2.298   4.291
 4451TIP3    H113296   5.261   2.227   4.349
 4451TIP3    H213297   5.221   2.373   4.348
 4452TIP3   OH213298   4.956   1.782   3.205
 4452TIP3    H113299   4.984   1.712   3.263
 4452TIP3    H213300   4.863   1.791   3.222
 4453TIP3   OH213301   6.393   5.366   2.613
 4453TIP3    H113302   6.445   5.291   2.586
 4453TIP3    H213303   6.400   5.368   2.709
 4454TIP3   OH213304   1.176   5.690   4.229
 4454TIP3    H113305   1.173   5.600   4.261
 4454TIP3    H213306   1.093   5.703   4.183
 4455TIP3   OH213307  -0.026   2.986   2.868
 4455TIP3    H113308   0.047   3.020   2.816
 4455TIP3    H213309  -0.032   2.894   2.845
 4456TIP3   OH213310   4.510   6.196   4.618
 4456TIP3    H113311   4.510   6.101   4.612
 4456TIP3    H213312   4.542   6.226   4.533
 4457TIP3   OH213313   7.459   2.322   6.307
 4457TIP3    H113314   7.442   2.293   6.396
 4457TIP3    H213315   7.412   2.259   6.252
 4458TIP3   OH213316   2.721   2.987   5.439
 4458TIP3    H113317   2.709   3.036   5.520
 4458TIP3    H213318   2.662   2.912   5.448
 4459TIP3   OH213319   6.463   2.393   5.363
 4459TIP3    H113320   6.385   2.435   5.400
 4459TIP3    H213321   6.477   2.316   5.418
 4460TIP3   OH213322   2.631   4.766   5.567
 4460TIP3    H113323   2.558   4.827   5.564
 4460TIP3    H213324   2.707   4.820   5.590
 4461TIP3   OH213325   3.156   2.580   1.567
 4461TIP3    H113326   3.165   2.659   1.620
 4461TIP3    H213327   3.246   2.562   1.536
 4462TIP3   OH213328   3.326   1.205   6.145
 4462TIP3    H113329   3.302   1.172   6.232
 4462TIP3    H213330   3.310   1.132   6.086
 4463TIP3   OH213331   6.095   7.259   1.537
 4463TIP3    H113332   6.011   7.218   1.516
 4463TIP3    H213333   6.125   7.296   1.453
 4464TIP3   OH213334   6.223   5.862   3.572
 4464TIP3    H113335   6.236   5.920   3.497
 4464TIP3    H213336   6.153   5.803   3.545
 4465TIP3   OH213337   0.662   4.307   2.570
 4465TIP3    H113338   0.713   4.355   2.505
 4465TIP3    H213339   0.655   4.368   2.644
 4466TIP3   OH213340   3.124   5.037   1.478
 4466TIP3    H113341   3.154   4.947   1.469
 4466TIP3    H213342   3.134   5.075   1.391
 4467TIP3   OH213343   5.275   4.510   5.282
 4467TIP3    H113344   5.208   4.489   5.217
 4467TIP3    H213345   5.231   4.570   5.343
 4468TIP3   OH213346   6.725   1.783   4.292
 4468TIP3    H113347   6.801   1.833   4.324
 4468TIP3    H213348   6.762   1.725   4.225
 4469TIP3   OH213349   6.804   5.924   5.637
 4469TIP3    H113350   6.891   5.908   5.673
 4469TIP3    H213351   6.744   5.900   5.707
 4470TIP3   OH213352   5.308   2.216   4.906
 4470TIP3    H113353   5.255   2.229   4.828
 4470TIP3    H213354   5.245   2.194   4.975
 4471TIP3   OH213355   3.809   4.626   3.699
 4471TIP3    H113356   3.862   4.682   3.641
 4471TIP3    H213357   3.861   4.546   3.709
 4472TIP3   OH213358   5.714   0.242   5.635
 4472TIP3    H113359   5.620   0.227   5.643
 4472TIP3    H213360   5.730   0.323   5.683
 4473TIP3   OH213361   7.272   2.305   1.320
 4473TIP3    H113362   7.200   2.275   1.376
 4473TIP3    H213363   7.249   2.396   1.300
 4474TIP3   OH213364   8.255   7.163   2.544
 4474TIP3    H113365   8.308   7.214   2.483
 4474TIP3    H213366   8.170   7.207   2.543
 4475TIP3   OH213367   4.722   3.446   4.919
 4475TIP3    H113368   4.805   3.429   4.963
 4475TIP3    H213369   4.658   3.391   4.965
 4476TIP3   OH213370   7.547   3.747   0.129
 4476TIP3    H113371   7.527   3.657   0.103
 4476TIP3    H213372   7.621   3.772   0.074
 4477TIP3   OH213373   0.840   0.317   3.699
 4477TIP3    H113374   0.847   0.224   3.682
 4477TIP3    H213375   0.805   0.323   3.788
 4478TIP3   OH213376   8.083   1.011   1.449
 4478TIP3    H113377   8.062   1.036   1.539
 4478TIP3    H213378   8.007   1.039   1.398
 4479TIP3   OH213379   2.922   3.884   1.006
 4479TIP3    H113380   3.004   3.886   1.054
 4479TIP3    H213381   2.854   3.891   1.073
 4480TIP3   OH213382   2.509   2.216   3.801
 4480TIP3    H113383   2.568   2.251   3.868
 4480TIP3    H213384   2.456   2.152   3.847
 4481TIP3   OH213385   6.400   2.616   1.271
 4481TIP3    H113386   6.487   2.586   1.298
 4481TIP3    H213387   6.394   2.591   1.179
 4482TIP3   OH213388   1.275   4.681   0.520
 4482TIP3    H113389   1.341   4.617   0.495
 4482TIP3    H213390   1.248   4.722   0.437
 4483TIP3   OH213391   3.909   1.726   2.945
 4483TIP3    H113392   3.813   1.733   2.940
 4483TIP3    H213393   3.939   1.744   2.856
 4484TIP3   OH213394   6.186   2.431   1.999
 4484TIP3    H113395   6.206   2.490   2.072
 4484TIP3    H213396   6.244   2.461   1.928
 4485TIP3   OH213397   3.588   4.992   4.329
 4485TIP3    H113398   3.664   4.938   4.350
 4485TIP3    H213399   3.541   5.001   4.412
 4486TIP3   OH213400   1.296   4.258   6.353
 4486TIP3    H113401   1.296   4.194   6.424
 4486TIP3    H213402   1.204   4.268   6.330
 4487TIP3   OH213403   7.837   5.948   4.755
 4487TIP3    H113404   7.931   5.932   4.765
 4487TIP3    H213405   7.829   6.043   4.750
 4488TIP3   OH213406   2.858   6.734   4.057
 4488TIP3    H113407   2.893   6.770   4.139
 4488TIP3    H213408   2.773   6.777   4.046
 4489TIP3   OH213409   4.912   7.390   1.511
 4489TIP3    H113410   4.953   7.306   1.490
 4489TIP3    H213411   4.824   7.383   1.476
 4490TIP3   OH213412   0.661   4.700   4.333
 4490TIP3    H113413   0.674   4.794   4.316
 4490TIP3    H213414   0.591   4.675   4.272
 4491TIP3   OH213415   7.757   0.032   2.712
 4491TIP3    H113416   7.768  -0.002   2.623
 4491TIP3    H213417   7.805   0.115   2.712
 4492TIP3   OH213418   1.616   6.044   5.849
 4492TIP3    H113419   1.604   6.021   5.941
 4492TIP3    H213420   1.531   6.078   5.821
 4493TIP3   OH213421   7.071   2.295   4.054
 4493TIP3    H113422   7.035   2.359   3.993
 4493TIP3    H213423   7.165   2.292   4.033
 4494TIP3   OH213424   5.597   1.054   3.071
 4494TIP3    H113425   5.566   1.045   3.161
 4494TIP3    H213426   5.685   1.091   3.079
 4495TIP3   OH213427   0.108   6.552   2.781
 4495TIP3    H113428   0.159   6.482   2.741
 4495TIP3    H213429   0.151   6.568   2.865
 4496TIP3   OH213430   0.400   2.734   3.070
 4496TIP3    H113431   0.339   2.696   3.006
 4496TIP3    H213432   0.346   2.797   3.118
 4497TIP3   OH213433   5.633   2.149   1.054
 4497TIP3    H113434   5.674   2.063   1.053
 4497TIP3    H213435   5.658   2.187   1.139
 4498TIP3   OH213436   3.136   4.110   2.372
 4498TIP3    H113437   3.139   4.087   2.279
 4498TIP3    H213438   3.129   4.206   2.373
 4499TIP3   OH213439   1.748   2.807   5.957
 4499TIP3    H113440   1.664   2.776   5.990
 4499TIP3    H213441   1.807   2.799   6.033
 4500TIP3   OH213442   8.001   6.735   3.529
 4500TIP3    H113443   7.995   6.704   3.438
 4500TIP3    H213444   8.086   6.704   3.559
 4501TIP3   OH213445   6.389   6.389   4.948
 4501TIP3    H113446   6.376   6.340   4.868
 4501TIP3    H213447   6.458   6.342   4.994
 4502TIP3   OH213448   1.901   3.822   0.717
 4502TIP3    H113449   1.813   3.797   0.691
 4502TIP3    H213450   1.933   3.875   0.644
 4503TIP3   OH213451   2.777   3.679   5.531
 4503TIP3    H113452   2.798   3.724   5.449
 4503TIP3    H213453   2.797   3.587   5.513
 4504TIP3   OH213454   0.155   1.803   0.823
 4504TIP3    H113455   0.219   1.732   0.824
 4504TIP3    H213456   0.206   1.880   0.798
 4505TIP3   OH213457   8.348   4.867   1.128
 4505TIP3    H113458   8.314   4.945   1.172
 4505TIP3    H213459   8.283   4.847   1.060
 4506TIP3   OH213460   5.957   4.454   3.279
 4506TIP3    H113461   5.979   4.363   3.258
 4506TIP3    H213462   6.030   4.484   3.333
 4507TIP3   OH213463   6.336   3.252   6.598
 4507TIP3    H113464   6.306   3.342   6.607
 4507TIP3    H213465   6.255   3.200   6.600
 4508TIP3   OH213466   7.600   1.258   6.403
 4508TIP3    H113467   7.639   1.322   6.463
 4508TIP3    H213468   7.650   1.178   6.417
 4509TIP3   OH213469   7.540   2.199   4.262
 4509TIP3    H113470   7.618   2.243   4.294
 4509TIP3    H213471   7.516   2.248   4.183
 4510TIP3   OH213472   0.161   7.400   0.313
 4510TIP3    H113473   0.185   7.379   0.223
 4510TIP3    H213474   0.241   7.437   0.352
 4511TIP3   OH213475   5.690   5.778   1.429
 4511TIP3    H113476   5.647   5.858   1.459
 4511TIP3    H213477   5.781   5.788   1.455
 4512TIP3   OH213478   2.066   3.290   2.023
 4512TIP3    H113479   2.018   3.242   1.957
 4512TIP3    H213480   2.065   3.381   1.993
 4513TIP3   OH213481   8.098   5.109   1.496
 4513TIP3    H113482   8.061   5.033   1.541
 4513TIP3    H213483   8.083   5.181   1.557
 4514TIP3   OH213484   0.920   0.183   1.489
 4514TIP3    H113485   1.016   0.175   1.492
 4514TIP3    H213486   0.893   0.173   1.580
 4515TIP3   OH213487   3.759   4.045   4.777
 4515TIP3    H113488   3.839   4.077   4.819
 4515TIP3    H213489   3.737   3.966   4.827
 4516TIP3   OH213490   6.373   0.725   4.918
 4516TIP3    H113491   6.465   0.738   4.898
 4516TIP3    H213492   6.363   0.630   4.927
 4517TIP3   OH213493   1.017   0.850   3.488
 4517TIP3    H113494   0.992   0.800   3.410
 4517TIP3    H213495   1.051   0.932   3.454
 4518TIP3   OH213496   7.640   1.272   4.493
 4518TIP3    H113497   7.729   1.274   4.530
 4518TIP3    H213498   7.650   1.227   4.409
 4519TIP3   OH213499   5.361   2.411   0.747
 4519TIP3    H113500   5.435   2.472   0.756
 4519TIP3    H213501   5.400   2.329   0.718
 4520TIP3   OH213502   5.923   5.785   1.208
 4520TIP3    H113503   5.970   5.774   1.125
 4520TIP3    H213504   5.955   5.715   1.264
 4521TIP3   OH213505   7.460   4.102   5.790
 4521TIP3    H113506   7.480   4.193   5.808
 4521TIP3    H213507   7.519   4.052   5.845
 4522TIP3   OH213508   2.221   7.276   4.947
 4522TIP3    H113509   2.292   7.339   4.939
 4522TIP3    H213510   2.261   7.192   4.925
 4523TIP3   OH213511   5.850   7.503   1.450
 4523TIP3    H113512   5.911   7.432   1.431
 4523TIP3    H213513   5.886   7.578   1.403
 4524TIP3   OH213514   8.269   0.790   4.977
 4524TIP3    H113515   8.176   0.779   4.997
 4524TIP3    H213516   8.288   0.881   5.002
 4525TIP3   OH213517   4.623   5.830   2.846
 4525TIP3    H113518   4.652   5.892   2.913
 4525TIP3    H213519   4.679   5.753   2.858
 4526TIP3   OH213520   2.282   6.714   1.517
 4526TIP3    H113521   2.336   6.662   1.576
 4526TIP3    H213522   2.322   6.801   1.519
 4527TIP3   OH213523   6.640   5.685   0.750
 4527TIP3    H113524   6.723   5.690   0.796
 4527TIP3    H213525   6.598   5.770   0.765
 4528TIP3   OH213526   4.072   7.777   4.931
 4528TIP3    H113527   4.164   7.767   4.907
 4528TIP3    H213528   4.028   7.807   4.852
 4529TIP3   OH213529   2.679   3.162   4.040
 4529TIP3    H113530   2.662   3.188   3.949
 4529TIP3    H213531   2.671   3.242   4.091
 4530TIP3   OH213532   4.663   0.408   2.948
 4530TIP3    H113533   4.717   0.438   3.021
 4530TIP3    H213534   4.691   0.318   2.933
 4531TIP3   OH213535   1.951   4.508   4.496
 4531TIP3    H113536   1.915   4.592   4.523
 4531TIP3    H213537   1.960   4.459   4.577
 4532TIP3   OH213538   4.954   6.042   0.933
 4532TIP3    H113539   4.909   6.066   0.852
 4532TIP3    H213540   4.927   6.109   0.996
 4533TIP3   OH213541   7.828   0.337   3.996
 4533TIP3    H113542   7.832   0.392   3.918
 4533TIP3    H213543   7.892   0.268   3.981
 4534TIP3   OH213544   7.072   6.319   2.424
 4534TIP3    H113545   7.145   6.273   2.382
 4534TIP3    H213546   7.106   6.342   2.511
 4535TIP3   OH213547   6.325   2.636   0.681
 4535TIP3    H113548   6.302   2.544   0.673
 4535TIP3    H213549   6.384   2.653   0.608
 4536TIP3   OH213550   6.601   7.264   3.462
 4536TIP3    H113551   6.595   7.243   3.556
 4536TIP3    H213552   6.593   7.360   3.459
 4537TIP3   OH213553   3.688   3.125   5.529
 4537TIP3    H113554   3.712   3.034   5.544
 4537TIP3    H213555   3.689   3.165   5.616
 4538TIP3   OH213556   1.036   3.201   6.047
 4538TIP3    H113557   0.967   3.157   5.997
 4538TIP3    H213558   1.081   3.256   5.984
 4539TIP3   OH213559   7.296   5.650   3.334
 4539TIP3    H113560   7.232   5.581   3.316
 4539TIP3    H213561   7.299   5.656   3.429
 4540TIP3   OH213562   4.789   5.083   2.481
 4540TIP3    H113563   4.722   5.024   2.515
 4540TIP3    H213564   4.743   5.141   2.420
 4541TIP3   OH213565   2.397   7.251   0.318
 4541TIP3    H113566   2.408   7.230   0.411
 4541TIP3    H213567   2.479   7.222   0.277
 4542TIP3   OH213568   4.302   2.159   4.650
 4542TIP3    H113569   4.267   2.071   4.634
 4542TIP3    H213570   4.376   2.166   4.590
 4543TIP3   OH213571   0.717   6.635   0.407
 4543TIP3    H113572   0.696   6.546   0.376
 4543TIP3    H213573   0.812   6.637   0.410
 4544TIP3   OH213574   4.890   1.663   3.760
 4544TIP3    H113575   4.888   1.670   3.855
 4544TIP3    H213576   4.907   1.752   3.730
 4545TIP3   OH213577   3.070   6.965   5.355
 4545TIP3    H113578   3.073   6.884   5.407
 4545TIP3    H213579   3.013   6.943   5.281
 4546TIP3   OH213580   2.603   1.550   0.034
 4546TIP3    H113581   2.550   1.612  -0.015
 4546TIP3    H213582   2.665   1.605   0.082
 4547TIP3   OH213583   1.759   6.799   1.876
 4547TIP3    H113584   1.676   6.805   1.923
 4547TIP3    H213585   1.763   6.708   1.846
 4548TIP3   OH213586   2.240   4.538   6.293
 4548TIP3    H113587   2.247   4.486   6.373
 4548TIP3    H213588   2.179   4.608   6.316
 4549TIP3   OH213589   4.120   3.296   4.769
 4549TIP3    H113590   4.081   3.217   4.731
 4549TIP3    H213591   4.173   3.333   4.698
 4550TIP3   OH213592   7.271   0.013   0.928
 4550TIP3    H113593   7.199   0.066   0.893
 4550TIP3    H213594   7.251   0.003   1.021
 4551TIP3   OH213595   6.498   7.421   1.428
 4551TIP3    H113596   6.446   7.487   1.473
 4551TIP3    H213597   6.571   7.404   1.488
 4552TIP3   OH213598   1.563   1.133   4.168
 4552TIP3    H113599   1.576   1.140   4.073
 4552TIP3    H213600   1.477   1.092   4.176
 4553TIP3   OH213601   7.665   5.994   2.797
 4553TIP3    H113602   7.724   6.069   2.788
 4553TIP3    H213603   7.602   6.020   2.864
 4554TIP3   OH213604   0.488   6.223   2.114
 4554TIP3    H113605   0.566   6.268   2.147
 4554TIP3    H213606   0.522   6.143   2.073
 4555TIP3   OH213607   0.476   3.831   2.402
 4555TIP3    H113608   0.535   3.900   2.431
 4555TIP3    H213609   0.424   3.872   2.333
 4556TIP3   OH213610   2.038   1.065   1.619
 4556TIP3    H113611   1.975   1.129   1.588
 4556TIP3    H213612   2.113   1.117   1.648
 4557TIP3   OH213613   7.255   2.573   1.226
 4557TIP3    H113614   7.340   2.599   1.190
 4557TIP3    H213615   7.196   2.575   1.150
 4558TIP3   OH213616   3.022   3.830   5.926
 4558TIP3    H113617   3.063   3.896   5.981
 4558TIP3    H213618   2.986   3.880   5.852
 4559TIP3   OH213619   1.467   0.467   6.734
 4559TIP3    H113620   1.474   0.545   6.680
 4559TIP3    H213621   1.457   0.501   6.823
 4560TIP3   OH213622   6.613   6.546   1.241
 4560TIP3    H113623   6.521   6.534   1.216
 4560TIP3    H213624   6.632   6.470   1.297
 4561TIP3   OH213625   0.240   7.755   1.599
 4561TIP3    H113626   0.267   7.817   1.666
 4561TIP3    H213627   0.229   7.672   1.645
 4562TIP3   OH213628   8.132   6.854   6.750
 4562TIP3    H113629   8.106   6.766   6.776
 4562TIP3    H213630   8.221   6.863   6.783
 4563TIP3   OH213631   6.124   2.243   3.566
 4563TIP3    H113632   6.199   2.183   3.564
 4563TIP3    H213633   6.158   2.321   3.611
 4564TIP3   OH213634   3.013   1.411   6.524
 4564TIP3    H113635   3.058   1.419   6.608
 4564TIP3    H213636   2.973   1.324   6.526
 4565TIP3   OH213637   4.193   0.822   4.484
 4565TIP3    H113638   4.163   0.747   4.431
 4565TIP3    H213639   4.131   0.892   4.463
 4566TIP3   OH213640   4.773   7.465   4.254
 4566TIP3    H113641   4.810   7.547   4.287
 4566TIP3    H213642   4.845   7.402   4.259
 4567TIP3   OH213643   3.270   1.560   4.145
 4567TIP3    H113644   3.282   1.653   4.124
 4567TIP3    H213645   3.294   1.552   4.237
 4568TIP3   OH213646   5.582   5.567   3.490
 4568TIP3    H113647   5.607   5.623   3.563
 4568TIP3    H213648   5.528   5.498   3.529
 4569TIP3   OH213649   0.471   7.296   0.091
 4569TIP3    H113650   0.507   7.321   0.007
 4569TIP3    H213651   0.546   7.264   0.141
 4570TIP3   OH213652   2.603   0.847   1.667
 4570TIP3    H113653   2.606   0.782   1.597
 4570TIP3    H213654   2.520   0.830   1.711
 4571TIP3   OH213655   3.088   0.860   3.127
 4571TIP3    H113656   3.076   0.948   3.164
 4571TIP3    H213657   3.104   0.876   3.034
 4572TIP3   OH213658   0.844   4.643   1.326
 4572TIP3    H113659   0.902   4.585   1.375
 4572TIP3    H213660   0.756   4.616   1.352
 4573TIP3   OH213661   1.815   4.294   3.339
 4573TIP3    H113662   1.816   4.200   3.356
 4573TIP3    H213663   1.810   4.301   3.244
 4574TIP3   OH213664   6.817   7.014   3.972
 4574TIP3    H113665   6.819   6.932   4.022
 4574TIP3    H213666   6.799   6.987   3.882
 4575TIP3   OH213667   7.388   5.705   3.592
 4575TIP3    H113668   7.482   5.705   3.610
 4575TIP3    H213669   7.368   5.797   3.571
 4576TIP3   OH213670   5.130   2.949   1.166
 4576TIP3    H113671   5.203   3.007   1.148
 4576TIP3    H213672   5.098   2.922   1.080
 4577TIP3   OH213673   2.125   4.557   2.740
 4577TIP3    H113674   2.081   4.483   2.699
 4577TIP3    H213675   2.054   4.612   2.775
 4578TIP3   OH213676   0.924   3.208   6.411
 4578TIP3    H113677   0.876   3.276   6.364
 4578TIP3    H213678   0.950   3.146   6.344
 4579TIP3   OH213679   2.531   0.914   3.789
 4579TIP3    H113680   2.439   0.933   3.773
 4579TIP3    H213681   2.574   0.933   3.705
 4580TIP3   OH213682   7.438   4.850   5.168
 4580TIP3    H113683   7.488   4.785   5.118
 4580TIP3    H213684   7.406   4.802   5.244
 4581TIP3   OH213685   7.679   3.651   6.219
 4581TIP3    H113686   7.606   3.696   6.262
 4581TIP3    H213687   7.718   3.596   6.287
 4582TIP3   OH213688   0.726   3.678   5.612
 4582TIP3    H113689   0.722   3.584   5.626
 4582TIP3    H213690   0.798   3.708   5.669
 4583TIP3   OH213691   4.851   7.591   2.161
 4583TIP3    H113692   4.919   7.652   2.133
 4583TIP3    H213693   4.799   7.640   2.225
 4584TIP3   OH213694   3.808   0.436   0.931
 4584TIP3    H113695   3.882   0.378   0.949
 4584TIP3    H213696   3.769   0.401   0.851
 4585TIP3   OH213697   2.247   1.333   1.032
 4585TIP3    H113698   2.161   1.298   1.055
 4585TIP3    H213699   2.277   1.277   0.960
 4586TIP3   OH213700   4.270   3.466   1.010
 4586TIP3    H113701   4.243   3.529   0.943
 4586TIP3    H213702   4.321   3.517   1.072
 4587TIP3   OH213703   2.687   5.632   3.341
 4587TIP3    H113704   2.717   5.723   3.339
 4587TIP3    H213705   2.593   5.638   3.361
 4588TIP3   OH213706   4.026   0.658   2.818
 4588TIP3    H113707   4.062   0.665   2.906
 4588TIP3    H213708   4.047   0.569   2.791
 4589TIP3   OH213709   6.555   6.870   3.891
 4589TIP3    H113710   6.560   6.806   3.962
 4589TIP3    H213711   6.632   6.851   3.837
 4590TIP3   OH213712   5.611   2.942   3.327
 4590TIP3    H113713   5.663   2.861   3.335
 4590TIP3    H213714   5.545   2.935   3.397
 4591TIP3   OH213715   4.665   0.254   1.096
 4591TIP3    H113716   4.759   0.271   1.098
 4591TIP3    H213717   4.648   0.229   1.005
 4592TIP3   OH213718   6.424   3.184   2.738
 4592TIP3    H113719   6.401   3.202   2.647
 4592TIP3    H213720   6.346   3.205   2.788
 4593TIP3   OH213721   6.663   0.098   1.433
 4593TIP3    H113722   6.594   0.093   1.499
 4593TIP3    H213723   6.649   0.022   1.377
 4594TIP3   OH213724   4.845   1.647   2.570
 4594TIP3    H113725   4.868   1.728   2.617
 4594TIP3    H213726   4.761   1.620   2.609
 4595TIP3   OH213727   4.016   1.429   1.106
 4595TIP3    H113728   4.109   1.451   1.117
 4595TIP3    H213729   3.976   1.511   1.075
 4596TIP3   OH213730   5.836   1.783   0.859
 4596TIP3    H113731   5.841   1.764   0.952
 4596TIP3    H213732   5.797   1.705   0.820
 4597TIP3   OH213733   0.153   5.286   2.317
 4597TIP3    H113734   0.103   5.338   2.254
 4597TIP3    H213735   0.226   5.342   2.341
 4598TIP3   OH213736   7.639   4.641   1.199
 4598TIP3    H113737   7.548   4.664   1.221
 4598TIP3    H213738   7.634   4.604   1.111
 4599TIP3   OH213739   3.253   1.784   4.643
 4599TIP3    H113740   3.324   1.837   4.678
 4599TIP3    H213741   3.199   1.847   4.594
 4600TIP3   OH213742   6.381   2.939   5.869
 4600TIP3    H113743   6.475   2.925   5.876
 4600TIP3    H213744   6.366   2.962   5.778
 4601TIP3   OH213745   0.541   2.022   5.916
 4601TIP3    H113746   0.609   1.971   5.961
 4601TIP3    H213747   0.566   2.113   5.930
 4602TIP3   OH213748   5.116   0.186   6.486
 4602TIP3    H113749   5.077   0.098   6.492
 4602TIP3    H213750   5.055   0.242   6.534
 4603TIP3   OH213751   5.780   5.002   1.092
 4603TIP3    H113752   5.816   5.088   1.069
 4603TIP3    H213753   5.747   5.013   1.181
 4604TIP3   OH213754   4.822   3.941   5.626
 4604TIP3    H113755   4.878   4.002   5.578
 4604TIP3    H213756   4.870   3.859   5.626
 4605TIP3   OH213757   0.677   6.201   5.777
 4605TIP3    H113758   0.720   6.161   5.701
 4605TIP3    H213759   0.640   6.127   5.825
 4606TIP3   OH213760   4.551   4.036   0.789
 4606TIP3    H113761   4.510   3.974   0.730
 4606TIP3    H213762   4.521   4.011   0.876
 4607TIP3   OH213763   6.003   0.936   5.159
 4607TIP3    H113764   5.951   0.887   5.096
 4607TIP3    H213765   6.083   0.885   5.170
 4608TIP3   OH213766   3.328   3.402   4.782
 4608TIP3    H113767   3.321   3.493   4.811
 4608TIP3    H213768   3.315   3.351   4.862
 4609TIP3   OH213769   1.540   7.614   6.529
 4609TIP3    H113770   1.624   7.606   6.574
 4609TIP3    H213771   1.522   7.526   6.496
 4610TIP3   OH213772   6.463   6.602   6.575
 4610TIP3    H113773   6.497   6.659   6.645
 4610TIP3    H213774   6.482   6.513   6.606
 4611TIP3   OH213775   4.963   1.110   3.196
 4611TIP3    H113776   5.025   1.134   3.266
 4611TIP3    H213777   4.919   1.191   3.174
 4612TIP3   OH213778   1.178   4.813   1.671
 4612TIP3    H113779   1.247   4.877   1.688
 4612TIP3    H213780   1.159   4.823   1.578
 4613TIP3   OH213781   4.957   0.749   1.435
 4613TIP3    H113782   5.038   0.704   1.459
 4613TIP3    H213783   4.985   0.838   1.413
 4614TIP3   OH213784   2.625   5.724   4.363
 4614TIP3    H113785   2.617   5.756   4.273
 4614TIP3    H213786   2.680   5.646   4.355
 4615TIP3   OH213787   6.942   0.487   3.134
 4615TIP3    H113788   6.868   0.428   3.152
 4615TIP3    H213789   7.014   0.451   3.185
 4616TIP3   OH213790   1.808   5.158   4.620
 4616TIP3    H113791   1.771   5.233   4.668
 4616TIP3    H213792   1.737   5.095   4.615
 4617TIP3   OH213793   0.083   4.242   2.090
 4617TIP3    H113794   0.127   4.314   2.136
 4617TIP3    H213795   0.059   4.181   2.160
 4618TIP3   OH213796   6.716   1.793   0.994
 4618TIP3    H113797   6.728   1.879   1.034
 4618TIP3    H213798   6.746   1.731   1.061
 4619TIP3   OH213799   6.164   5.408   3.529
 4619TIP3    H113800   6.169   5.332   3.471
 4619TIP3    H213801   6.102   5.467   3.486
 4620TIP3   OH213802   0.359   7.561   3.594
 4620TIP3    H113803   0.449   7.591   3.582
 4620TIP3    H213804   0.359   7.472   3.561
 4621TIP3   OH213805   4.478   7.369   4.340
 4621TIP3    H113806   4.491   7.280   4.309
 4621TIP3    H213807   4.567   7.406   4.347
 4622TIP3   OH213808   0.651   5.503   5.197
 4622TIP3    H113809   0.706   5.500   5.119
 4622TIP3    H213810   0.604   5.586   5.190
 4623TIP3   OH213811   5.129   2.304   6.272
 4623TIP3    H113812   5.215   2.279   6.238
 4623TIP3    H213813   5.096   2.224   6.312
 4624TIP3   OH213814   7.010   5.149   0.930
 4624TIP3    H113815   7.099   5.121   0.913
 4624TIP3    H213816   7.010   5.179   1.021
 4625TIP3   OH213817   0.377   0.694   3.044
 4625TIP3    H113818   0.293   0.651   3.061
 4625TIP3    H213819   0.412   0.713   3.132
 4626TIP3   OH213820   5.706   5.619   1.910
 4626TIP3    H113821   5.788   5.586   1.945
 4626TIP3    H213822   5.714   5.714   1.915
 4627TIP3   OH213823   8.152   6.578   2.000
 4627TIP3    H113824   8.197   6.585   1.915
 4627TIP3    H213825   8.210   6.623   2.061
 4628TIP3   OH213826   0.659   2.371   4.250
 4628TIP3    H113827   0.684   2.302   4.188
 4628TIP3    H213828   0.644   2.324   4.332
 4629TIP3   OH213829   0.851   2.868   5.487
 4629TIP3    H113830   0.875   2.799   5.425
 4629TIP3    H213831   0.916   2.862   5.556
 4630TIP3   OH213832   4.895   2.506   4.564
 4630TIP3    H113833   4.974   2.542   4.604
 4630TIP3    H213834   4.923   2.422   4.526
 4631TIP3   OH213835   0.724   3.256   3.933
 4631TIP3    H113836   0.739   3.238   4.025
 4631TIP3    H213837   0.812   3.256   3.894
 4632TIP3   OH213838   4.224   0.817   0.924
 4632TIP3    H113839   4.156   0.774   0.872
 4632TIP3    H213840   4.277   0.746   0.958
 4633TIP3   OH213841   6.613   5.389   0.653
 4633TIP3    H113842   6.599   5.465   0.595
 4633TIP3    H213843   6.652   5.426   0.732
 4634TIP3   OH213844   1.762   5.805   4.015
 4634TIP3    H113845   1.852   5.782   4.035
 4634TIP3    H213846   1.759   5.900   4.022
 4635TIP3   OH213847   5.863   0.672   5.228
 4635TIP3    H113848   5.804   0.727   5.176
 4635TIP3    H213849   5.913   0.622   5.163
 4636TIP3   OH213850   4.233   1.574   4.316
 4636TIP3    H113851   4.176   1.497   4.320
 4636TIP3    H213852   4.174   1.646   4.293
 4637TIP3   OH213853   3.722   3.090   3.143
 4637TIP3    H113854   3.644   3.051   3.182
 4637TIP3    H213855   3.699   3.182   3.130
 4638TIP3   OH213856   5.622   3.964   3.842
 4638TIP3    H113857   5.639   3.930   3.754
 4638TIP3    H213858   5.526   3.961   3.851
 4639TIP3   OH213859   3.035   7.563   0.275
 4639TIP3    H113860   3.099   7.508   0.230
 4639TIP3    H213861   3.071   7.652   0.269
 4640TIP3   OH213862   3.201   2.464   4.216
 4640TIP3    H113863   3.291   2.468   4.248
 4640TIP3    H213864   3.206   2.498   4.127
 4641TIP3   OH213865   3.374   5.744   2.861
 4641TIP3    H113866   3.315   5.723   2.933
 4641TIP3    H213867   3.452   5.780   2.904
 4642TIP3   OH213868   3.475   4.242   5.481
 4642TIP3    H113869   3.399   4.300   5.474
 4642TIP3    H213870   3.550   4.301   5.483
 4643TIP3   OH213871   3.274   1.748   4.365
 4643TIP3    H113872   3.255   1.743   4.458
 4643TIP3    H213873   3.197   1.790   4.327
 4644TIP3   OH213874   7.104   5.660   4.819
 4644TIP3    H113875   7.162   5.692   4.750
 4644TIP3    H213876   7.054   5.737   4.846
 4645TIP3   OH213877   0.140   5.659   1.096
 4645TIP3    H113878   0.226   5.664   1.054
 4645TIP3    H213879   0.078   5.666   1.023
 4646TIP3   OH213880   7.497   6.859   2.739
 4646TIP3    H113881   7.590   6.872   2.720
 4646TIP3    H213882   7.489   6.766   2.759
 4647TIP3   OH213883   0.667   1.271   5.876
 4647TIP3    H113884   0.605   1.268   5.949
 4647TIP3    H213885   0.752   1.284   5.917
 4648TIP3   OH213886   0.727   4.746   3.228
 4648TIP3    H113887   0.747   4.798   3.150
 4648TIP3    H213888   0.745   4.656   3.202
 4649TIP3   OH213889   1.923   2.064   3.918
 4649TIP3    H113890   2.012   2.067   3.885
 4649TIP3    H213891   1.918   1.982   3.967
 4650TIP3   OH213892   2.397   1.197   3.443
 4650TIP3    H113893   2.402   1.277   3.390
 4650TIP3    H213894   2.488   1.171   3.454
 4651TIP3   OH213895   2.091   1.477   5.778
 4651TIP3    H113896   2.020   1.423   5.811
 4651TIP3    H213897   2.170   1.438   5.815
 4652TIP3   OH213898   4.965   5.005   5.669
 4652TIP3    H113899   4.922   5.011   5.583
 4652TIP3    H213900   5.058   5.004   5.649
 4653TIP3   OH213901   0.494   6.625   0.544
 4653TIP3    H113902   0.579   6.621   0.500
 4653TIP3    H213903   0.480   6.718   0.561
 4654TIP3   OH213904   0.488   6.713   2.670
 4654TIP3    H113905   0.486   6.739   2.577
 4654TIP3    H213906   0.548   6.639   2.672
 4655TIP3   OH213907   5.973   5.744   6.120
 4655TIP3    H113908   6.026   5.800   6.176
 4655TIP3    H213909   5.915   5.697   6.180
 4656TIP3   OH213910   5.476   3.158   4.005
 4656TIP3    H113911   5.463   3.210   3.925
 4656TIP3    H213912   5.427   3.078   3.989
 4657TIP3   OH213913   6.990   7.037   3.307
 4657TIP3    H113914   7.062   7.087   3.347
 4657TIP3    H213915   7.022   6.946   3.306
 4658TIP3   OH213916   0.801   6.112   3.417
 4658TIP3    H113917   0.831   6.025   3.388
 4658TIP3    H213918   0.706   6.110   3.403
 4659TIP3   OH213919   6.608   6.188   5.530
 4659TIP3    H113920   6.636   6.100   5.505
 4659TIP3    H213921   6.582   6.180   5.622
 4660TIP3   OH213922   1.189   2.137   3.989
 4660TIP3    H113923   1.149   2.205   4.043
 4660TIP3    H213924   1.221   2.183   3.912
 4661TIP3   OH213925   7.985   1.385   4.084
 4661TIP3    H113926   8.010   1.407   3.994
 4661TIP3    H213927   8.043   1.437   4.139
 4662TIP3   OH213928   7.828   3.807   2.999
 4662TIP3    H113929   7.919   3.838   3.005
 4662TIP3    H213930   7.785   3.845   3.075
 4663TIP3   OH213931   1.179   2.558   4.463
 4663TIP3    H113932   1.086   2.554   4.444
 4663TIP3    H213933   1.221   2.528   4.382
 4664TIP3   OH213934   1.895   0.663   3.342
 4664TIP3    H113935   1.816   0.680   3.290
 4664TIP3    H213936   1.888   0.723   3.416
 4665TIP3   OH213937   4.381   5.710   3.937
 4665TIP3    H113938   4.451   5.714   3.872
 4665TIP3    H213939   4.301   5.696   3.886
 4666TIP3   OH213940   5.693   5.365   0.267
 4666TIP3    H113941   5.664   5.364   0.358
 4666TIP3    H213942   5.782   5.401   0.271
 4667TIP3   OH213943   6.594   6.839   3.027
 4667TIP3    H113944   6.597   6.934   3.012
 4667TIP3    H213945   6.630   6.801   2.948
 4668TIP3   OH213946   5.284   0.622   6.193
 4668TIP3    H113947   5.379   0.630   6.198
 4668TIP3    H213948   5.267   0.530   6.212
 4669TIP3   OH213949   5.108   5.688   5.269
 4669TIP3    H113950   5.189   5.643   5.248
 4669TIP3    H213951   5.096   5.673   5.363
 4670TIP3   OH213952   6.018   3.132   1.689
 4670TIP3    H113953   6.005   3.132   1.783
 4670TIP3    H213954   6.112   3.149   1.677
 4671TIP3   OH213955   7.060   7.153   0.801
 4671TIP3    H113956   7.011   7.173   0.880
 4671TIP3    H213957   7.117   7.080   0.825
 4672TIP3   OH213958   2.436   1.558   4.065
 4672TIP3    H113959   2.513   1.607   4.096
 4672TIP3    H213960   2.454   1.467   4.089
 4673TIP3   OH213961   1.330   4.155   1.515
 4673TIP3    H113962   1.288   4.180   1.433
 4673TIP3    H213963   1.401   4.097   1.490
 4674TIP3   OH213964   4.915   7.587   1.697
 4674TIP3    H113965   4.899   7.512   1.641
 4674TIP3    H213966   4.881   7.662   1.648
 4675TIP3   OH213967   6.374   3.575   0.774
 4675TIP3    H113968   6.335   3.513   0.713
 4675TIP3    H213969   6.304   3.594   0.837
 4676TIP3   OH213970   7.723   3.943   2.763
 4676TIP3    H113971   7.803   3.977   2.723
 4676TIP3    H213972   7.753   3.897   2.842
 4677TIP3   OH213973   0.891   6.511   4.561
 4677TIP3    H113974   0.935   6.578   4.613
 4677TIP3    H213975   0.818   6.558   4.520
 4678TIP3   OH213976   7.318   0.173   4.993
 4678TIP3    H113977   7.288   0.263   5.005
 4678TIP3    H213978   7.268   0.123   5.058
 4679TIP3   OH213979   7.000   6.729   2.082
 4679TIP3    H113980   7.000   6.633   2.078
 4679TIP3    H213981   6.985   6.757   1.991
 4680TIP3   OH213982   0.247   4.881   4.224
 4680TIP3    H113983   0.206   4.953   4.175
 4680TIP3    H213984   0.319   4.923   4.272
 4681TIP3   OH213985   4.681   4.128   1.163
 4681TIP3    H113986   4.599   4.111   1.210
 4681TIP3    H213987   4.748   4.128   1.230
 4682TIP3   OH213988   4.632   1.786   5.216
 4682TIP3    H113989   4.635   1.860   5.155
 4682TIP3    H213990   4.692   1.810   5.286
 4683TIP3   OH213991   1.467   5.217   6.059
 4683TIP3    H113992   1.386   5.259   6.031
 4683TIP3    H213993   1.516   5.287   6.103
 4684TIP3   OH213994   4.613   6.294   6.508
 4684TIP3    H113995   4.520   6.273   6.516
 4684TIP3    H213996   4.657   6.221   6.553
 4685TIP3   OH213997   4.967   5.232   5.819
 4685TIP3    H113998   4.963   5.157   5.760
 4685TIP3    H213999   4.935   5.305   5.765
 4686TIP3   OH214000   0.726   7.558   6.064
 4686TIP3    H114001   0.632   7.562   6.044
 4686TIP3    H214002   0.730   7.542   6.158
 4687TIP3   OH214003   8.290   7.080   3.456
 4687TIP3    H114004   8.273   7.069   3.550
 4687TIP3    H214005   8.335   7.000   3.430
 4688TIP3   OH214006   5.277   3.818   4.517
 4688TIP3    H114007   5.265   3.910   4.539
 4688TIP3    H214008   5.225   3.805   4.438
 4689TIP3   OH214009   3.930   0.042   5.555
 4689TIP3    H114010   3.995   0.012   5.619
 4689TIP3    H214011   3.845   0.019   5.594
 4690TIP3   OH214012   6.420   3.700   1.900
 4690TIP3    H114013   6.368   3.735   1.828
 4690TIP3    H214014   6.443   3.776   1.953
 4691TIP3   OH214015   7.039   4.688   3.030
 4691TIP3    H114016   7.021   4.597   3.005
 4691TIP3    H214017   7.094   4.680   3.108
 4692TIP3   OH214018   6.989   1.723   1.091
 4692TIP3    H114019   7.074   1.740   1.131
 4692TIP3    H214020   6.930   1.707   1.164
 4693TIP3   OH214021   4.071   4.582   1.362
 4693TIP3    H114022   4.095   4.533   1.441
 4693TIP3    H214023   4.058   4.671   1.393
 4694TIP3   OH214024   6.217   0.914   4.784
 4694TIP3    H114025   6.266   0.994   4.799
 4694TIP3    H214026   6.269   0.845   4.825
 4695TIP3   OH214027   4.464   1.178   4.664
 4695TIP3    H114028   4.430   1.191   4.575
 4695TIP3    H214029   4.419   1.100   4.696
 4696TIP3   OH214030   0.480   5.505   6.536
 4696TIP3    H114031   0.474   5.522   6.442
 4696TIP3    H214032   0.422   5.430   6.550
 4697TIP3   OH214033   2.834   7.259   4.750
 4697TIP3    H114034   2.817   7.259   4.844
 4697TIP3    H214035   2.748   7.272   4.710
 4698TIP3   OH214036   0.336   3.545   2.251
 4698TIP3    H114037   0.291   3.628   2.266
 4698TIP3    H214038   0.266   3.482   2.236
 4699TIP3   OH214039   7.204   4.869   2.050
 4699TIP3    H114040   7.269   4.853   2.118
 4699TIP3    H214041   7.120   4.845   2.091
 4700TIP3   OH214042   1.906   2.795   6.201
 4700TIP3    H114043   1.980   2.743   6.232
 4700TIP3    H214044   1.933   2.886   6.214
 4701TIP3   OH214045   1.804   5.846   0.458
 4701TIP3    H114046   1.804   5.752   0.474
 4701TIP3    H214047   1.897   5.870   0.461
 4702TIP3   OH214048   3.127   4.821   4.659
 4702TIP3    H114049   3.210   4.848   4.699
 4702TIP3    H214050   3.142   4.829   4.565
 4703TIP3   OH214051   2.102   4.599   1.866
 4703TIP3    H114052   2.151   4.650   1.801
 4703TIP3    H214053   2.011   4.604   1.837
 4704TIP3   OH214054   6.633   1.026   5.759
 4704TIP3    H114055   6.685   1.087   5.811
 4704TIP3    H214056   6.563   1.079   5.721
 4705TIP3   OH214057   0.230   1.930   1.196
 4705TIP3    H114058   0.208   1.964   1.282
 4705TIP3    H214059   0.285   1.998   1.157
 4706TIP3   OH214060   5.315   7.271   1.798
 4706TIP3    H114061   5.361   7.268   1.882
 4706TIP3    H214062   5.287   7.362   1.789
 4707TIP3   OH214063   5.384   6.662   5.759
 4707TIP3    H114064   5.400   6.740   5.706
 4707TIP3    H214065   5.471   6.627   5.778
 4708TIP3   OH214066   8.029   5.867   0.655
 4708TIP3    H114067   8.115   5.903   0.675
 4708TIP3    H214068   8.012   5.804   0.725
 4709TIP3   OH214069   4.782   4.814   3.259
 4709TIP3    H114070   4.692   4.800   3.231
 4709TIP3    H214071   4.775   4.875   3.333
 4710TIP3   OH214072   5.484   1.621   4.578
 4710TIP3    H114073   5.518   1.670   4.653
 4710TIP3    H214074   5.444   1.543   4.618
 4711TIP3   OH214075   6.990   6.081   3.954
 4711TIP3    H114076   7.054   6.022   3.914
 4711TIP3    H214077   6.985   6.155   3.894
 4712TIP3   OH214078   2.122   4.085   3.908
 4712TIP3    H114079   2.120   4.021   3.979
 4712TIP3    H214080   2.142   4.168   3.951
 4713TIP3   OH214081   6.763   1.593   6.065
 4713TIP3    H114082   6.773   1.530   5.994
 4713TIP3    H214083   6.852   1.622   6.083
 4714TIP3   OH214084   2.438   3.194   3.619
 4714TIP3    H114085   2.372   3.144   3.571
 4714TIP3    H214086   2.430   3.283   3.584
 4715TIP3   OH214087   2.208   2.327   0.228
 4715TIP3    H114088   2.252   2.291   0.304
 4715TIP3    H214089   2.177   2.251   0.179
 4716TIP3   OH214090   7.266   5.367   4.629
 4716TIP3    H114091   7.276   5.459   4.653
 4716TIP3    H214092   7.356   5.334   4.622
 4717TIP3   OH214093   3.935   4.429   3.859
 4717TIP3    H114094   3.853   4.385   3.882
 4717TIP3    H214095   4.004   4.372   3.893
 4718TIP3   OH214096   4.355   4.813   0.092
 4718TIP3    H114097   4.407   4.835   0.015
 4718TIP3    H214098   4.391   4.868   0.161
 4719TIP3   OH214099   7.472   2.949   2.810
 4719TIP3    H114100   7.436   3.012   2.873
 4719TIP3    H214101   7.411   2.876   2.811
 4720TIP3   OH214102   8.149   3.724   3.392
 4720TIP3    H114103   8.178   3.657   3.454
 4720TIP3    H214104   8.190   3.699   3.309
 4721TIP3   OH214105   3.455   0.851   5.400
 4721TIP3    H114106   3.544   0.826   5.377
 4721TIP3    H214107   3.415   0.876   5.316
 4722TIP3   OH214108   4.834   6.077   0.351
 4722TIP3    H114109   4.877   6.009   0.404
 4722TIP3    H214110   4.763   6.109   0.407
 4723TIP3   OH214111   0.031   4.930   0.380
 4723TIP3    H114112   0.005   4.968   0.296
 4723TIP3    H214113   0.077   4.849   0.358
 4724TIP3   OH214114   6.165   2.845   2.648
 4724TIP3    H114115   6.137   2.816   2.735
 4724TIP3    H214116   6.116   2.790   2.588
 4725TIP3   OH214117   7.897   2.787   3.501
 4725TIP3    H114118   7.920   2.750   3.416
 4725TIP3    H214119   7.819   2.840   3.484
 4726TIP3   OH214120   0.104   2.045   1.425
 4726TIP3    H114121   0.092   1.958   1.463
 4726TIP3    H214122   0.069   2.105   1.491
 4727TIP3   OH214123   7.104   2.480   0.225
 4727TIP3    H114124   7.018   2.505   0.258
 4727TIP3    H214125   7.091   2.467   0.131
 4728TIP3   OH214126   3.455   3.552   5.350
 4728TIP3    H114127   3.448   3.463   5.384
 4728TIP3    H214128   3.468   3.606   5.428
 4729TIP3   OH214129   6.901   6.910   5.869
 4729TIP3    H114130   6.983   6.940   5.910
 4729TIP3    H214131   6.923   6.825   5.832
 4730TIP3   OH214132   0.827   0.400   6.002
 4730TIP3    H114133   0.806   0.411   6.094
 4730TIP3    H214134   0.858   0.309   5.995
 4731TIP3   OH214135   2.544   4.307   5.530
 4731TIP3    H114136   2.492   4.362   5.589
 4731TIP3    H214137   2.490   4.228   5.518
 4732TIP3   OH214138   6.031   3.880   2.351
 4732TIP3    H114139   6.081   3.879   2.433
 4732TIP3    H214140   5.956   3.937   2.369
 4733TIP3   OH214141   2.674   2.753   0.712
 4733TIP3    H114142   2.699   2.844   0.727
 4733TIP3    H214143   2.738   2.721   0.648
 4734TIP3   OH214144   7.536   4.915   6.488
 4734TIP3    H114145   7.465   4.973   6.516
 4734TIP3    H214146   7.605   4.975   6.459
 4735TIP3   OH214147   2.817   0.811   4.411
 4735TIP3    H114148   2.837   0.883   4.351
 4735TIP3    H214149   2.850   0.841   4.496
 4736TIP3   OH214150   4.663   5.449   0.232
 4736TIP3    H114151   4.746   5.493   0.248
 4736TIP3    H214152   4.634   5.482   0.147
 4737TIP3   OH214153   3.470   7.592   5.778
 4737TIP3    H114154   3.530   7.590   5.853
 4737TIP3    H214155   3.403   7.656   5.803
 4738TIP3   OH214156   3.986   5.901   4.275
 4738TIP3    H114157   4.001   5.944   4.360
 4738TIP3    H214158   3.895   5.921   4.254
 4739TIP3   OH214159   6.072   1.915   3.794
 4739TIP3    H114160   6.155   1.917   3.843
 4739TIP3    H214161   6.019   1.984   3.834
 4740TIP3   OH214162   0.347   2.746   5.585
 4740TIP3    H114163   0.353   2.839   5.564
 4740TIP3    H214164   0.369   2.701   5.504
 4741TIP3   OH214165   1.474   6.892   1.408
 4741TIP3    H114166   1.458   6.902   1.502
 4741TIP3    H214167   1.450   6.801   1.389
 4742TIP3   OH214168   4.190   6.499   3.945
 4742TIP3    H114169   4.190   6.460   3.857
 4742TIP3    H214170   4.100   6.530   3.957
 4743TIP3   OH214171   5.883   6.471   4.617
 4743TIP3    H114172   5.853   6.464   4.527
 4743TIP3    H214173   5.945   6.399   4.628
 4744TIP3   OH214174   3.707   7.030   6.660
 4744TIP3    H114175   3.685   7.109   6.709
 4744TIP3    H214176   3.768   7.060   6.592
 4745TIP3   OH214177   7.270   0.485   6.137
 4745TIP3    H114178   7.246   0.528   6.218
 4745TIP3    H214179   7.187   0.469   6.092
 4746TIP3   OH214180   6.286   7.096   5.621
 4746TIP3    H114181   6.242   7.154   5.559
 4746TIP3    H214182   6.216   7.041   5.657
 4747TIP3   OH214183   3.715   3.892   3.947
 4747TIP3    H114184   3.738   3.826   3.881
 4747TIP3    H214185   3.621   3.881   3.961
 4748TIP3   OH214186   5.207   3.733   6.600
 4748TIP3    H114187   5.272   3.727   6.670
 4748TIP3    H214188   5.137   3.788   6.637
 4749TIP3   OH214189   5.262   4.541   6.329
 4749TIP3    H114190   5.230   4.631   6.333
 4749TIP3    H214191   5.301   4.525   6.415
 4750TIP3   OH214192   4.111   0.037   5.765
 4750TIP3    H114193   4.123   0.093   5.842
 4750TIP3    H214194   4.200   0.019   5.734
 4751TIP3   OH214195   4.955   3.135   5.507
 4751TIP3    H114196   5.005   3.063   5.544
 4751TIP3    H214197   4.874   3.095   5.476
 4752TIP3   OH214198   7.698   2.149   2.366
 4752TIP3    H114199   7.708   2.244   2.374
 4752TIP3    H214200   7.622   2.137   2.309
 4753TIP3   OH214201   4.055   3.421   2.627
 4753TIP3    H114202   3.969   3.461   2.640
 4753TIP3    H214203   4.040   3.327   2.641
 4754TIP3   OH214204   7.689   5.442   1.082
 4754TIP3    H114205   7.630   5.393   1.139
 4754TIP3    H214206   7.673   5.407   0.994
 4755TIP3   OH214207   5.971   1.869   2.929
 4755TIP3    H114208   6.051   1.896   2.884
 4755TIP3    H214209   5.920   1.949   2.938
 4756TIP3   OH214210   0.410   2.929   1.683
 4756TIP3    H114211   0.430   2.846   1.726
 4756TIP3    H214212   0.326   2.956   1.719
 4757TIP3   OH214213   5.531   7.218   4.996
 4757TIP3    H114214   5.581   7.138   4.982
 4757TIP3    H214215   5.598   7.287   5.004
 4758TIP3   OH214216   6.984   6.785   6.776
 4758TIP3    H114217   7.054   6.850   6.767
 4758TIP3    H214218   6.954   6.770   6.686
 4759TIP3   OH214219   1.460   6.034   3.947
 4759TIP3    H114220   1.555   6.029   3.944
 4759TIP3    H214221   1.431   5.947   3.974
 4760TIP3   OH214222   3.300   5.220   5.280
 4760TIP3    H114223   3.208   5.194   5.274
 4760TIP3    H214224   3.308   5.254   5.369
 4761TIP3   OH214225   8.073   0.433   1.436
 4761TIP3    H114226   7.987   0.469   1.456
 4761TIP3    H214227   8.055   0.362   1.374
 4762TIP3   OH214228   8.090   2.973   1.994
 4762TIP3    H114229   8.056   3.061   2.003
 4762TIP3    H214230   8.143   2.976   1.914
 4763TIP3   OH214231   7.288   5.906   0.100
 4763TIP3    H114232   7.230   5.977   0.129
 4763TIP3    H214233   7.230   5.845   0.055
 4764TIP3   OH214234   3.207   1.917   0.620
 4764TIP3    H114235   3.241   1.965   0.696
 4764TIP3    H214236   3.280   1.862   0.592
 4765TIP3   OH214237   5.381   3.722   1.917
 4765TIP3    H114238   5.462   3.771   1.904
 4765TIP3    H214239   5.317   3.789   1.941
 4766TIP3   OH214240   4.517   6.511   3.218
 4766TIP3    H114241   4.563   6.491   3.136
 4766TIP3    H214242   4.442   6.564   3.192
 4767TIP3   OH214243   2.125   3.738   3.844
 4767TIP3    H114244   2.066   3.737   3.768
 4767TIP3    H214245   2.083   3.797   3.906
 4768TIP3   OH214246   2.669   1.381   5.929
 4768TIP3    H114247   2.647   1.472   5.948
 4768TIP3    H214248   2.634   1.365   5.841
 4769TIP3   OH214249   1.752   2.719   5.692
 4769TIP3    H114250   1.736   2.756   5.778
 4769TIP3    H214251   1.749   2.794   5.632
 4770TIP3   OH214252   2.419   3.603   4.121
 4770TIP3    H114253   2.408   3.689   4.080
 4770TIP3    H214254   2.495   3.613   4.178
 4771TIP3   OH214255   8.231   7.608   1.641
 4771TIP3    H114256   8.194   7.668   1.577
 4771TIP3    H214257   8.255   7.664   1.715
 4772TIP3   OH214258   5.461   1.781   5.459
 4772TIP3    H114259   5.525   1.729   5.410
 4772TIP3    H214260   5.420   1.837   5.393
 4773TIP3   OH214261   0.660   0.246   6.200
 4773TIP3    H114262   0.573   0.262   6.165
 4773TIP3    H214263   0.676   0.153   6.183
 4774TIP3   OH214264   6.971   1.316   3.935
 4774TIP3    H114265   6.893   1.294   3.884
 4774TIP3    H214266   6.992   1.406   3.910
 4775TIP3   OH214267   2.876   3.356   5.785
 4775TIP3    H114268   2.936   3.424   5.815
 4775TIP3    H214269   2.839   3.391   5.704
 4776TIP3   OH214270   2.482   5.635   2.863
 4776TIP3    H114271   2.503   5.702   2.797
 4776TIP3    H214272   2.388   5.643   2.876
 4777TIP3   OH214273   3.374   4.920   3.010
 4777TIP3    H114274   3.337   4.996   3.055
 4777TIP3    H214275   3.305   4.891   2.951
 4778TIP3   OH214276   5.123   6.883   2.419
 4778TIP3    H114277   5.159   6.858   2.504
 4778TIP3    H214278   5.088   6.802   2.383
 4779TIP3   OH214279   0.077   6.085   3.857
 4779TIP3    H114280   0.079   6.180   3.843
 4779TIP3    H214281  -0.010   6.068   3.892
 4780TIP3   OH214282   0.999   3.486   3.359
 4780TIP3    H114283   1.077   3.471   3.413
 4780TIP3    H214284   0.938   3.530   3.417
 4781TIP3   OH214285   6.307   4.987   4.791
 4781TIP3    H114286   6.270   5.071   4.766
 4781TIP3    H214287   6.236   4.942   4.838
 4782TIP3   OH214288   7.698   2.137   0.759
 4782TIP3    H114289   7.685   2.077   0.686
 4782TIP3    H214290   7.653   2.217   0.733
 4783TIP3   OH214291   0.632   6.341   0.620
 4783TIP3    H114292   0.697   6.355   0.690
 4783TIP3    H214293   0.561   6.293   0.663
 4784TIP3   OH214294   5.540   4.887   0.463
 4784TIP3    H114295   5.484   4.956   0.498
 4784TIP3    H214296   5.513   4.808   0.510
 4785TIP3   OH214297   1.895   5.768   0.752
 4785TIP3    H114298   1.959   5.698   0.743
 4785TIP3    H214299   1.835   5.738   0.819
 4786TIP3   OH214300   7.334   7.439   1.738
 4786TIP3    H114301   7.367   7.460   1.825
 4786TIP3    H214302   7.367   7.351   1.721
 4787TIP3   OH214303   1.994   4.285   3.673
 4787TIP3    H114304   2.060   4.334   3.624
 4787TIP3    H214305   2.001   4.196   3.640
 4788TIP3   OH214306   2.590   1.568   1.309
 4788TIP3    H114307   2.604   1.486   1.356
 4788TIP3    H214308   2.512   1.552   1.256
 4789TIP3   OH214309   5.752   3.413   2.585
 4789TIP3    H114310   5.736   3.488   2.528
 4789TIP3    H214311   5.845   3.395   2.576
 4790TIP3   OH214312   0.672   3.596   3.120
 4790TIP3    H114313   0.670   3.510   3.079
 4790TIP3    H214314   0.707   3.580   3.208
 4791TIP3   OH214315   6.988   6.684   1.742
 4791TIP3    H114316   6.932   6.745   1.791
 4791TIP3    H214317   7.069   6.733   1.727
 4792TIP3   OH214318   2.396   7.443   6.034
 4792TIP3    H114319   2.328   7.459   5.970
 4792TIP3    H214320   2.428   7.355   6.014
 4793TIP3   OH214321   4.378   7.493   3.001
 4793TIP3    H114322   4.302   7.487   2.943
 4793TIP3    H214323   4.444   7.539   2.949
 4794TIP3   OH214324   2.840   2.017   4.983
 4794TIP3    H114325   2.839   1.924   4.961
 4794TIP3    H214326   2.839   2.062   4.899
 4795TIP3   OH214327   0.665   3.519   0.064
 4795TIP3    H114328   0.574   3.540   0.087
 4795TIP3    H214329   0.705   3.603   0.045
 4796TIP3   OH214330   2.474   4.934   4.076
 4796TIP3    H114331   2.491   4.881   4.154
 4796TIP3    H214332   2.429   5.011   4.110
 4797TIP3   OH214333   7.145   4.272   4.407
 4797TIP3    H114334   7.234   4.237   4.400
 4797TIP3    H214335   7.112   4.271   4.317
 4798TIP3   OH214336   1.696   4.160   5.377
 4798TIP3    H114337   1.624   4.213   5.412
 4798TIP3    H214338   1.766   4.223   5.359
 4799TIP3   OH214339   6.449   4.611   1.750
 4799TIP3    H114340   6.482   4.696   1.778
 4799TIP3    H214341   6.354   4.618   1.758
 4800TIP3   OH214342   1.231   6.932   2.131
 4800TIP3    H114343   1.214   7.012   2.082
 4800TIP3    H214344   1.288   6.960   2.203
 4801TIP3   OH214345   3.438   7.032   0.460
 4801TIP3    H114346   3.489   7.074   0.529
 4801TIP3    H214347   3.503   7.007   0.394
 4802TIP3   OH214348   2.211   3.504   1.301
 4802TIP3    H114349   2.191   3.578   1.243
 4802TIP3    H214350   2.269   3.541   1.367
 4803TIP3   OH214351   5.119   7.486   0.302
 4803TIP3    H114352   5.036   7.457   0.262
 4803TIP3    H214353   5.095   7.565   0.351
 4804TIP3   OH214354   8.205   5.528   2.747
 4804TIP3    H114355   8.161   5.446   2.726
 4804TIP3    H214356   8.179   5.588   2.677
 4805TIP3   OH214357   4.239   3.476   2.941
 4805TIP3    H114358   4.187   3.544   2.897
 4805TIP3    H214359   4.256   3.411   2.873
 4806TIP3   OH214360   3.611   4.314   5.840
 4806TIP3    H114361   3.558   4.344   5.914
 4806TIP3    H214362   3.571   4.230   5.815
 4807TIP3   OH214363   3.565   3.206   2.768
 4807TIP3    H114364   3.560   3.291   2.725
 4807TIP3    H214365   3.606   3.148   2.703
 4808TIP3   OH214366   1.624   1.591   4.765
 4808TIP3    H114367   1.645   1.684   4.762
 4808TIP3    H214368   1.670   1.554   4.689
 4809TIP3   OH214369   0.040   0.611   5.325
 4809TIP3    H114370  -0.006   0.572   5.399
 4809TIP3    H214371   0.133   0.601   5.345
 4810TIP3   OH214372   7.934   6.148   4.095
 4810TIP3    H114373   7.963   6.183   4.179
 4810TIP3    H214374   7.848   6.111   4.111
 4811TIP3   OH214375   6.081   3.816   3.010
 4811TIP3    H114376   6.102   3.766   2.931
 4811TIP3    H214377   6.094   3.754   3.081
 4812TIP3   OH214378   7.630   6.450   5.975
 4812TIP3    H114379   7.633   6.455   6.070
 4812TIP3    H214380   7.649   6.359   5.955
 4813TIP3   OH214381   4.268   6.815   2.620
 4813TIP3    H114382   4.315   6.884   2.574
 4813TIP3    H214383   4.204   6.860   2.675
 4814TIP3   OH214384   3.904   6.451   1.580
 4814TIP3    H114385   3.949   6.480   1.659
 4814TIP3    H214386   3.834   6.393   1.611
 4815TIP3   OH214387   7.509   0.431   5.220
 4815TIP3    H114388   7.415   0.447   5.210
 4815TIP3    H214389   7.537   0.403   5.133
 4816TIP3   OH214390   1.735   6.799   5.309
 4816TIP3    H114391   1.768   6.731   5.251
 4816TIP3    H214392   1.741   6.761   5.397
 4817TIP3   OH214393   6.981   4.357   6.172
 4817TIP3    H114394   6.943   4.444   6.183
 4817TIP3    H214395   6.982   4.320   6.260
 4818TIP3   OH214396   6.687   7.761   1.250
 4818TIP3    H114397   6.701   7.678   1.205
 4818TIP3    H214398   6.609   7.798   1.209
 4819TIP3   OH214399   0.897   2.580   0.503
 4819TIP3    H114400   0.931   2.492   0.485
 4819TIP3    H214401   0.869   2.613   0.418
 4820TIP3   OH214402   1.693   5.715   5.080
 4820TIP3    H114403   1.617   5.706   5.022
 4820TIP3    H214404   1.662   5.774   5.149
 4821TIP3   OH214405   1.101   3.774   1.265
 4821TIP3    H114406   1.180   3.818   1.236
 4821TIP3    H214407   1.033   3.841   1.262
 4822TIP3   OH214408   2.902   7.184   0.522
 4822TIP3    H114409   2.957   7.213   0.595
 4822TIP3    H214410   2.813   7.185   0.558
 4823TIP3   OH214411   1.482   6.799   5.081
 4823TIP3    H114412   1.528   6.882   5.096
 4823TIP3    H214413   1.501   6.747   5.159
 4824TIP3   OH214414   1.384   1.643   4.116
 4824TIP3    H114415   1.402   1.673   4.205
 4824TIP3    H214416   1.445   1.571   4.102
 4825TIP3   OH214417   5.779   0.694   3.520
 4825TIP3    H114418   5.790   0.601   3.500
 4825TIP3    H214419   5.853   0.715   3.577
 4826TIP3   OH214420   3.600   0.124   5.913
 4826TIP3    H114421   3.693   0.123   5.935
 4826TIP3    H214422   3.574   0.215   5.922
 4827TIP3   OH214423   0.053   6.590   0.755
 4827TIP3    H114424   0.112   6.640   0.699
 4827TIP3    H214425  -0.024   6.646   0.767
 4828TIP3   OH214426   6.157   0.238   3.233
 4828TIP3    H114427   6.172   0.145   3.249
 4828TIP3    H214428   6.236   0.281   3.265
 4829TIP3   OH214429   6.394   3.606   4.832
 4829TIP3    H114430   6.454   3.639   4.765
 4829TIP3    H214431   6.427   3.641   4.914
 4830TIP3   OH214432   5.831   6.293   3.195
 4830TIP3    H114433   5.754   6.321   3.145
 4830TIP3    H214434   5.887   6.370   3.198
 4831TIP3   OH214435   6.463   4.522   4.276
 4831TIP3    H114436   6.406   4.481   4.210
 4831TIP3    H214437   6.536   4.558   4.226
 4832TIP3   OH214438   6.390   0.289   0.374
 4832TIP3    H114439   6.397   0.384   0.365
 4832TIP3    H214440   6.350   0.260   0.292
 4833TIP3   OH214441   0.629   1.669   1.514
 4833TIP3    H114442   0.652   1.673   1.421
 4833TIP3    H214443   0.613   1.576   1.531
 4834TIP3   OH214444   1.033   2.838   0.519
 4834TIP3    H114445   0.969   2.869   0.454
 4834TIP3    H214446   1.053   2.748   0.492
 4835TIP3   OH214447   7.842   5.155   0.303
 4835TIP3    H114448   7.901   5.183   0.373
 4835TIP3    H214449   7.898   5.148   0.226
 4836TIP3   OH214450   7.862   0.662   0.686
 4836TIP3    H114451   7.934   0.600   0.692
 4836TIP3    H214452   7.783   0.607   0.681
 4837TIP3   OH214453   0.451   5.567   1.296
 4837TIP3    H114454   0.417   5.647   1.256
 4837TIP3    H214455   0.469   5.509   1.221
 4838TIP3   OH214456   7.314   0.516   1.711
 4838TIP3    H114457   7.344   0.425   1.713
 4838TIP3    H214458   7.373   0.558   1.648
 4839TIP3   OH214459   0.889   6.134   2.607
 4839TIP3    H114460   0.953   6.197   2.575
 4839TIP3    H214461   0.909   6.125   2.700
 4840TIP3   OH214462   8.116   3.806   0.068
 4840TIP3    H114463   8.189   3.828   0.011
 4840TIP3    H214464   8.077   3.728   0.028
 4841TIP3   OH214465   0.875   1.949   1.609
 4841TIP3    H114466   0.947   2.004   1.640
 4841TIP3    H214467   0.909   1.908   1.529
 4842TIP3   OH214468   6.917   6.222   1.554
 4842TIP3    H114469   6.899   6.155   1.621
 4842TIP3    H214470   6.976   6.178   1.493
 4843TIP3   OH214471   7.893   0.105   6.707
 4843TIP3    H114472   7.910   0.098   6.613
 4843TIP3    H214473   7.979   0.094   6.748
 4844TIP3   OH214474   0.028   0.056   4.381
 4844TIP3    H114475   0.073   0.021   4.458
 4844TIP3    H214476   0.011   0.148   4.402
 4845TIP3   OH214477   8.238   1.417   3.200
 4845TIP3    H114478   8.305   1.458   3.146
 4845TIP3    H214479   8.285   1.382   3.275
 4846TIP3   OH214480   3.625   0.703   4.206
 4846TIP3    H114481   3.699   0.670   4.155
 4846TIP3    H214482   3.660   0.779   4.252
 4847TIP3   OH214483   2.340   0.993   6.516
 4847TIP3    H114484   2.403   1.054   6.478
 4847TIP3    H214485   2.304   0.946   6.441
 4848TIP3   OH214486   0.087   4.843   2.557
 4848TIP3    H114487   0.174   4.805   2.550
 4848TIP3    H214488   0.035   4.777   2.602
 4849TIP3   OH214489   2.143   4.491   5.842
 4849TIP3    H114490   2.220   4.444   5.872
 4849TIP3    H214491   2.095   4.512   5.922
 4850TIP3   OH214492   7.971   3.577   5.802
 4850TIP3    H114493   7.884   3.586   5.842
 4850TIP3    H214494   7.961   3.617   5.715
 4851TIP3   OH214495   5.878   0.922   0.416
 4851TIP3    H114496   5.957   0.931   0.364
 4851TIP3    H214497   5.822   0.863   0.364
 4852TIP3   OH214498   6.610   1.202   6.557
 4852TIP3    H114499   6.584   1.134   6.618
 4852TIP3    H214500   6.588   1.284   6.601
 4853TIP3   OH214501   2.078   1.803   3.794
 4853TIP3    H114502   2.036   1.783   3.877
 4853TIP3    H214503   2.147   1.737   3.786
 4854TIP3   OH214504   2.430   3.407   2.454
 4854TIP3    H114505   2.412   3.410   2.360
 4854TIP3    H214506   2.390   3.487   2.489
 4855TIP3   OH214507   2.444   6.679   4.210
 4855TIP3    H114508   2.417   6.771   4.204
 4855TIP3    H214509   2.513   6.678   4.276
 4856TIP3   OH214510   6.827   5.168   2.651
 4856TIP3    H114511   6.735   5.152   2.633
 4856TIP3    H214512   6.850   5.243   2.596
 4857TIP3   OH214513   0.455   4.727   6.677
 4857TIP3    H114514   0.386   4.742   6.613
 4857TIP3    H214515   0.451   4.804   6.735
 4858TIP3   OH214516   3.205   4.043   3.448
 4858TIP3    H114517   3.220   4.010   3.359
 4858TIP3    H214518   3.223   3.967   3.504
 4859TIP3   OH214519   4.503   5.152   0.881
 4859TIP3    H114520   4.504   5.060   0.855
 4859TIP3    H214521   4.537   5.152   0.971
 4860TIP3   OH214522   5.281   1.189   2.825
 4860TIP3    H114523   5.374   1.165   2.821
 4860TIP3    H214524   5.246   1.137   2.898
 4861TIP3   OH214525   6.202   5.036   1.477
 4861TIP3    H114526   6.181   4.944   1.493
 4861TIP3    H214527   6.296   5.042   1.497
 4862TIP3   OH214528   5.518   4.359   0.169
 4862TIP3    H114529   5.527   4.439   0.118
 4862TIP3    H214530   5.432   4.366   0.210
 4863TIP3   OH214531   4.245   7.189   2.944
 4863TIP3    H114532   4.324   7.166   2.896
 4863TIP3    H214533   4.277   7.231   3.024
 4864TIP3   OH214534   7.106   0.325   1.561
 4864TIP3    H114535   7.039   0.288   1.503
 4864TIP3    H214536   7.121   0.413   1.528
 4865TIP3   OH214537   5.937   2.008   5.698
 4865TIP3    H114538   5.902   1.925   5.727
 4865TIP3    H214539   5.932   2.065   5.775
 4866TIP3   OH214540   7.770   4.942   6.233
 4866TIP3    H114541   7.814   4.861   6.261
 4866TIP3    H214542   7.789   5.004   6.303
 4867TIP3   OH214543   4.526   5.519   3.766
 4867TIP3    H114544   4.439   5.556   3.751
 4867TIP3    H214545   4.587   5.586   3.736
 4868TIP3   OH214546   7.467   0.908   3.779
 4868TIP3    H114547   7.403   0.970   3.745
 4868TIP3    H214548   7.473   0.840   3.712
 4869TIP3   OH214549   5.304   0.339   3.010
 4869TIP3    H114550   5.290   0.408   2.946
 4869TIP3    H214551   5.218   0.327   3.052
 4870TIP3   OH214552   7.564   3.348   6.602
 4870TIP3    H114553   7.491   3.332   6.543
 4870TIP3    H214554   7.564   3.443   6.615
 4871TIP3   OH214555   3.620   5.413   5.017
 4871TIP3    H114556   3.557   5.346   5.043
 4871TIP3    H214557   3.600   5.487   5.074
 4872TIP3   OH214558   5.045   4.405   6.105
 4872TIP3    H114559   5.101   4.359   6.168
 4872TIP3    H214560   5.029   4.491   6.145
 4873TIP3   OH214561   6.430   6.368   5.838
 4873TIP3    H114562   6.377   6.301   5.795
 4873TIP3    H214563   6.513   6.367   5.791
 4874TIP3   OH214564   7.070   1.436   2.626
 4874TIP3    H114565   7.101   1.347   2.642
 4874TIP3    H214566   7.037   1.434   2.536
 4875TIP3   OH214567   4.462   7.378   1.244
 4875TIP3    H114568   4.469   7.473   1.238
 4875TIP3    H214569   4.530   7.353   1.306
 4876TIP3   OH214570   3.277   6.073   6.322
 4876TIP3    H114571   3.359   6.104   6.358
 4876TIP3    H214572   3.259   5.991   6.367
 4877TIP3   OH214573   5.207   3.616   5.111
 4877TIP3    H114574   5.162   3.683   5.059
 4877TIP3    H214575   5.158   3.612   5.193
 4878TIP3   OH214576   7.942   0.778   3.346
 4878TIP3    H114577   8.002   0.835   3.297
 4878TIP3    H214578   7.905   0.720   3.279
 4879TIP3   OH214579   7.839   0.194   5.354
 4879TIP3    H114580   7.872   0.264   5.409
 4879TIP3    H214581   7.897   0.193   5.278
 4880TIP3   OH214582   1.853   2.162   2.443
 4880TIP3    H114583   1.780   2.150   2.504
 4880TIP3    H214584   1.813   2.161   2.356
 4881TIP3   OH214585   6.529   1.085   3.287
 4881TIP3    H114586   6.592   1.082   3.214
 4881TIP3    H214587   6.515   1.178   3.303
 4882TIP3   OH214588   2.198   4.256   3.064
 4882TIP3    H114589   2.152   4.172   3.061
 4882TIP3    H214590   2.221   4.267   3.156
 4883TIP3   OH214591   2.736   3.393   5.554
 4883TIP3    H114592   2.786   3.333   5.499
 4883TIP3    H214593   2.646   3.360   5.550
 4884TIP3   OH214594   7.410   7.765   5.321
 4884TIP3    H114595   7.473   7.735   5.255
 4884TIP3    H214596   7.461   7.770   5.402
 4885TIP3   OH214597   6.225   1.905   0.799
 4885TIP3    H114598   6.191   1.859   0.875
 4885TIP3    H214599   6.320   1.903   0.810
 4886TIP3   OH214600   7.546   1.824   4.047
 4886TIP3    H114601   7.574   1.733   4.036
 4886TIP3    H214602   7.622   1.876   4.018
 4887TIP3   OH214603   7.740   0.792   6.094
 4887TIP3    H114604   7.703   0.853   6.031
 4887TIP3    H214605   7.826   0.828   6.114
 4888TIP3   OH214606   5.538   3.303   0.305
 4888TIP3    H114607   5.583   3.322   0.223
 4888TIP3    H214608   5.462   3.251   0.279
 4889TIP3   OH214609   0.648   7.061   0.120
 4889TIP3    H114610   0.678   6.997   0.056
 4889TIP3    H214611   0.676   7.027   0.204
 4890TIP3   OH214612   5.470   6.370   6.570
 4890TIP3    H114613   5.375   6.359   6.575
 4890TIP3    H214614   5.496   6.398   6.657
 4891TIP3   OH214615   8.145   3.077   4.361
 4891TIP3    H114616   8.236   3.103   4.341
 4891TIP3    H214617   8.092   3.128   4.300
 4892TIP3   OH214618   2.286   2.867   5.169
 4892TIP3    H114619   2.293   2.806   5.242
 4892TIP3    H214620   2.282   2.810   5.092
 4893TIP3   OH214621   5.083   3.954   2.543
 4893TIP3    H114622   5.035   3.892   2.488
 4893TIP3    H214623   5.156   3.982   2.489
 4894TIP3   OH214624   3.627   5.243   3.662
 4894TIP3    H114625   3.605   5.308   3.728
 4894TIP3    H214626   3.549   5.188   3.655
 4895TIP3   OH214627   5.374   4.902   6.484
 4895TIP3    H114628   5.380   4.835   6.551
 4895TIP3    H214629   5.280   4.911   6.466
 4896TIP3   OH214630   1.628   1.471   5.933
 4896TIP3    H114631   1.659   1.415   6.005
 4896TIP3    H214632   1.707   1.501   5.889
 4897TIP3   OH214633   1.419   5.358   2.712
 4897TIP3    H114634   1.393   5.279   2.760
 4897TIP3    H214635   1.506   5.337   2.677
 4898TIP3   OH214636   2.644   4.130   4.145
 4898TIP3    H114637   2.651   4.218   4.182
 4898TIP3    H214638   2.550   4.116   4.134
 4899TIP3   OH214639   6.116   5.149   6.051
 4899TIP3    H114640   6.129   5.077   6.113
 4899TIP3    H214641   6.158   5.224   6.092
 4900TIP3   OH214642   3.803   1.136   2.088
 4900TIP3    H114643   3.712   1.143   2.118
 4900TIP3    H214644   3.830   1.048   2.112
 4901TIP3   OH214645   4.283   2.575   0.959
 4901TIP3    H114646   4.201   2.526   0.962
 4901TIP3    H214647   4.345   2.517   0.916
 4902TIP3   OH214648   2.052   1.558   3.455
 4902TIP3    H114649   1.957   1.556   3.457
 4902TIP3    H214650   2.079   1.497   3.523
 4903TIP3   OH214651   5.595   2.179   6.357
 4903TIP3    H114652   5.666   2.244   6.353
 4903TIP3    H214653   5.530   2.211   6.295
 4904TIP3   OH214654   4.633   3.532   5.717
 4904TIP3    H114655   4.619   3.459   5.776
 4904TIP3    H214656   4.668   3.492   5.637
 4905TIP3   OH214657   0.186   7.501   4.775
 4905TIP3    H114658   0.120   7.484   4.843
 4905TIP3    H214659   0.163   7.443   4.703
 4906TIP3   OH214660   1.838   3.278   6.281
 4906TIP3    H114661   1.825   3.367   6.314
 4906TIP3    H214662   1.870   3.291   6.192
 4907TIP3   OH214663   7.676   4.688   4.111
 4907TIP3    H114664   7.660   4.608   4.061
 4907TIP3    H214665   7.700   4.753   4.045
 4908TIP3   OH214666   5.214   1.160   2.117
 4908TIP3    H114667   5.193   1.203   2.034
 4908TIP3    H214668   5.152   1.087   2.122
 4909TIP3   OH214669   2.332   5.298   1.775
 4909TIP3    H114670   2.358   5.208   1.753
 4909TIP3    H214671   2.399   5.327   1.837
 4910TIP3   OH214672   6.620   4.470   4.980
 4910TIP3    H114673   6.650   4.388   5.019
 4910TIP3    H214674   6.542   4.493   5.030
 4911TIP3   OH214675   2.137   2.891   4.195
 4911TIP3    H114676   2.076   2.844   4.252
 4911TIP3    H214677   2.204   2.827   4.173
 4912TIP3   OH214678   7.559   7.671   2.012
 4912TIP3    H114679   7.513   7.599   2.055
 4912TIP3    H214680   7.621   7.628   1.953
 4913TIP3   OH214681   7.562   4.249   0.548
 4913TIP3    H114682   7.533   4.271   0.636
 4913TIP3    H214683   7.493   4.281   0.491
 4914TIP3   OH214684   2.267   2.600   2.943
 4914TIP3    H114685   2.265   2.696   2.949
 4914TIP3    H214686   2.346   2.581   2.892
 4915TIP3   OH214687   2.494   1.088   4.911
 4915TIP3    H114688   2.476   1.169   4.863
 4915TIP3    H214689   2.552   1.038   4.854
 4916TIP3   OH214690   2.333   2.556   6.229
 4916TIP3    H114691   2.358   2.600   6.148
 4916TIP3    H214692   2.304   2.469   6.201
 4917TIP3   OH214693   1.176   4.334   5.124
 4917TIP3    H114694   1.202   4.422   5.096
 4917TIP3    H214695   1.210   4.276   5.056
 4918TIP3   OH214696   3.373   2.343   5.407
 4918TIP3    H114697   3.329   2.428   5.403
 4918TIP3    H214698   3.304   2.281   5.430
 4919TIP3   OH214699   7.730   0.854   6.529
 4919TIP3    H114700   7.778   0.817   6.604
 4919TIP3    H214701   7.684   0.780   6.490
 4920TIP3   OH214702   2.101   6.601   4.584
 4920TIP3    H114703   2.150   6.579   4.504
 4920TIP3    H214704   2.013   6.569   4.567
 4921TIP3   OH214705   0.458   3.796   0.783
 4921TIP3    H114706   0.510   3.804   0.863
 4921TIP3    H214707   0.522   3.775   0.715
 4922TIP3   OH214708   0.333   6.060   1.660
 4922TIP3    H114709   0.423   6.048   1.629
 4922TIP3    H214710   0.288   6.104   1.588
 4923TIP3   OH214711   6.113   3.433   0.761
 4923TIP3    H114712   6.094   3.451   0.669
 4923TIP3    H214713   6.153   3.346   0.762
 4924TIP3   OH214714   0.590   2.695   3.228
 4924TIP3    H114715   0.520   2.710   3.163
 4924TIP3    H214716   0.670   2.718   3.182
 4925TIP3   OH214717   3.406   5.148   0.382
 4925TIP3    H114718   3.356   5.204   0.442
 4925TIP3    H214719   3.479   5.203   0.354
 4926TIP3   OH214720   5.561   4.031   0.830
 4926TIP3    H114721   5.483   4.065   0.786
 4926TIP3    H214722   5.529   3.963   0.889
 4927TIP3   OH214723   4.871   5.753   2.671
 4927TIP3    H114724   4.854   5.675   2.723
 4927TIP3    H214725   4.957   5.737   2.631
 4928TIP3   OH214726   4.994   1.298   3.864
 4928TIP3    H114727   4.909   1.323   3.827
 4928TIP3    H214728   4.977   1.216   3.911
 4929TIP3   OH214729   5.997   2.400   0.445
 4929TIP3    H114730   6.051   2.474   0.473
 4929TIP3    H214731   5.996   2.341   0.520
 4930TIP3   OH214732   1.409   7.787   4.579
 4930TIP3    H114733   1.317   7.812   4.586
 4930TIP3    H214734   1.456   7.870   4.571
 4931TIP3   OH214735   5.821   4.095   5.429
 4931TIP3    H114736   5.795   4.079   5.339
 4931TIP3    H214737   5.749   4.147   5.466
 4932TIP3   OH214738   0.981   4.992   2.253
 4932TIP3    H114739   0.939   4.931   2.192
 4932TIP3    H214740   1.066   4.950   2.272
 4933TIP3   OH214741   1.875   7.497   2.895
 4933TIP3    H114742   1.959   7.528   2.928
 4933TIP3    H214743   1.879   7.402   2.904
 4934TIP3   OH214744   3.611   3.719   0.793
 4934TIP3    H114745   3.547   3.781   0.826
 4934TIP3    H214746   3.675   3.711   0.864
 4935TIP3   OH214747   0.194   3.184   4.520
 4935TIP3    H114748   0.146   3.263   4.495
 4935TIP3    H214749   0.165   3.118   4.457
 4936TIP3   OH214750   2.173   7.420   2.060
 4936TIP3    H114751   2.231   7.360   2.014
 4936TIP3    H214752   2.116   7.363   2.112
 4937TIP3   OH214753   3.572   1.913   0.205
 4937TIP3    H114754   3.555   1.958   0.288
 4937TIP3    H214755   3.647   1.959   0.168
 4938TIP3   OH214756   5.795   1.242   3.059
 4938TIP3    H114757   5.830   1.280   3.139
 4938TIP3    H214758   5.723   1.301   3.034
 4939TIP3   OH214759   8.182   3.376   1.528
 4939TIP3    H114760   8.161   3.427   1.449
 4939TIP3    H214761   8.137   3.423   1.599
 4940TIP3   OH214762   2.439   4.959   5.535
 4940TIP3    H114763   2.395   5.018   5.596
 4940TIP3    H214764   2.515   5.009   5.505
 4941TIP3   OH214765   7.600   2.536   3.022
 4941TIP3    H114766   7.600   2.558   3.115
 4941TIP3    H214767   7.693   2.540   2.996
 4942TIP3   OH214768   6.286   3.917   6.358
 4942TIP3    H114769   6.203   3.887   6.322
 4942TIP3    H214770   6.267   4.004   6.393
 4943TIP3   OH214771   3.133   6.391   3.355
 4943TIP3    H114772   3.194   6.319   3.369
 4943TIP3    H214773   3.188   6.467   3.339
 4944TIP3   OH214774   4.325   5.266   5.897
 4944TIP3    H114775   4.261   5.227   5.956
 4944TIP3    H214776   4.298   5.358   5.890
 4945TIP3   OH214777   1.944   0.199   6.219
 4945TIP3    H114778   1.877   0.185   6.151
 4945TIP3    H214779   1.929   0.128   6.282
 4946TIP3   OH214780   5.157   6.944   5.524
 4946TIP3    H114781   5.184   6.924   5.434
 4946TIP3    H214782   5.207   6.882   5.577
 4947TIP3   OH214783   2.926   4.485   6.239
 4947TIP3    H114784   2.858   4.438   6.190
 4947TIP3    H214785   2.974   4.535   6.173
 4948TIP3   OH214786   7.855   1.808   4.970
 4948TIP3    H114787   7.762   1.784   4.978
 4948TIP3    H214788   7.878   1.840   5.057
 4949TIP3   OH214789   7.213   4.796   4.996
 4949TIP3    H114790   7.302   4.819   5.022
 4949TIP3    H214791   7.222   4.758   4.908
 4950TIP3   OH214792   3.423   7.801   2.737
 4950TIP3    H114793   3.488   7.775   2.802
 4950TIP3    H214794   3.389   7.884   2.768
 4951TIP3   OH214795   3.247   2.286   1.563
 4951TIP3    H114796   3.174   2.339   1.531
 4951TIP3    H214797   3.312   2.289   1.493
 4952TIP3   OH214798   3.328   3.998   5.439
 4952TIP3    H114799   3.393   4.062   5.470
 4952TIP3    H214800   3.366   3.913   5.460
 4953TIP3   OH214801   5.873   6.111   0.079
 4953TIP3    H114802   5.808   6.068   0.134
 4953TIP3    H214803   5.895   6.191   0.127
 4954TIP3   OH214804   2.415   7.825   1.855
 4954TIP3    H114805   2.391   7.889   1.788
 4954TIP3    H214806   2.492   7.781   1.819
 4955TIP3   OH214807   4.216   3.009   4.817
 4955TIP3    H114808   4.132   2.999   4.862
 4955TIP3    H214809   4.281   2.979   4.880
 4956TIP3   OH214810   0.735   5.263   1.426
 4956TIP3    H114811   0.744   5.202   1.499
 4956TIP3    H214812   0.677   5.217   1.364
 4957TIP3   OH214813   7.705   3.062   4.134
 4957TIP3    H114814   7.743   3.013   4.060
 4957TIP3    H214815   7.773   3.126   4.157
 4958TIP3   OH214816   2.099   6.948   5.051
 4958TIP3    H114817   2.067   6.924   4.964
 4958TIP3    H214818   2.173   6.888   5.066
 4959TIP3   OH214819   0.912   5.805   6.747
 4959TIP3    H114820   0.846   5.766   6.690
 4959TIP3    H214821   0.861   5.852   6.813
 4960TIP3   OH214822   0.516   0.512   5.195
 4960TIP3    H114823   0.520   0.483   5.104
 4960TIP3    H214824   0.475   0.598   5.190
 4961TIP3   OH214825   2.912   4.093   2.515
 4961TIP3    H114826   2.988   4.132   2.473
 4961TIP3    H214827   2.935   4.001   2.524
 4962TIP3   OH214828   5.803   7.024   5.128
 4962TIP3    H114829   5.868   7.050   5.064
 4962TIP3    H214830   5.788   6.931   5.111
 4963TIP3   OH214831   7.003   5.261   5.779
 4963TIP3    H114832   6.954   5.196   5.728
 4963TIP3    H214833   6.935   5.316   5.819
 4964TIP3   OH214834   3.700   5.085   4.086
 4964TIP3    H114835   3.630   5.027   4.057
 4964TIP3    H214836   3.703   5.074   4.181
 4965TIP3   OH214837   7.001   5.509   3.816
 4965TIP3    H114838   7.071   5.575   3.810
 4965TIP3    H214839   6.962   5.509   3.729
 4966TIP3   OH214840   7.244   3.718   5.042
 4966TIP3    H114841   7.321   3.692   4.991
 4966TIP3    H214842   7.208   3.792   4.995
 4967TIP3   OH214843   3.134   3.419   1.177
 4967TIP3    H114844   3.194   3.488   1.150
 4967TIP3    H214845   3.047   3.456   1.162
 4968TIP3   OH214846   1.884   4.675   2.835
 4968TIP3    H114847   1.949   4.729   2.880
 4968TIP3    H214848   1.856   4.611   2.900
 4969TIP3   OH214849   1.551   3.843   5.667
 4969TIP3    H114850   1.456   3.852   5.672
 4969TIP3    H214851   1.568   3.812   5.578
 4970TIP3   OH214852   0.318   2.721   4.441
 4970TIP3    H114853   0.360   2.703   4.357
 4970TIP3    H214854   0.243   2.662   4.444
 4971TIP3   OH214855   2.060   6.968   4.191
 4971TIP3    H114856   2.067   7.032   4.262
 4971TIP3    H214857   2.070   6.883   4.234
 4972TIP3   OH214858   1.640   0.797   0.319
 4972TIP3    H114859   1.715   0.852   0.338
 4972TIP3    H214860   1.641   0.730   0.387
 4973TIP3   OH214861   5.272   6.140   3.741
 4973TIP3    H114862   5.315   6.202   3.682
 4973TIP3    H214863   5.192   6.114   3.695
 4974TIP3   OH214864   3.518   3.459   2.683
 4974TIP3    H114865   3.487   3.548   2.703
 4974TIP3    H214866   3.502   3.448   2.590
 4975TIP3   OH214867   5.643   1.831   0.457
 4975TIP3    H114868   5.604   1.782   0.529
 4975TIP3    H214869   5.731   1.794   0.448
 4976TIP3   OH214870   5.233   4.108   0.403
 4976TIP3    H114871   5.327   4.107   0.388
 4976TIP3    H214872   5.195   4.075   0.322
 4977TIP3   OH214873   1.542   2.542   6.390
 4977TIP3    H114874   1.554   2.637   6.383
 4977TIP3    H214875   1.624   2.505   6.359
 4978TIP3   OH214876   3.873   3.859   0.351
 4978TIP3    H114877   3.822   3.843   0.431
 4978TIP3    H214878   3.808   3.890   0.287
 4979TIP3   OH214879   4.699   1.099   5.777
 4979TIP3    H114880   4.777   1.112   5.830
 4979TIP3    H214881   4.688   1.004   5.772
 4980TIP3   OH214882   1.240   1.915   4.161
 4980TIP3    H114883   1.239   1.992   4.104
 4980TIP3    H214884   1.332   1.905   4.186
 4981TIP3   OH214885   6.511   0.548   1.600
 4981TIP3    H114886   6.534   0.520   1.689
 4981TIP3    H214887   6.586   0.600   1.572
 4982TIP3   OH214888   0.200   2.689   4.888
 4982TIP3    H114889   0.285   2.676   4.847
 4982TIP3    H214890   0.142   2.713   4.816
 4983TIP3   OH214891   5.501   5.450   2.528
 4983TIP3    H114892   5.409   5.425   2.522
 4983TIP3    H214893   5.500   5.544   2.546
 4984TIP3   OH214894   2.231   6.140   6.272
 4984TIP3    H114895   2.300   6.147   6.206
 4984TIP3    H214896   2.202   6.049   6.268
 4985TIP3   OH214897   7.122   5.910   5.665
 4985TIP3    H114898   7.205   5.905   5.618
 4985TIP3    H214899   7.109   5.821   5.700
 4986TIP3   OH214900   2.923   3.060   0.680
 4986TIP3    H114901   3.017   3.053   0.664
 4986TIP3    H214902   2.916   3.069   0.775
 4987TIP3   OH214903   1.338   0.881   5.218
 4987TIP3    H114904   1.328   0.957   5.275
 4987TIP3    H214905   1.317   0.915   5.130
 4988TIP3   OH214906   3.550   3.213   0.693
 4988TIP3    H114907   3.463   3.185   0.662
 4988TIP3    H214908   3.535   3.300   0.730
 4989TIP3   OH214909   2.629   7.072   6.445
 4989TIP3    H114910   2.582   7.000   6.404
 4989TIP3    H214911   2.678   7.112   6.373
 4990TIP3   OH214912   5.498   0.626   5.850
 4990TIP3    H114913   5.410   0.662   5.838
 4990TIP3    H214914   5.556   0.693   5.815
 4991TIP3   OH214915   4.034   3.585   4.503
 4991TIP3    H114916   4.057   3.633   4.423
 4991TIP3    H214917   4.083   3.503   4.497
 4992TIP3   OH214918   5.217   4.412   4.326
 4992TIP3    H114919   5.295   4.397   4.272
 4992TIP3    H214920   5.186   4.324   4.348
 4993TIP3   OH214921   7.175   3.791   4.558
 4993TIP3    H114922   7.108   3.858   4.552
 4993TIP3    H214923   7.142   3.719   4.505
 4994TIP3   OH214924   0.643   4.056   5.684
 4994TIP3    H114925   0.738   4.068   5.691
 4994TIP3    H214926   0.620   4.095   5.600
 4995TIP3   OH214927   2.774   2.595   0.008
 4995TIP3    H114928   2.795   2.570   0.098
 4995TIP3    H214929   2.858   2.621  -0.030
 4996TIP3   OH214930   3.389   0.008   1.487
 4996TIP3    H114931   3.432  -0.053   1.427
 4996TIP3    H214932   3.457   0.071   1.510
 4997TIP3   OH214933   2.099   3.457   5.504
 4997TIP3    H114934   2.170   3.515   5.477
 4997TIP3    H214935   2.094   3.391   5.435
 4998TIP3   OH214936  -0.025   3.957   3.197
 4998TIP3    H114937  -0.041   4.046   3.227
 4998TIP3    H214938   0.070   3.950   3.193
 4999TIP3   OH214939   1.101   6.416   6.188
 4999TIP3    H114940   1.070   6.490   6.136
 4999TIP3    H214941   1.119   6.347   6.123
 5000TIP3   OH214942   2.304   2.054   1.592
 5000TIP3    H114943   2.386   2.006   1.605
 5000TIP3    H214944   2.261   2.054   1.677
 5001TIP3   OH214945   4.581   0.117   5.193
 5001TIP3    H114946   4.588   0.024   5.218
 5001TIP3    H214947   4.663   0.134   5.147
 5002TIP3   OH214948   7.680   0.583   4.056
 5002TIP3    H114949   7.644   0.671   4.050
 5002TIP3    H214950   7.734   0.573   3.977
 5003TIP3   OH214951   1.955   3.997   0.509
 5003TIP3    H114952   1.965   4.090   0.488
 5003TIP3    H214953   2.034   3.956   0.473
 5004TIP3   OH214954   2.876   2.998   5.172
 5004TIP3    H114955   2.838   3.009   5.085
 5004TIP3    H214956   2.804   2.969   5.227
 5005TIP3   OH214957   7.336   1.728   1.850
 5005TIP3    H114958   7.253   1.685   1.871
 5005TIP3    H214959   7.366   1.685   1.770
 5006TIP3   OH214960   2.230   1.642   1.695
 5006TIP3    H114961   2.161   1.707   1.704
 5006TIP3    H214962   2.288   1.659   1.770
 5007TIP3   OH214963   2.926   0.328   1.153
 5007TIP3    H114964   3.005   0.377   1.176
 5007TIP3    H214965   2.903   0.281   1.233
 5008TIP3   OH214966   2.411   7.329   4.142
 5008TIP3    H114967   2.371   7.392   4.202
 5008TIP3    H214968   2.338   7.279   4.107
 5009TIP3   OH214969   0.731   0.023   5.807
 5009TIP3    H114970   0.654   0.072   5.777
 5009TIP3    H214971   0.756  -0.031   5.732
 5010TIP3   OH214972   7.673   3.342   5.082
 5010TIP3    H114973   7.584   3.312   5.102
 5010TIP3    H214974   7.661   3.434   5.057
 5011TIP3   OH214975   0.404   2.441   5.098
 5011TIP3    H114976   0.438   2.356   5.126
 5011TIP3    H214977   0.478   2.484   5.055
 5012TIP3   OH214978   0.954   3.895   6.655
 5012TIP3    H114979   1.046   3.910   6.679
 5012TIP3    H214980   0.916   3.983   6.648
 5013TIP3   OH214981   3.220   1.946   3.477
 5013TIP3    H114982   3.217   1.858   3.440
 5013TIP3    H214983   3.133   1.960   3.514
 5014TIP3   OH214984   5.482   0.546   0.449
 5014TIP3    H114985   5.555   0.602   0.475
 5014TIP3    H214986   5.471   0.562   0.356
 5015TIP3   OH214987   1.268   1.458   4.871
 5015TIP3    H114988   1.345   1.406   4.897
 5015TIP3    H214989   1.293   1.548   4.890
 5016TIP3   OH214990   4.191   0.691   5.155
 5016TIP3    H114991   4.117   0.727   5.204
 5016TIP3    H214992   4.266   0.706   5.213
 5017TIP3   OH214993   7.239   4.856   2.963
 5017TIP3    H114994   7.156   4.819   2.993
 5017TIP3    H214995   7.272   4.906   3.037
 5018TIP3   OH214996   3.855   7.259   1.594
 5018TIP3    H114997   3.787   7.192   1.588
 5018TIP3    H214998   3.937   7.210   1.588
 5019TIP3   OH214999   2.404   4.343   5.821
 5019TIP3    H115000   2.453   4.265   5.849
 5019TIP3    H215001   2.472   4.408   5.804
 5020TIP3   OH215002   3.792   3.923   5.598
 5020TIP3    H115003   3.711   3.872   5.595
 5020TIP3    H215004   3.818   3.919   5.690
 5021TIP3   OH215005   0.497   1.631   4.703
 5021TIP3    H115006   0.512   1.704   4.764
 5021TIP3    H215007   0.584   1.597   4.684
 5022TIP3   OH215008   1.085   5.368   4.992
 5022TIP3    H115009   1.128   5.339   4.912
 5022TIP3    H215010   1.019   5.431   4.963
 5023TIP3   OH215011   1.561   6.241   3.061
 5023TIP3    H115012   1.586   6.154   3.030
 5023TIP3    H215013   1.636   6.272   3.110
 5024TIP3   OH215014   5.968   0.688   5.706
 5024TIP3    H115015   6.020   0.667   5.628
 5024TIP3    H215016   5.916   0.764   5.680
 5025TIP3   OH215017   5.070   5.697   1.167
 5025TIP3    H115018   5.123   5.740   1.100
 5025TIP3    H215019   5.002   5.650   1.117
 5026TIP3   OH215020   1.057   6.122   1.506
 5026TIP3    H115021   1.063   6.184   1.578
 5026TIP3    H215022   1.139   6.134   1.457
 5027TIP3   OH215023   2.482   1.454   0.590
 5027TIP3    H115024   2.497   1.512   0.516
 5027TIP3    H215025   2.553   1.473   0.651
 5028TIP3   OH215026   0.932   2.497   3.371
 5028TIP3    H115027   0.940   2.560   3.300
 5028TIP3    H215028   0.946   2.411   3.330
 5029TIP3   OH215029   3.215   7.366   4.741
 5029TIP3    H115030   3.140   7.419   4.769
 5029TIP3    H215031   3.246   7.410   4.662
 5030TIP3   OH215032   2.150   1.275   6.077
 5030TIP3    H115033   2.245   1.273   6.088
 5030TIP3    H215034   2.126   1.184   6.060
 5031TIP3   OH215035   5.562   3.657   2.162
 5031TIP3    H115036   5.498   3.614   2.106
 5031TIP3    H215037   5.642   3.661   2.109
 5032TIP3   OH215038   3.301   6.510   3.568
 5032TIP3    H115039   3.325   6.422   3.596
 5032TIP3    H215040   3.217   6.526   3.611
 5033TIP3   OH215041   0.563   3.240   6.305
 5033TIP3    H115042   0.516   3.273   6.228
 5033TIP3    H215043   0.614   3.315   6.336
 5034TIP3   OH215044   2.658   0.965   2.813
 5034TIP3    H115045   2.708   0.892   2.776
 5034TIP3    H215046   2.568   0.949   2.784
 5035TIP3   OH215047   4.700   3.354   0.044
 5035TIP3    H115048   4.655   3.363   0.128
 5035TIP3    H215049   4.757   3.432   0.039
 5036TIP3   OH215050   0.999   5.550   6.584
 5036TIP3    H115051   0.929   5.491   6.610
 5036TIP3    H215052   0.957   5.611   6.523
 5037TIP3   OH215053   4.508   6.086   1.750
 5037TIP3    H115054   4.434   6.047   1.704
 5037TIP3    H215055   4.570   6.013   1.761
 5038TIP3   OH215056   7.538   0.342   0.522
 5038TIP3    H115057   7.559   0.420   0.469
 5038TIP3    H215058   7.445   0.326   0.504
 5039TIP3   OH215059   2.494   4.759   4.606
 5039TIP3    H115060   2.577   4.719   4.632
 5039TIP3    H215061   2.466   4.807   4.683
 5040TIP3   OH215062   1.781   0.552   0.185
 5040TIP3    H115063   1.760   0.493   0.113
 5040TIP3    H215064   1.770   0.498   0.264
 5041TIP3   OH215065   7.182   1.820   1.250
 5041TIP3    H115066   7.166   1.833   1.343
 5041TIP3    H215067   7.205   1.907   1.217
 5042TIP3   OH215068   3.348   2.705   2.872
 5042TIP3    H115069   3.426   2.759   2.863
 5042TIP3    H215070   3.328   2.676   2.782
 5043TIP3   OH215071   5.565   5.792   4.049
 5043TIP3    H115072   5.583   5.853   4.121
 5043TIP3    H215073   5.517   5.845   3.985
 5044TIP3   OH215074   7.601   0.367   4.247
 5044TIP3    H115075   7.519   0.345   4.202
 5044TIP3    H215076   7.586   0.341   4.338
 5045TIP3   OH215077   2.897   3.407   4.853
 5045TIP3    H115078   2.898   3.370   4.941
 5045TIP3    H215079   2.859   3.494   4.864
 5046TIP3   OH215080   7.738   0.794   1.471
 5046TIP3    H115081   7.798   0.748   1.531
 5046TIP3    H215082   7.776   0.780   1.384
 5047TIP3   OH215083   6.171   1.481   6.086
 5047TIP3    H115084   6.130   1.414   6.031
 5047TIP3    H215085   6.264   1.477   6.063
 5048TIP3   OH215086   6.297   2.218   3.835
 5048TIP3    H115087   6.357   2.155   3.795
 5048TIP3    H215088   6.350   2.297   3.848
 5049TIP3   OH215089   0.887   6.921   4.239
 5049TIP3    H115090   0.803   6.935   4.283
 5049TIP3    H215091   0.931   7.005   4.243
 5050TIP3   OH215092   0.031   5.715   6.207
 5050TIP3    H115093  -0.023   5.692   6.131
 5050TIP3    H215094   0.048   5.809   6.197
 5051TIP3   OH215095   1.925   7.217   3.345
 5051TIP3    H115096   1.882   7.154   3.286
 5051TIP3    H215097   2.017   7.213   3.320
 5052TIP3   OH215098   0.055   1.008   2.502
 5052TIP3    H115099   0.124   1.047   2.556
 5052TIP3    H215100   0.092   1.004   2.414
 5053TIP3   OH215101   0.896   6.289   0.223
 5053TIP3    H115102   0.820   6.343   0.242
 5053TIP3    H215103   0.962   6.350   0.191
 5054TIP3   OH215104   7.221   7.129   4.547
 5054TIP3    H115105   7.181   7.159   4.628
 5054TIP3    H215106   7.152   7.138   4.481
 5055TIP3   OH215107   7.831   0.573   3.825
 5055TIP3    H115108   7.918   0.533   3.828
 5055TIP3    H215109   7.839   0.642   3.760
 5056TIP3   OH215110   1.119   6.923   0.053
 5056TIP3    H115111   1.158   7.004   0.019
 5056TIP3    H215112   1.192   6.874   0.090
 5057TIP3   OH215113   6.006   0.164   4.773
 5057TIP3    H115114   5.911   0.165   4.766
 5057TIP3    H215115   6.032   0.083   4.728
 5058TIP3   OH215116   7.497   3.637   6.645
 5058TIP3    H115117   7.475   3.684   6.564
 5058TIP3    H215118   7.495   3.704   6.713
 5059TIP3   OH215119   7.053   7.014   1.468
 5059TIP3    H115120   7.135   7.037   1.512
 5059TIP3    H215121   7.053   6.919   1.465
 5060TIP3   OH215122   5.228   2.181   3.793
 5060TIP3    H115123   5.315   2.164   3.757
 5060TIP3    H215124   5.238   2.169   3.887
 5061TIP3   OH215125   2.804   7.472   6.539
 5061TIP3    H115126   2.840   7.394   6.582
 5061TIP3    H215127   2.857   7.481   6.460
 5062TIP3   OH215128   5.387   6.708   3.458
 5062TIP3    H115129   5.376   6.788   3.508
 5062TIP3    H215130   5.473   6.675   3.484
 5063TIP3   OH215131   7.096   2.331   5.191
 5063TIP3    H115132   7.030   2.275   5.150
 5063TIP3    H215133   7.180   2.293   5.164
 5064TIP3   OH215134   0.540   2.249   3.425
 5064TIP3    H115135   0.499   2.208   3.349
 5064TIP3    H215136   0.523   2.342   3.416
 5065TIP3   OH215137   5.796   0.667   0.320
 5065TIP3    H115138   5.770   0.600   0.257
 5065TIP3    H215139   5.813   0.618   0.401
 5066TIP3   OH215140   7.561   5.404   4.300
 5066TIP3    H115141   7.584   5.341   4.369
 5066TIP3    H215142   7.539   5.484   4.347
 5067TIP3   OH215143   3.357   0.478   5.611
 5067TIP3    H115144   3.404   0.438   5.538
 5067TIP3    H215145   3.333   0.565   5.579
 5068TIP3   OH215146   6.570   6.644   5.388
 5068TIP3    H115147   6.642   6.581   5.391
 5068TIP3    H215148   6.571   6.679   5.299
 5069TIP3   OH215149   6.893   5.995   2.857
 5069TIP3    H115150   6.982   6.005   2.824
 5069TIP3    H215151   6.851   6.079   2.838
 5070TIP3   OH215152   2.828   1.377   3.461
 5070TIP3    H115153   2.904   1.419   3.421
 5070TIP3    H215154   2.833   1.402   3.554
 5071TIP3   OH215155   6.733   5.453   0.884
 5071TIP3    H115156   6.666   5.442   0.952
 5071TIP3    H215157   6.816   5.436   0.929
 5072TIP3   OH215158   3.399   7.856   2.472
 5072TIP3    H115159   3.408   7.791   2.541
 5072TIP3    H215160   3.305   7.858   2.453
 5073TIP3   OH215161   7.037   5.147   6.410
 5073TIP3    H115162   7.093   5.195   6.349
 5073TIP3    H215163   7.046   5.194   6.493
 5074TIP3   OH215164   3.058   2.022   3.869
 5074TIP3    H115165   3.003   2.062   3.937
 5074TIP3    H215166   3.140   2.072   3.872
 5075TIP3   OH215167   3.392   5.640   0.855
 5075TIP3    H115168   3.413   5.560   0.807
 5075TIP3    H215169   3.469   5.656   0.910
 5076TIP3   OH215170   3.833   5.486   2.393
 5076TIP3    H115171   3.888   5.482   2.472
 5076TIP3    H215172   3.760   5.427   2.411
 5077TIP3   OH215173   6.830   2.361   6.524
 5077TIP3    H115174   6.771   2.409   6.465
 5077TIP3    H215175   6.821   2.270   6.499
 5078TIP3   OH215176   3.928   1.412   0.537
 5078TIP3    H115177   3.935   1.425   0.442
 5078TIP3    H215178   4.017   1.425   0.570
 5079TIP3   OH215179   6.617   4.083   3.931
 5079TIP3    H115180   6.691   4.026   3.910
 5079TIP3    H215181   6.636   4.116   4.018
 5080TIP3   OH215182   6.723   6.491   3.697
 5080TIP3    H115183   6.736   6.402   3.729
 5080TIP3    H215184   6.766   6.493   3.612
 5081TIP3   OH215185   6.676   1.910   6.733
 5081TIP3    H115186   6.606   1.864   6.686
 5081TIP3    H215187   6.630   1.975   6.786
 5082TIP3   OH215188   3.270   1.987   5.186
 5082TIP3    H115189   3.351   1.980   5.237
 5082TIP3    H215190   3.215   1.916   5.219
 5083TIP3   OH215191   7.148   3.103   3.607
 5083TIP3    H115192   7.101   3.167   3.553
 5083TIP3    H215193   7.208   3.155   3.660
 5084TIP3   OH215194   7.393   7.708   0.719
 5084TIP3    H115195   7.453   7.725   0.792
 5084TIP3    H215196   7.338   7.786   0.714
 5085TIP3   OH215197   7.545   2.594   1.203
 5085TIP3    H115198   7.530   2.533   1.131
 5085TIP3    H215199   7.640   2.607   1.204
 5086TIP3   OH215200   4.709   2.471   1.727
 5086TIP3    H115201   4.617   2.448   1.742
 5086TIP3    H215202   4.714   2.565   1.747
 5087TIP3   OH215203   5.120   2.341   0.661
 5087TIP3    H115204   5.210   2.354   0.691
 5087TIP3    H215205   5.066   2.380   0.730
 5088TIP3   OH215206   6.277   1.847   1.685
 5088TIP3    H115207   6.244   1.929   1.647
 5088TIP3    H215208   6.203   1.787   1.681
 5089TIP3   OH215209   5.966   5.424   5.893
 5089TIP3    H115210   5.924   5.338   5.900
 5089TIP3    H215211   5.902   5.477   5.845
 5090TIP3   OH215212   0.136   4.438   6.024
 5090TIP3    H115213   0.177   4.427   5.939
 5090TIP3    H215214   0.068   4.504   6.010
 5091TIP3   OH215215   1.596   6.896   2.100
 5091TIP3    H115216   1.605   6.988   2.076
 5091TIP3    H215217   1.537   6.896   2.176
 5092TIP3   OH215218   2.331   3.459   5.155
 5092TIP3    H115219   2.264   3.391   5.164
 5092TIP3    H215220   2.285   3.541   5.173
 5093TIP3   OH215221   3.002   7.797   2.016
 5093TIP3    H115222   3.078   7.855   2.024
 5093TIP3    H215223   2.935   7.851   1.973
 5094TIP3   OH215224   5.071   1.071   6.378
 5094TIP3    H115225   5.127   1.136   6.422
 5094TIP3    H215226   5.125   0.992   6.375
 5095TIP3   OH215227   0.041   2.635   3.058
 5095TIP3    H115228   0.079   2.651   2.972
 5095TIP3    H215229   0.106   2.580   3.103
 5096TIP3   OH215230   2.633   5.060   6.594
 5096TIP3    H115231   2.718   5.036   6.632
 5096TIP3    H215232   2.608   4.983   6.542
 5097TIP3   OH215233   3.227   2.832   3.639
 5097TIP3    H115234   3.312   2.833   3.596
 5097TIP3    H215235   3.196   2.923   3.633
 5098TIP3   OH215236   5.004   3.059   2.169
 5098TIP3    H115237   5.021   3.024   2.081
 5098TIP3    H215238   4.944   2.997   2.209
 5099TIP3   OH215239   3.558   5.493   6.399
 5099TIP3    H115240   3.574   5.524   6.488
 5099TIP3    H215241   3.491   5.553   6.365
 5100TIP3   OH215242   4.484   0.638   2.938
 5100TIP3    H115243   4.514   0.716   2.891
 5100TIP3    H215244   4.532   0.566   2.897
 5101TIP3   OH215245   3.222   2.549   3.964
 5101TIP3    H115246   3.302   2.545   3.913
 5101TIP3    H215247   3.155   2.579   3.901
 5102TIP3   OH215248   6.244   1.403   2.110
 5102TIP3    H115249   6.175   1.439   2.167
 5102TIP3    H215250   6.202   1.396   2.024
 5103TIP3   OH215251   7.729   0.467   5.613
 5103TIP3    H115252   7.822   0.466   5.592
 5103TIP3    H215253   7.721   0.410   5.690
 5104TIP3   OH215254   2.671   3.637   3.116
 5104TIP3    H115255   2.676   3.588   3.034
 5104TIP3    H215256   2.601   3.701   3.101
 5105TIP3   OH215257   1.982   4.534   0.627
 5105TIP3    H115258   2.016   4.468   0.687
 5105TIP3    H215259   2.006   4.503   0.540
 5106TIP3   OH215260   6.846   3.941   0.416
 5106TIP3    H115261   6.825   3.999   0.343
 5106TIP3    H215262   6.892   3.998   0.479
 5107TIP3   OH215263   5.067   2.987   1.918
 5107TIP3    H115264   5.092   3.073   1.884
 5107TIP3    H215265   5.068   2.930   1.841
 5108TIP3   OH215266   1.645   0.037   4.704
 5108TIP3    H115267   1.739   0.026   4.717
 5108TIP3    H215268   1.631   0.018   4.611
 5109TIP3   OH215269   4.245   3.221   1.560
 5109TIP3    H115270   4.150   3.221   1.557
 5109TIP3    H215271   4.267   3.280   1.632
 5110TIP3   OH215272   1.530   3.489   2.382
 5110TIP3    H115273   1.614   3.475   2.426
 5110TIP3    H215274   1.470   3.511   2.452
 5111TIP3   OH215275   1.306   7.649   2.487
 5111TIP3    H115276   1.265   7.709   2.549
 5111TIP3    H215277   1.373   7.604   2.538
 5112TIP3   OH215278   2.061   4.836   3.000
 5112TIP3    H115279   2.122   4.895   3.045
 5112TIP3    H215280   2.019   4.786   3.070
 5113TIP3   OH215281   3.311   5.779   1.992
 5113TIP3    H115282   3.355   5.700   2.025
 5113TIP3    H215283   3.252   5.747   1.924
 5114TIP3   OH215284   6.183   0.422   6.229
 5114TIP3    H115285   6.154   0.385   6.312
 5114TIP3    H215286   6.253   0.364   6.199
 5115TIP3   OH215287   2.899   7.237   1.855
 5115TIP3    H115288   2.888   7.295   1.780
 5115TIP3    H215289   2.993   7.233   1.869
 5116TIP3   OH215290   0.933   1.341   2.661
 5116TIP3    H115291   0.902   1.318   2.573
 5116TIP3    H215292   1.027   1.354   2.650
 5117TIP3   OH215293   3.301   7.364   1.411
 5117TIP3    H115294   3.357   7.289   1.428
 5117TIP3    H215295   3.292   7.407   1.496
 5118TIP3   OH215296   4.830   5.973   5.579
 5118TIP3    H115297   4.743   5.979   5.541
 5118TIP3    H215298   4.818   5.922   5.660
 5119TIP3   OH215299   2.622   3.758   4.249
 5119TIP3    H115300   2.560   3.831   4.255
 5119TIP3    H215301   2.708   3.799   4.261
 5120TIP3   OH215302   2.135   6.063   2.636
 5120TIP3    H115303   2.047   6.037   2.606
 5120TIP3    H215304   2.134   6.159   2.629
 5121TIP3   OH215305   0.358   4.544   6.442
 5121TIP3    H115306   0.314   4.587   6.368
 5121TIP3    H215307   0.448   4.577   6.438
 5122TIP3   OH215308   3.960   5.544   4.072
 5122TIP3    H115309   3.888   5.481   4.072
 5122TIP3    H215310   3.996   5.541   4.160
 5123TIP3   OH215311   8.044   2.312   6.657
 5123TIP3    H115312   7.954   2.325   6.627
 5123TIP3    H215313   8.055   2.375   6.728
 5124TIP3   OH215314   1.770   0.765   0.986
 5124TIP3    H115315   1.728   0.839   1.029
 5124TIP3    H215316   1.698   0.710   0.955
 5125TIP3   OH215317   7.872   0.333   6.384
 5125TIP3    H115318   7.917   0.248   6.376
 5125TIP3    H215319   7.941   0.397   6.366
 5126TIP3   OH215320   0.771   1.680   2.414
 5126TIP3    H115321   0.793   1.674   2.507
 5126TIP3    H215322   0.816   1.759   2.383
 5127TIP3   OH215323   7.615   7.637   3.212
 5127TIP3    H115324   7.709   7.634   3.195
 5127TIP3    H215325   7.607   7.690   3.292
 5128TIP3   OH215326   1.092   3.404   6.752
 5128TIP3    H115327   1.029   3.475   6.762
 5128TIP3    H215328   1.155   3.436   6.688
 5129TIP3   OH215329   5.689   0.230   2.331
 5129TIP3    H115330   5.735   0.238   2.248
 5129TIP3    H215331   5.655   0.318   2.348
 5130TIP3   OH215332   6.668   1.366   1.785
 5130TIP3    H115333   6.590   1.327   1.826
 5130TIP3    H215334   6.633   1.435   1.729
 5131TIP3   OH215335   1.875   3.254   4.952
 5131TIP3    H115336   1.835   3.339   4.934
 5131TIP3    H215337   1.813   3.209   5.008
 5132TIP3   OH215338   1.042   3.618   6.068
 5132TIP3    H115339   1.049   3.712   6.047
 5132TIP3    H215340   1.059   3.574   5.985
 5133TIP3   OH215341   2.286   4.447   1.370
 5133TIP3    H115342   2.237   4.370   1.342
 5133TIP3    H215343   2.219   4.514   1.389
 5134TIP3   OH215344   3.978   3.519   0.889
 5134TIP3    H115345   3.929   3.486   0.814
 5134TIP3    H215346   4.064   3.541   0.853
 5135TIP3   OH215347   5.541   5.803   6.736
 5135TIP3    H115348   5.568   5.894   6.748
 5135TIP3    H215349   5.476   5.788   6.804
 5136TIP3   OH215350   0.898   4.395   2.714
 5136TIP3    H115351   0.845   4.474   2.700
 5136TIP3    H215352   0.944   4.382   2.631
 5137TIP3   OH215353   3.995   7.137   0.109
 5137TIP3    H115354   4.081   7.138   0.066
 5137TIP3    H215355   3.946   7.207   0.066
 5138TIP3   OH215356   7.690   7.810   0.293
 5138TIP3    H115357   7.642   7.760   0.227
 5138TIP3    H215358   7.774   7.830   0.253
 5139TIP3   OH215359   7.127   3.582   1.816
 5139TIP3    H115360   7.078   3.502   1.795
 5139TIP3    H215361   7.218   3.560   1.793
 5140TIP3   OH215362   7.065   1.734   6.008
 5140TIP3    H115363   7.012   1.793   6.061
 5140TIP3    H215364   7.152   1.740   6.046
 5141TIP3   OH215365   7.949   7.209   4.367
 5141TIP3    H115366   7.859   7.208   4.399
 5141TIP3    H215367   7.995   7.146   4.422
 5142TIP3   OH215368   3.013   1.098   3.208
 5142TIP3    H115369   3.042   1.142   3.127
 5142TIP3    H215370   2.920   1.081   3.194
 5143TIP3   OH215371   3.158   3.995   3.740
 5143TIP3    H115372   3.081   4.018   3.688
 5143TIP3    H215373   3.202   3.928   3.690
 5144TIP3   OH215374   3.887   4.035   4.431
 5144TIP3    H115375   3.946   3.990   4.491
 5144TIP3    H215376   3.847   3.965   4.379
 5145TIP3   OH215377   5.806   6.549   1.951
 5145TIP3    H115378   5.721   6.505   1.945
 5145TIP3    H215379   5.803   6.618   1.885
 5146TIP3   OH215380   6.132   0.422   6.550
 5146TIP3    H115381   6.073   0.473   6.495
 5146TIP3    H215382   6.123   0.333   6.518
 5147TIP3   OH215383   3.560   5.941   4.512
 5147TIP3    H115384   3.559   5.923   4.606
 5147TIP3    H215385   3.628   5.884   4.478
 5148TIP3   OH215386   1.959   4.751   3.695
 5148TIP3    H115387   1.919   4.745   3.608
 5148TIP3    H215388   2.016   4.828   3.690
 5149TIP3   OH215389   5.680   3.202   3.389
 5149TIP3    H115390   5.653   3.137   3.324
 5149TIP3    H215391   5.770   3.179   3.411
 5150TIP3   OH215392   3.782   6.423   5.911
 5150TIP3    H115393   3.725   6.348   5.925
 5150TIP3    H215394   3.855   6.389   5.859
 5151TIP3   OH215395   5.607   7.141   3.160
 5151TIP3    H115396   5.577   7.097   3.239
 5151TIP3    H215397   5.645   7.072   3.106
 5152TIP3   OH215398   8.091   2.581   6.426
 5152TIP3    H115399   8.123   2.491   6.432
 5152TIP3    H215400   7.997   2.573   6.444
 5153TIP3   OH215401   6.764   5.452   3.528
 5153TIP3    H115402   6.772   5.498   3.445
 5153TIP3    H215403   6.673   5.468   3.555
 5154TIP3   OH215404   4.854   2.383   4.843
 5154TIP3    H115405   4.892   2.387   4.931
 5154TIP3    H215406   4.851   2.474   4.814
 5155TIP3   OH215407   2.076   4.774   3.396
 5155TIP3    H115408   2.004   4.779   3.333
 5155TIP3    H215409   2.078   4.682   3.422
 5156TIP3   OH215410   2.230   0.769   0.764
 5156TIP3    H115411   2.201   0.753   0.854
 5156TIP3    H215412   2.254   0.682   0.730
 5157TIP3   OH215413   0.846   5.437   2.411
 5157TIP3    H115414   0.868   5.527   2.386
 5157TIP3    H215415   0.796   5.403   2.337
 5158TIP3   OH215416   1.970   2.342   2.773
 5158TIP3    H115417   1.904   2.369   2.837
 5158TIP3    H215418   1.973   2.415   2.711
 5159TIP3   OH215419   5.615   4.431   2.982
 5159TIP3    H115420   5.650   4.396   2.900
 5159TIP3    H215421   5.577   4.516   2.957
 5160TIP3   OH215422   7.237   3.621   5.655
 5160TIP3    H115423   7.282   3.696   5.692
 5160TIP3    H215424   7.254   3.626   5.561
 5161TIP3   OH215425   0.502   6.239   4.609
 5161TIP3    H115426   0.407   6.231   4.606
 5161TIP3    H215427   0.524   6.214   4.699
 5162TIP3   OH215428   7.600   5.448   2.419
 5162TIP3    H115429   7.636   5.421   2.334
 5162TIP3    H215430   7.648   5.528   2.441
 5163TIP3   OH215431   6.104   3.962   5.739
 5163TIP3    H115432   6.070   3.872   5.743
 5163TIP3    H215433   6.143   3.976   5.825
 5164TIP3   OH215434   4.678   3.747   3.838
 5164TIP3    H115435   4.608   3.735   3.774
 5164TIP3    H215436   4.728   3.665   3.835
 5165TIP3   OH215437   4.636   5.515   5.234
 5165TIP3    H115438   4.563   5.474   5.187
 5165TIP3    H215439   4.714   5.473   5.199
 5166TIP3   OH215440   0.130   0.255   3.055
 5166TIP3    H115441   0.158   0.191   2.990
 5166TIP3    H215442   0.051   0.294   3.019
 5167TIP3   OH215443   0.258   5.200   3.080
 5167TIP3    H115444   0.321   5.217   3.011
 5167TIP3    H215445   0.249   5.284   3.126
 5168TIP3   OH215446   4.240   3.092   1.937
 5168TIP3    H115447   4.169   3.034   1.964
 5168TIP3    H215448   4.278   3.049   1.861
 5169TIP3   OH215449   4.407   3.500   3.951
 5169TIP3    H115450   4.386   3.584   3.994
 5169TIP3    H215451   4.385   3.434   4.016
 5170TIP3   OH215452   4.019   1.320   3.541
 5170TIP3    H115453   3.926   1.315   3.564
 5170TIP3    H215454   4.020   1.317   3.445
 5171TIP3   OH215455   5.977   3.713   5.691
 5171TIP3    H115456   5.914   3.740   5.624
 5171TIP3    H215457   6.059   3.702   5.643
 5172TIP3   OH215458   4.858   3.030   6.762
 5172TIP3    H115459   4.891   2.944   6.790
 5172TIP3    H215460   4.801   3.010   6.687
 5173TIP3   OH215461   2.010   1.571   4.252
 5173TIP3    H115462   2.007   1.526   4.168
 5173TIP3    H215463   1.920   1.569   4.284
 5174TIP3   OH215464   6.033   2.091   1.016
 5174TIP3    H115465   6.107   2.046   1.057
 5174TIP3    H215466   6.051   2.184   1.028
 5175TIP3   OH215467   4.793   5.486   4.812
 5175TIP3    H115468   4.834   5.401   4.793
 5175TIP3    H215469   4.771   5.482   4.905
 5176TIP3   OH215470   6.556   3.970   6.302
 5176TIP3    H115471   6.461   3.957   6.311
 5176TIP3    H215472   6.568   3.995   6.211
 5177TIP3   OH215473   2.114   7.825   6.300
 5177TIP3    H115474   2.192   7.778   6.328
 5177TIP3    H215475   2.104   7.802   6.207
 5178TIP3   OH215476   4.503   3.139   4.721
 5178TIP3    H115477   4.417   3.102   4.742
 5178TIP3    H215478   4.553   3.132   4.802
 5179TIP3   OH215479   6.946   7.098   4.998
 5179TIP3    H115480   6.857   7.107   5.033
 5179TIP3    H215481   6.946   7.013   4.954
 5180TIP3   OH215482   1.009   4.282   6.138
 5180TIP3    H115483   1.016   4.377   6.141
 5180TIP3    H215484   0.977   4.258   6.225
 5181TIP3   OH215485   4.711   3.101   6.144
 5181TIP3    H115486   4.675   3.015   6.127
 5181TIP3    H215487   4.806   3.087   6.149
 5182TIP3   OH215488   7.723   5.868   4.336
 5182TIP3    H115489   7.702   5.881   4.428
 5182TIP3    H215490   7.712   5.774   4.322
 5183TIP3   OH215491   0.434   5.974   5.730
 5183TIP3    H115492   0.338   5.971   5.732
 5183TIP3    H215493   0.456   5.982   5.638
 5184TIP3   OH215494   7.140   7.789   2.807
 5184TIP3    H115495   7.227   7.828   2.814
 5184TIP3    H215496   7.143   7.716   2.869
 5185TIP3   OH215497   3.251   6.275   0.925
 5185TIP3    H115498   3.193   6.301   0.997
 5185TIP3    H215499   3.337   6.309   0.950
 5186TIP3   OH215500   5.840   4.795   0.003
 5186TIP3    H115501   5.847   4.710   0.046
 5186TIP3    H215502   5.791   4.849   0.065
 5187TIP3   OH215503   8.000  -0.007   1.983
 5187TIP3    H115504   7.908  -0.030   1.964
 5187TIP3    H215505   8.021   0.061   1.919
 5188TIP3   OH215506   7.137   6.783   5.807
 5188TIP3    H115507   7.140   6.763   5.713
 5188TIP3    H215508   7.141   6.698   5.850
 5189TIP3   OH215509   7.004   7.104   2.518
 5189TIP3    H115510   7.054   7.070   2.593
 5189TIP3    H215511   7.070   7.140   2.459
 5190TIP3   OH215512   5.661   7.501   1.653
 5190TIP3    H115513   5.743   7.505   1.605
 5190TIP3    H215514   5.603   7.450   1.596
 5191TIP3   OH215515   0.289   2.973   2.251
 5191TIP3    H115516   0.233   3.027   2.306
 5191TIP3    H215517   0.337   3.035   2.197
 5192TIP3   OH215518   1.150   0.177   4.379
 5192TIP3    H115519   1.194   0.187   4.463
 5192TIP3    H215520   1.125   0.085   4.375
 5193TIP3   OH215521   2.937   1.489   2.024
 5193TIP3    H115522   3.005   1.445   1.973
 5193TIP3    H215523   2.858   1.483   1.970
 5194TIP3   OH215524   2.079   3.025   0.564
 5194TIP3    H115525   2.121   2.960   0.508
 5194TIP3    H215526   2.132   3.025   0.645
 5195TIP3   OH215527   3.058   0.886   5.825
 5195TIP3    H115528   2.966   0.906   5.811
 5195TIP3    H215529   3.064   0.791   5.813
 5196TIP3   OH215530   7.376   2.499   3.330
 5196TIP3    H115531   7.302   2.452   3.291
 5196TIP3    H215532   7.401   2.446   3.405
 5197TIP3   OH215533   3.220   3.010   2.879
 5197TIP3    H115534   3.164   2.937   2.906
 5197TIP3    H215535   3.221   3.006   2.784
 5198TIP3   OH215536   5.452   0.498   5.579
 5198TIP3    H115537   5.516   0.543   5.635
 5198TIP3    H215538   5.494   0.497   5.492
 5199TIP3   OH215539   6.328   6.005   2.560
 5199TIP3    H115540   6.270   5.959   2.499
 5199TIP3    H215541   6.413   6.009   2.515
 5200TIP3   OH215542   5.956   3.731   1.073
 5200TIP3    H115543   5.971   3.777   0.991
 5200TIP3    H215544   5.983   3.793   1.141
 5201TIP3   OH215545   1.909   5.870   6.031
 5201TIP3    H115546   1.878   5.837   5.946
 5201TIP3    H215547   1.959   5.796   6.067
 5202TIP3   OH215548   7.041   2.569   6.528
 5202TIP3    H115549   7.103   2.566   6.456
 5202TIP3    H215550   7.000   2.482   6.529
 5203TIP3   OH215551   4.853   1.883   0.490
 5203TIP3    H115552   4.758   1.897   0.485
 5203TIP3    H215553   4.885   1.908   0.403
 5204TIP3   OH215554   3.722   6.867   2.112
 5204TIP3    H115555   3.785   6.828   2.051
 5204TIP3    H215556   3.653   6.801   2.120
 5205TIP3   OH215557   3.705   4.650   4.879
 5205TIP3    H115558   3.755   4.575   4.847
 5205TIP3    H215559   3.701   4.638   4.974
 5206TIP3   OH215560   6.099   4.099   5.501
 5206TIP3    H115561   6.009   4.120   5.478
 5206TIP3    H215562   6.092   4.040   5.576
 5207TIP3   OH215563   0.823   3.207   4.185
 5207TIP3    H115564   0.871   3.273   4.234
 5207TIP3    H215565   0.799   3.141   4.249
 5208TIP3   OH215566   5.674   7.096   4.212
 5208TIP3    H115567   5.753   7.045   4.193
 5208TIP3    H215568   5.678   7.170   4.152
 5209TIP3   OH215569   3.959   7.310   0.714
 5209TIP3    H115570   3.971   7.217   0.697
 5209TIP3    H215571   3.881   7.315   0.769
 5210TIP3   OH215572   0.048   7.666   0.871
 5210TIP3    H115573   0.127   7.687   0.822
 5210TIP3    H215574   0.070   7.587   0.920
 5211TIP3   OH215575   0.287   0.738   0.436
 5211TIP3    H115576   0.353   0.687   0.484
 5211TIP3    H215577   0.338   0.789   0.373
 5212TIP3   OH215578   3.549   6.705   0.668
 5212TIP3    H115579   3.538   6.635   0.733
 5212TIP3    H215580   3.630   6.749   0.693
 5213TIP3   OH215581   6.522   1.014   0.624
 5213TIP3    H115582   6.543   0.963   0.702
 5213TIP3    H215583   6.597   1.002   0.566
 5214TIP3   OH215584   7.210   5.313   4.325
 5214TIP3    H115585   7.156   5.249   4.280
 5214TIP3    H215586   7.259   5.358   4.256
 5215TIP3   OH215587   0.426   0.465   1.533
 5215TIP3    H115588   0.444   0.389   1.588
 5215TIP3    H215589   0.396   0.429   1.450
 5216TIP3   OH215590   2.158   2.170   5.604
 5216TIP3    H115591   2.154   2.239   5.537
 5216TIP3    H215592   2.251   2.161   5.623
 5217TIP3   OH215593   0.297   5.901   5.187
 5217TIP3    H115594   0.263   5.870   5.270
 5217TIP3    H215595   0.221   5.901   5.128
 5218TIP3   OH215596   4.700   0.675   0.720
 5218TIP3    H115597   4.709   0.759   0.675
 5218TIP3    H215598   4.758   0.616   0.672
 5219TIP3   OH215599   1.755   6.188   1.263
 5219TIP3    H115600   1.839   6.227   1.238
 5219TIP3    H215601   1.779   6.105   1.304
 5220TIP3   OH215602   7.082   0.083   3.214
 5220TIP3    H115603   7.009   0.063   3.156
 5220TIP3    H215604   7.042   0.106   3.297
 5221TIP3   OH215605   0.158   4.274   3.757
 5221TIP3    H115606   0.130   4.208   3.821
 5221TIP3    H215607   0.079   4.323   3.736
 5222TIP3   OH215608   5.772   3.250   5.864
 5222TIP3    H115609   5.794   3.338   5.895
 5222TIP3    H215610   5.857   3.208   5.851
 5223TIP3   OH215611   3.721   5.414   2.881
 5223TIP3    H115612   3.785   5.483   2.860
 5223TIP3    H215613   3.690   5.384   2.795
 5224TIP3   OH215614   8.230   4.955   0.655
 5224TIP3    H115615   8.263   4.973   0.567
 5224TIP3    H215616   8.304   4.971   0.712
 5225TIP3   OH215617   3.379   7.032   2.574
 5225TIP3    H115618   3.424   6.952   2.548
 5225TIP3    H215619   3.449   7.090   2.605
 5226TIP3   OH215620   4.561   5.932   4.559
 5226TIP3    H115621   4.596   5.875   4.627
 5226TIP3    H215622   4.485   5.885   4.524
 5227TIP3   OH215623   7.892   6.253   2.291
 5227TIP3    H115624   7.901   6.162   2.321
 5227TIP3    H215625   7.919   6.305   2.367
 5228TIP3   OH215626   7.998   2.844   4.203
 5228TIP3    H115627   8.044   2.886   4.276
 5228TIP3    H215628   8.034   2.886   4.125
 5229TIP3   OH215629   3.331   3.245   2.899
 5229TIP3    H115630   3.295   3.157   2.906
 5229TIP3    H215631   3.414   3.233   2.854
 5230TIP3   OH215632   0.239   6.846   6.527
 5230TIP3    H115633   0.223   6.799   6.445
 5230TIP3    H215634   0.174   6.810   6.588
 5231TIP3   OH215635   8.184   1.770   4.997
 5231TIP3    H115636   8.225   1.834   5.055
 5231TIP3    H215637   8.196   1.806   4.909
 5232TIP3   OH215638   2.826   3.733   2.235
 5232TIP3    H115639   2.834   3.686   2.318
 5232TIP3    H215640   2.738   3.711   2.203
 5233TIP3   OH215641   3.753   1.302   3.591
 5233TIP3    H115642   3.730   1.307   3.684
 5233TIP3    H215643   3.713   1.380   3.552
 5234TIP3   OH215644   3.835   1.463   6.137
 5234TIP3    H115645   3.751   1.463   6.092
 5234TIP3    H215646   3.899   1.436   6.071
 5235TIP3   OH215647   6.152   5.771   0.298
 5235TIP3    H115648   6.179   5.840   0.358
 5235TIP3    H215649   6.176   5.690   0.342
 5236TIP3   OH215650   3.439   1.121   5.456
 5236TIP3    H115651   3.364   1.113   5.516
 5236TIP3    H215652   3.461   1.031   5.434
 5237TIP3   OH215653   6.417   3.461   1.548
 5237TIP3    H115654   6.508   3.480   1.528
 5237TIP3    H215655   6.384   3.415   1.471
 5238TIP3   OH215656   6.600   7.258   3.767
 5238TIP3    H115657   6.685   7.289   3.798
 5238TIP3    H215658   6.595   7.168   3.800
 5239TIP3   OH215659   6.267   6.723   5.616
 5239TIP3    H115660   6.184   6.677   5.627
 5239TIP3    H215661   6.284   6.762   5.702
 5240TIP3   OH215662   5.812   5.979   5.804
 5240TIP3    H115663   5.849   6.043   5.865
 5240TIP3    H215664   5.868   5.983   5.727
 5241TIP3   OH215665   0.293   2.292   1.320
 5241TIP3    H115666   0.355   2.358   1.290
 5241TIP3    H215667   0.346   2.215   1.341
 5242TIP3   OH215668   6.829   4.887   4.890
 5242TIP3    H115669   6.735   4.908   4.890
 5242TIP3    H215670   6.836   4.812   4.950
 5243TIP3   OH215671   3.601   5.214   1.581
 5243TIP3    H115672   3.535   5.179   1.521
 5243TIP3    H215673   3.682   5.169   1.556
 5244TIP3   OH215674   4.004   0.296   5.637
 5244TIP3    H115675   3.977   0.216   5.592
 5244TIP3    H215676   4.099   0.298   5.626
 5245TIP3   OH215677   6.928   5.586   5.227
 5245TIP3    H115678   6.853   5.532   5.254
 5245TIP3    H215679   6.969   5.536   5.156
 5246TIP3   OH215680   6.961   5.407   3.051
 5246TIP3    H115681   7.025   5.428   2.983
 5246TIP3    H215682   6.884   5.376   3.004
 5247TIP3   OH215683   3.455   2.665   4.684
 5247TIP3    H115684   3.529   2.605   4.670
 5247TIP3    H215685   3.493   2.739   4.729
 5248TIP3   OH215686   2.647   5.581   3.680
 5248TIP3    H115687   2.700   5.660   3.673
 5248TIP3    H215688   2.682   5.522   3.614
 5249TIP3   OH215689   1.990   1.184   5.018
 5249TIP3    H115690   1.970   1.241   5.092
 5249TIP3    H215691   2.021   1.244   4.950
 5250TIP3   OH215692   5.337   6.042  -0.006
 5250TIP3    H115693   5.322   6.011   0.083
 5250TIP3    H215694   5.400   6.113   0.003
 5251TIP3   OH215695   6.946   5.772   3.193
 5251TIP3    H115696   6.991   5.758   3.110
 5251TIP3    H215697   6.949   5.866   3.207
 5252TIP3   OH215698   7.168   1.583   4.654
 5252TIP3    H115699   7.198   1.668   4.687
 5252TIP3    H215700   7.073   1.587   4.663
 5253TIP3   OH215701   1.400   0.401   4.376
 5253TIP3    H115702   1.482   0.441   4.347
 5253TIP3    H215703   1.428   0.330   4.434
 5254TIP3   OH215704   1.681   5.585   6.303
 5254TIP3    H115705   1.712   5.676   6.298
 5254TIP3    H215706   1.728   5.548   6.377
 5255TIP3   OH215707   4.656   3.324   4.084
 5255TIP3    H115708   4.702   3.406   4.103
 5255TIP3    H215709   4.714   3.256   4.118
 5256TIP3   OH215710   6.427   1.820   6.644
 5256TIP3    H115711   6.373   1.762   6.697
 5256TIP3    H215712   6.459   1.765   6.573
 5257TIP3   OH215713   4.705   5.785   1.070
 5257TIP3    H115714   4.668   5.845   1.004
 5257TIP3    H215715   4.771   5.734   1.022
 5258TIP3   OH215716   2.769   6.278   5.506
 5258TIP3    H115717   2.735   6.311   5.590
 5258TIP3    H215718   2.699   6.298   5.444
 5259TIP3   OH215719   4.854   0.045   1.400
 5259TIP3    H115720   4.937   0.083   1.370
 5259TIP3    H215721   4.802   0.119   1.428
 5260TIP3   OH215722   7.646   7.622   2.574
 5260TIP3    H115723   7.659   7.572   2.654
 5260TIP3    H215724   7.572   7.680   2.593
 5261TIP3   OH215725   6.258   3.063   3.453
 5261TIP3    H115726   6.185   3.012   3.416
 5261TIP3    H215727   6.326   2.999   3.471
 5262TIP3   OH215728   4.751   1.305   6.673
 5262TIP3    H115729   4.665   1.267   6.691
 5262TIP3    H215730   4.783   1.257   6.597
 5263TIP3   OH215731   6.168   0.332   4.612
 5263TIP3    H115732   6.156   0.263   4.677
 5263TIP3    H215733   6.194   0.409   4.662
 5264TIP3   OH215734   2.802   3.839   4.647
 5264TIP3    H115735   2.869   3.822   4.581
 5264TIP3    H215736   2.774   3.929   4.630
 5265TIP3   OH215737   5.886   3.161   3.601
 5265TIP3    H115738   5.849   3.219   3.668
 5265TIP3    H215739   5.863   3.073   3.631
 5266TIP3   OH215740   1.546   1.351   1.325
 5266TIP3    H115741   1.578   1.262   1.341
 5266TIP3    H215742   1.544   1.391   1.412
 5267TIP3   OH215743   8.080   5.745   4.350
 5267TIP3    H115744   8.052   5.836   4.360
 5267TIP3    H215745   8.057   5.704   4.433
 5268TIP3   OH215746   1.216   1.844   1.014
 5268TIP3    H115747   1.150   1.905   0.980
 5268TIP3    H215748   1.194   1.761   0.973
 5269TIP3   OH215749   3.509   3.119   2.387
 5269TIP3    H115750   3.590   3.094   2.344
 5269TIP3    H215751   3.448   3.049   2.365
 5270TIP3   OH215752   1.556   5.367   4.353
 5270TIP3    H115753   1.572   5.277   4.324
 5270TIP3    H215754   1.620   5.381   4.423
 5271TIP3   OH215755   0.740   0.372   0.415
 5271TIP3    H115756   0.671   0.369   0.348
 5271TIP3    H215757   0.752   0.280   0.439
 5272TIP3   OH215758   5.274   7.400   2.718
 5272TIP3    H115759   5.196   7.425   2.766
 5272TIP3    H215760   5.243   7.332   2.657
 5273TIP3   OH215761   3.028   0.598   6.411
 5273TIP3    H115762   2.961   0.586   6.344
 5273TIP3    H215763   3.000   0.675   6.460
 5274TIP3   OH215764   4.233   5.961   3.794
 5274TIP3    H115765   4.149   5.949   3.838
 5274TIP3    H215766   4.256   5.874   3.762
 5275TIP3   OH215767   6.177   4.579   6.117
 5275TIP3    H115768   6.266   4.616   6.111
 5275TIP3    H215769   6.189   4.495   6.161
 5276TIP3   OH215770   8.005   4.429   6.373
 5276TIP3    H115771   8.037   4.509   6.331
 5276TIP3    H215772   7.947   4.390   6.307
 5277TIP3   OH215773   3.769   4.796   5.818
 5277TIP3    H115774   3.756   4.735   5.891
 5277TIP3    H215775   3.864   4.806   5.812
 5278TIP3   OH215776   3.777   1.475   1.800
 5278TIP3    H115777   3.783   1.380   1.797
 5278TIP3    H215778   3.754   1.495   1.891
 5279TIP3   OH215779   7.103   3.168   1.836
 5279TIP3    H115780   7.170   3.157   1.769
 5279TIP3    H215781   7.150   3.160   1.919
 5280TIP3   OH215782   6.580   4.128   3.144
 5280TIP3    H115783   6.576   4.036   3.169
 5280TIP3    H215784   6.510   4.138   3.080
 5281TIP3   OH215785   8.169   6.491   2.651
 5281TIP3    H115786   8.251   6.496   2.700
 5281TIP3    H215787   8.196   6.483   2.560
 5282TIP3   OH215788   0.696   5.726   0.347
 5282TIP3    H115789   0.751   5.768   0.281
 5282TIP3    H215790   0.607   5.753   0.325
 5283TIP3   OH215791   2.828   6.101   2.271
 5283TIP3    H115792   2.809   6.045   2.346
 5283TIP3    H215793   2.772   6.178   2.283
 5284TIP3   OH215794   2.053   3.622   2.214
 5284TIP3    H115795   2.069   3.564   2.140
 5284TIP3    H215796   2.105   3.700   2.195
 5285TIP3   OH215797   3.457   2.389   6.574
 5285TIP3    H115798   3.547   2.374   6.603
 5285TIP3    H215799   3.454   2.351   6.486
 5286TIP3   OH215800   2.025   3.674   1.048
 5286TIP3    H115801   2.063   3.721   0.974
 5286TIP3    H215802   2.039   3.732   1.123
 5287TIP3   OH215803   7.327   0.230   3.262
 5287TIP3    H115804   7.335   0.310   3.211
 5287TIP3    H215805   7.250   0.186   3.227
 5288TIP3   OH215806   4.480   5.580   4.164
 5288TIP3    H115807   4.564   5.557   4.124
 5288TIP3    H215808   4.427   5.614   4.092
 5289TIP3   OH215809   1.660   7.859   2.859
 5289TIP3    H115810   1.715   7.831   2.932
 5289TIP3    H215811   1.687   7.803   2.786
 5290TIP3   OH215812   0.190   1.645   1.168
 5290TIP3    H115813   0.254   1.627   1.237
 5290TIP3    H215814   0.187   1.740   1.161
 5291TIP3   OH215815   0.431   0.479   3.792
 5291TIP3    H115816   0.506   0.491   3.849
 5291TIP3    H215817   0.434   0.554   3.732
 5292TIP3   OH215818   1.295   0.213   0.487
 5292TIP3    H115819   1.334   0.260   0.413
 5292TIP3    H215820   1.201   0.214   0.469
 5293TIP3   OH215821   0.980   7.563   4.182
 5293TIP3    H115822   0.906   7.502   4.183
 5293TIP3    H215823   0.980   7.600   4.093
 5294TIP3   OH215824   1.111   2.532   1.189
 5294TIP3    H115825   1.076   2.446   1.168
 5294TIP3    H215826   1.103   2.539   1.284
 5295TIP3   OH215827   1.651  -0.036   3.544
 5295TIP3    H115828   1.599   0.032   3.588
 5295TIP3    H215829   1.742  -0.010   3.561
 5296TIP3   OH215830   2.789   4.101   4.404
 5296TIP3    H115831   2.838   4.177   4.434
 5296TIP3    H215832   2.697   4.127   4.412
 5297TIP3   OH215833   4.025   7.304   4.569
 5297TIP3    H115834   3.942   7.338   4.539
 5297TIP3    H215835   4.080   7.381   4.583
 5298TIP3   OH215836   6.523   5.857   6.431
 5298TIP3    H115837   6.572   5.832   6.509
 5298TIP3    H215838   6.431   5.851   6.458
 5299TIP3   OH215839   2.068   0.520   1.800
 5299TIP3    H115840   1.987   0.472   1.784
 5299TIP3    H215841   2.047   0.611   1.779
 5300TIP3   OH215842   5.880   7.002   2.193
 5300TIP3    H115843   5.879   7.089   2.232
 5300TIP3    H215844   5.788   6.974   2.195
 5301TIP3   OH215845   7.993   6.418   3.413
 5301TIP3    H115846   8.073   6.453   3.453
 5301TIP3    H215847   8.022   6.341   3.364
 5302TIP3   OH215848   0.419   6.074   5.450
 5302TIP3    H115849   0.431   6.164   5.421
 5302TIP3    H215850   0.351   6.038   5.393
 5303TIP3   OH215851   7.721   0.601   2.070
 5303TIP3    H115852   7.663   0.570   2.140
 5303TIP3    H215853   7.807   0.567   2.094
 5304TIP3   OH215854   3.697   6.316   2.224
 5304TIP3    H115855   3.735   6.376   2.288
 5304TIP3    H215856   3.717   6.229   2.258
 5305TIP3   OH215857   5.740   2.128   3.981
 5305TIP3    H115858   5.804   2.086   4.039
 5305TIP3    H215859   5.777   2.214   3.962
 5306TIP3   OH215860   5.028   3.835   1.817
 5306TIP3    H115861   5.023   3.928   1.793
 5306TIP3    H215862   4.991   3.789   1.742
 5307TIP3   OH215863   3.065   5.026   4.054
 5307TIP3    H115864   3.157   5.013   4.034
 5307TIP3    H215865   3.061   5.034   4.149
 5308TIP3   OH215866   0.457   3.115   2.042
 5308TIP3    H115867   0.396   3.188   2.030
 5308TIP3    H215868   0.542   3.156   2.051
 5309TIP3   OH215869   3.713   0.609   5.849
 5309TIP3    H115870   3.770   0.679   5.817
 5309TIP3    H215871   3.768   0.532   5.853
 5310TIP3   OH215872   7.193   6.662   4.365
 5310TIP3    H115873   7.145   6.665   4.448
 5310TIP3    H215874   7.219   6.753   4.349
 5311TIP3   OH215875   6.493   2.851   6.704
 5311TIP3    H115876   6.401   2.868   6.726
 5311TIP3    H215877   6.543   2.908   6.762
 5312TIP3   OH215878   5.923   5.676   5.523
 5312TIP3    H115879   5.889   5.617   5.589
 5312TIP3    H215880   5.862   5.668   5.449
 5313TIP3   OH215881   2.384   5.188   1.131
 5313TIP3    H115882   2.321   5.258   1.147
 5313TIP3    H215883   2.333   5.120   1.086
 5314TIP3   OH215884   4.095   5.442   6.745
 5314TIP3    H115885   4.083   5.365   6.690
 5314TIP3    H215886   4.035   5.428   6.819
 5315TIP3   OH215887   2.658   3.432   2.153
 5315TIP3    H115888   2.681   3.411   2.062
 5315TIP3    H215889   2.563   3.444   2.151
 5316TIP3   OH215890   4.107   3.959   2.657
 5316TIP3    H115891   4.171   4.025   2.685
 5316TIP3    H215892   4.036   3.966   2.721
 5317TIP3   OH215893   3.790   0.162   3.543
 5317TIP3    H115894   3.818   0.217   3.470
 5317TIP3    H215895   3.828   0.204   3.620
 5318TIP3   OH215896   4.952   4.853   5.306
 5318TIP3    H115897   4.935   4.880   5.216
 5318TIP3    H215898   4.895   4.909   5.359
 5319TIP3   OH215899   8.226   1.772   5.443
 5319TIP3    H115900   8.277   1.769   5.362
 5319TIP3    H215901   8.275   1.715   5.503
 5320TIP3   OH215902   5.899   2.579   4.088
 5320TIP3    H115903   5.827   2.536   4.043
 5320TIP3    H215904   5.972   2.517   4.081
 5321TIP3   OH215905   5.911   7.208   6.176
 5321TIP3    H115906   5.882   7.226   6.265
 5321TIP3    H215907   5.956   7.288   6.149
 5322TIP3   OH215908   5.002   0.650   4.629
 5322TIP3    H115909   5.091   0.617   4.642
 5322TIP3    H215910   5.008   0.743   4.650
 5323TIP3   OH215911   5.824   0.340   2.120
 5323TIP3    H115912   5.896   0.361   2.180
 5323TIP3    H215913   5.863   0.279   2.057
 5324TIP3   OH215914   2.520   3.579   0.207
 5324TIP3    H115915   2.489   3.518   0.273
 5324TIP3    H215916   2.535   3.525   0.129
 5325TIP3   OH215917   2.355   0.527   2.442
 5325TIP3    H115918   2.392   0.591   2.502
 5325TIP3    H215919   2.324   0.456   2.498
 5326TIP3   OH215920   1.793   6.644   6.466
 5326TIP3    H115921   1.770   6.552   6.450
 5326TIP3    H215922   1.869   6.659   6.409
 5327TIP3   OH215923   1.617   5.090   4.848
 5327TIP3    H115924   1.585   5.102   4.758
 5327TIP3    H215925   1.545   5.118   4.903
 5328TIP3   OH215926   5.648   5.705   2.357
 5328TIP3    H115927   5.658   5.693   2.451
 5328TIP3    H215928   5.613   5.793   2.347
 5329TIP3   OH215929   7.051   2.291   1.497
 5329TIP3    H115930   7.053   2.368   1.555
 5329TIP3    H215931   7.009   2.223   1.549
 5330TIP3   OH215932   5.173   6.009   3.060
 5330TIP3    H115933   5.247   6.064   3.088
 5330TIP3    H215934   5.135   6.056   2.986
 5331TIP3   OH215935   4.155   4.357   0.592
 5331TIP3    H115936   4.247   4.382   0.603
 5331TIP3    H215937   4.137   4.300   0.667
 5332TIP3   OH215938   0.698   6.578   6.315
 5332TIP3    H115939   0.645   6.617   6.385
 5332TIP3    H215940   0.780   6.554   6.358
 5333TIP3   OH215941   1.283   3.557   0.946
 5333TIP3    H115942   1.312   3.539   0.856
 5333TIP3    H215943   1.260   3.472   0.982
 5334TIP3   OH215944   7.682   4.050   4.898
 5334TIP3    H115945   7.759   4.097   4.866
 5334TIP3    H215946   7.612   4.116   4.900
 5335TIP3   OH215947   6.426   4.651   2.169
 5335TIP3    H115948   6.405   4.640   2.077
 5335TIP3    H215949   6.404   4.568   2.210
 5336TIP3   OH215950   0.404   4.983   6.351
 5336TIP3    H115951   0.420   5.011   6.261
 5336TIP3    H215952   0.311   4.962   6.353
 5337TIP3   OH215953   2.626   7.494   1.344
 5337TIP3    H115954   2.701   7.469   1.398
 5337TIP3    H215955   2.592   7.411   1.309
 5338TIP3   OH215956   4.242   7.017   3.336
 5338TIP3    H115957   4.160   6.975   3.363
 5338TIP3    H215958   4.264   7.077   3.407
 5339TIP3   OH215959   5.524   1.701   0.665
 5339TIP3    H115960   5.558   1.760   0.732
 5339TIP3    H215961   5.429   1.702   0.679
 5340TIP3   OH215962   3.115   6.983   3.564
 5340TIP3    H115963   3.035   7.030   3.542
 5340TIP3    H215964   3.136   7.011   3.653
 5341TIP3   OH215965   3.765   2.777   4.548
 5341TIP3    H115966   3.783   2.720   4.623
 5341TIP3    H215967   3.721   2.853   4.585
 5342TIP3   OH215968   2.674   5.866   5.855
 5342TIP3    H115969   2.734   5.909   5.916
 5342TIP3    H215970   2.730   5.832   5.786
 5343TIP3   OH215971   1.762   6.683   5.966
 5343TIP3    H115972   1.842   6.631   5.956
 5343TIP3    H215973   1.791   6.774   5.960
 5344TIP3   OH215974   0.977   5.529   2.139
 5344TIP3    H115975   1.046   5.472   2.173
 5344TIP3    H215976   0.964   5.595   2.208
 5345TIP3   OH215977   4.453   5.117   0.103
 5345TIP3    H115978   4.386   5.067   0.149
 5345TIP3    H215979   4.405   5.188   0.061
 5346TIP3   OH215980   4.450   2.975   6.351
 5346TIP3    H115981   4.380   2.916   6.321
 5346TIP3    H215982   4.526   2.918   6.361
 5347TIP3   OH215983   3.400   5.117   3.736
 5347TIP3    H115984   3.319   5.149   3.775
 5347TIP3    H215985   3.386   5.023   3.727
 5348TIP3   OH215986   2.385   0.512   0.775
 5348TIP3    H115987   2.327   0.488   0.703
 5348TIP3    H215988   2.327   0.529   0.848
 5349TIP3   OH215989   1.995   4.765   0.146
 5349TIP3    H115990   2.073   4.710   0.158
 5349TIP3    H215991   1.935   4.711   0.095
 5350TIP3   OH215992   2.403   6.473   3.382
 5350TIP3    H115993   2.338   6.403   3.387
 5350TIP3    H215994   2.422   6.481   3.289
 5351TIP3   OH215995   7.691   0.604   4.472
 5351TIP3    H115996   7.628   0.644   4.412
 5351TIP3    H215997   7.761   0.571   4.416
 5352TIP3   OH215998   4.316   0.683   5.568
 5352TIP3    H115999   4.258   0.616   5.531
 5352TIP3    H216000   4.329   0.655   5.658
 5353TIP3   OH216001   5.018   7.712   2.487
 5353TIP3    H116002   5.048   7.676   2.404
 5353TIP3    H216003   4.930   7.677   2.498
 5354TIP3   OH216004   4.321   4.741   1.214
 5354TIP3    H116005   4.242   4.729   1.162
 5354TIP3    H216006   4.379   4.793   1.158
 5355TIP3   OH216007   1.392   5.982   0.595
 5355TIP3    H116008   1.393   5.889   0.617
 5355TIP3    H216009   1.315   5.992   0.538
 5356TIP3   OH216010   4.960   1.092   5.844
 5356TIP3    H116011   5.026   1.082   5.913
 5356TIP3    H216012   5.011   1.099   5.763
 5357TIP3   OH216013   3.022   3.846   1.369
 5357TIP3    H116014   3.112   3.834   1.399
 5357TIP3    H216015   3.028   3.904   1.294
 5358TIP3   OH216016   4.264   5.383   2.292
 5358TIP3    H116017   4.209   5.400   2.216
 5358TIP3    H216018   4.273   5.288   2.295
 5359TIP3   OH216019   6.373   3.746   2.404
 5359TIP3    H116020   6.468   3.755   2.414
 5359TIP3    H216021   6.336   3.813   2.462
 5360TIP3   OH216022   7.998   7.794   5.100
 5360TIP3    H116023   7.959   7.747   5.027
 5360TIP3    H216024   7.971   7.744   5.177
 5361TIP3   OH216025   6.493   6.344   6.714
 5361TIP3    H116026   6.543   6.371   6.790
 5361TIP3    H216027   6.410   6.311   6.750
 5362TIP3   OH216028   4.191   5.730   1.526
 5362TIP3    H116029   4.108   5.757   1.487
 5362TIP3    H216030   4.234   5.678   1.458
 5363TIP3   OH216031   0.627   6.636   5.019
 5363TIP3    H116032   0.590   6.636   4.931
 5363TIP3    H216033   0.690   6.708   5.019
 5364TIP3   OH216034   4.360   7.177   3.559
 5364TIP3    H116035   4.410   7.199   3.638
 5364TIP3    H216036   4.411   7.214   3.487
 5365TIP3   OH216037   6.734   7.655   2.551
 5365TIP3    H116038   6.664   7.666   2.487
 5365TIP3    H216039   6.787   7.583   2.517
 5366TIP3   OH216040   7.154   6.960   0.322
 5366TIP3    H116041   7.115   7.008   0.394
 5366TIP3    H216042   7.243   6.940   0.351
 5367TIP3   OH216043   5.283   1.200   4.849
 5367TIP3    H116044   5.360   1.161   4.891
 5367TIP3    H216045   5.235   1.241   4.922
 5368TIP3   OH216046   7.657   1.698   2.166
 5368TIP3    H116047   7.705   1.766   2.213
 5368TIP3    H216048   7.615   1.743   2.093
 5369TIP3   OH216049   2.109   0.705   4.872
 5369TIP3    H116050   2.189   0.749   4.903
 5369TIP3    H216051   2.128   0.611   4.882
 5370TIP3   OH216052   4.007   3.828   5.960
 5370TIP3    H116053   3.922   3.868   5.942
 5370TIP3    H216054   4.062   3.853   5.885
 5371TIP3   OH216055   4.462   2.560   5.558
 5371TIP3    H116056   4.393   2.586   5.618
 5371TIP3    H216057   4.462   2.627   5.490
 5372TIP3   OH216058   3.124   2.553   5.921
 5372TIP3    H116059   3.106   2.462   5.899
 5372TIP3    H216060   3.155   2.591   5.838
 5373TIP3   OH216061   0.267   6.362   3.290
 5373TIP3    H116062   0.363   6.359   3.280
 5373TIP3    H216063   0.253   6.383   3.382
 5374TIP3   OH216064   6.378   1.563   0.081
 5374TIP3    H116065   6.451   1.621   0.102
 5374TIP3    H216066   6.357   1.582  -0.011
 5375TIP3   OH216067   2.798   2.594   4.738
 5375TIP3    H116068   2.850   2.648   4.799
 5375TIP3    H216069   2.716   2.643   4.727
 5376TIP3   OH216070   7.405   2.040   5.955
 5376TIP3    H116071   7.383   1.958   5.910
 5376TIP3    H216072   7.490   2.023   5.995
 5377TIP3   OH216073   0.096   5.870   3.583
 5377TIP3    H116074   0.173   5.898   3.633
 5377TIP3    H216075   0.041   5.825   3.647
 5378TIP3   OH216076   5.518   4.122   6.261
 5378TIP3    H116077   5.438   4.071   6.259
 5378TIP3    H216078   5.494   4.207   6.223
 5379TIP3   OH216079   0.124   7.711   5.439
 5379TIP3    H116080   0.107   7.619   5.458
 5379TIP3    H216081   0.076   7.759   5.507
 5380TIP3   OH216082   6.218   1.424   1.197
 5380TIP3    H116083   6.197   1.334   1.222
 5380TIP3    H216084   6.135   1.472   1.208
 5381TIP3   OH216085   5.124   7.656   2.167
 5381TIP3    H116086   5.158   7.573   2.199
 5381TIP3    H216087   5.203   7.704   2.138
 5382TIP3   OH216088   4.517   0.894   0.891
 5382TIP3    H116089   4.589   0.836   0.868
 5382TIP3    H216090   4.450   0.836   0.927
 5383TIP3   OH216091   7.658   2.031   4.816
 5383TIP3    H116092   7.630   1.945   4.785
 5383TIP3    H216093   7.678   2.080   4.737
 5384TIP3   OH216094   6.454   2.428   2.733
 5384TIP3    H116095   6.517   2.476   2.679
 5384TIP3    H216096   6.420   2.360   2.675
 5385TIP3   OH216097   5.089   7.386   1.228
 5385TIP3    H116098   5.062   7.294   1.232
 5385TIP3    H216099   5.167   7.391   1.285
 5386TIP3   OH216100   2.737   4.699   6.654
 5386TIP3    H116101   2.740   4.664   6.565
 5386TIP3    H216102   2.768   4.789   6.646
 5387TIP3   OH216103   3.340   6.569   4.218
 5387TIP3    H116104   3.293   6.651   4.201
 5387TIP3    H216105   3.309   6.509   4.150
 5388TIP3   OH216106   3.680   1.738   1.764
 5388TIP3    H116107   3.590   1.713   1.783
 5388TIP3    H216108   3.728   1.656   1.760
 5389TIP3   OH216109   6.620   0.980   1.621
 5389TIP3    H116110   6.638   0.892   1.586
 5389TIP3    H216111   6.706   1.021   1.627
 5390TIP3   OH216112   0.761   2.799   1.990
 5390TIP3    H116113   0.677   2.811   2.034
 5390TIP3    H216114   0.776   2.882   1.944
 5391TIP3   OH216115   7.739   2.395   3.513
 5391TIP3    H116116   7.833   2.389   3.528
 5391TIP3    H216117   7.700   2.390   3.601
 5392TIP3   OH216118   4.271   6.163   3.967
 5392TIP3    H116119   4.284   6.119   3.883
 5392TIP3    H216120   4.219   6.101   4.019
 5393TIP3   OH216121   6.428   1.898   2.659
 5393TIP3    H116122   6.372   1.873   2.733
 5393TIP3    H216123   6.408   1.834   2.591
 5394TIP3   OH216124   6.222   5.380   2.860
 5394TIP3    H116125   6.234   5.472   2.883
 5394TIP3    H216126   6.132   5.360   2.887
 5395TIP3   OH216127   0.972   3.559   4.278
 5395TIP3    H116128   1.048   3.547   4.220
 5395TIP3    H216129   0.907   3.602   4.223
 5396TIP3   OH216130   0.940   1.029   2.782
 5396TIP3    H116131   0.888   1.042   2.703
 5396TIP3    H216132   0.917   0.940   2.811
 5397TIP3   OH216133   1.072   1.977   0.665
 5397TIP3    H116134   1.075   1.934   0.579
 5397TIP3    H216135   0.984   1.957   0.698
 5398TIP3   OH216136   0.983   0.688   4.309
 5398TIP3    H116137   0.970   0.783   4.309
 5398TIP3    H216138   0.912   0.654   4.362
 5399TIP3   OH216139   7.255   0.384   0.969
 5399TIP3    H116140   7.325   0.434   0.928
 5399TIP3    H216141   7.191   0.369   0.899
 5400TIP3   OH216142   5.275   5.535   6.437
 5400TIP3    H116143   5.195   5.481   6.438
 5400TIP3    H216144   5.254   5.606   6.377
 5401TIP3   OH216145   6.234   1.421   3.267
 5401TIP3    H116146   6.162   1.474   3.234
 5401TIP3    H216147   6.194   1.338   3.293
 5402TIP3   OH216148   1.211   1.859   3.139
 5402TIP3    H116149   1.222   1.796   3.069
 5402TIP3    H216150   1.126   1.900   3.122
 5403TIP3   OH216151   7.602   5.617   3.170
 5403TIP3    H116152   7.523   5.626   3.116
 5403TIP3    H216153   7.672   5.602   3.106
 5404TIP3   OH216154   2.745   7.784   6.222
 5404TIP3    H116155   2.727   7.690   6.217
 5404TIP3    H216156   2.796   7.803   6.143
 5405TIP3   OH216157   1.488   3.599   1.407
 5405TIP3    H116158   1.492   3.554   1.323
 5405TIP3    H216159   1.490   3.529   1.472
 5406TIP3   OH216160   7.785   1.428   0.248
 5406TIP3    H116161   7.814   1.519   0.255
 5406TIP3    H216162   7.721   1.428   0.177
 5407TIP3   OH216163   3.039   6.573   0.206
 5407TIP3    H116164   3.114   6.561   0.263
 5407TIP3    H216165   3.063   6.646   0.149
 5408TIP3   OH216166   6.687   0.574   0.095
 5408TIP3    H116167   6.716   0.610   0.012
 5408TIP3    H216168   6.598   0.543   0.079
 5409TIP3   OH216169   3.486   2.194   3.762
 5409TIP3    H116170   3.510   2.189   3.670
 5409TIP3    H216171   3.531   2.121   3.803
 5410TIP3   OH216172   6.147   3.050   3.722
 5410TIP3    H116173   6.063   3.093   3.705
 5410TIP3    H216174   6.206   3.086   3.656
 5411TIP3   OH216175   1.543   1.088   3.303
 5411TIP3    H116176   1.570   1.036   3.378
 5411TIP3    H216177   1.533   1.025   3.232
 5412TIP3   OH216178   7.135   1.135   2.597
 5412TIP3    H116179   7.064   1.072   2.586
 5412TIP3    H216180   7.207   1.085   2.634
 5413TIP3   OH216181   0.699   7.067   2.233
 5413TIP3    H116182   0.793   7.047   2.231
 5413TIP3    H216183   0.675   7.060   2.325
 5414TIP3   OH216184   3.775   0.361   3.742
 5414TIP3    H116185   3.693   0.312   3.743
 5414TIP3    H216186   3.748   0.453   3.742
 5415TIP3   OH216187   4.388   4.767   1.478
 5415TIP3    H116188   4.357   4.751   1.389
 5415TIP3    H216189   4.348   4.850   1.502
 5416TIP3   OH216190   0.625   5.566   2.509
 5416TIP3    H116191   0.647   5.592   2.599
 5416TIP3    H216192   0.699   5.511   2.482
 5417TIP3   OH216193   6.201   4.866   0.144
 5417TIP3    H116194   6.247   4.937   0.099
 5417TIP3    H216195   6.247   4.856   0.227
 5418TIP3   OH216196   6.506   2.825   3.210
 5418TIP3    H116197   6.539   2.747   3.165
 5418TIP3    H216198   6.544   2.898   3.163
 5419TIP3   OH216199   1.941   3.955   2.046
 5419TIP3    H116200   1.985   3.979   2.128
 5419TIP3    H216201   1.863   4.010   2.044
 5420TIP3   OH216202   1.989   2.170   0.451
 5420TIP3    H116203   2.058   2.121   0.405
 5420TIP3    H216204   1.970   2.117   0.529
 5421TIP3   OH216205   8.294   0.737   1.953
 5421TIP3    H116206   8.259   0.669   1.896
 5421TIP3    H216207   8.288   0.700   2.041
 5422TIP3   OH216208   6.812   4.607   6.525
 5422TIP3    H116209   6.733   4.584   6.477
 5422TIP3    H216210   6.871   4.643   6.458
 5423TIP3   OH216211   6.562   5.577   6.841
 5423TIP3    H116212   6.579   5.670   6.824
 5423TIP3    H216213   6.569   5.535   6.755
 5424TIP3   OH216214   3.171   5.587   6.087
 5424TIP3    H116215   3.083   5.550   6.085
 5424TIP3    H216216   3.158   5.680   6.104
 5425TIP3   OH216217   3.040   6.686   3.852
 5425TIP3    H116218   2.981   6.671   3.778
 5425TIP3    H216219   2.983   6.694   3.928
 5426TIP3   OH216220   6.245   3.481   0.227
 5426TIP3    H116221   6.224   3.425   0.152
 5426TIP3    H216222   6.328   3.523   0.202
 5427TIP3   OH216223   4.543   6.419   0.471
 5427TIP3    H116224   4.629   6.387   0.442
 5427TIP3    H216225   4.518   6.483   0.404
 5428TIP3   OH216226   3.210   7.863   1.732
 5428TIP3    H116227   3.279   7.802   1.759
 5428TIP3    H216228   3.134   7.808   1.715
 5429TIP3   OH216229   1.577   7.365   4.473
 5429TIP3    H116230   1.665   7.354   4.508
 5429TIP3    H216231   1.578   7.452   4.433
 5430TIP3   OH216232   7.255   1.035   4.977
 5430TIP3    H116233   7.207   1.020   5.058
 5430TIP3    H216234   7.307   1.114   4.995
 5431TIP3   OH216235   3.769   3.430   2.854
 5431TIP3    H116236   3.766   3.520   2.820
 5431TIP3    H216237   3.677   3.404   2.860
 5432TIP3   OH216238   0.416   6.890   3.927
 5432TIP3    H116239   0.330   6.922   3.901
 5432TIP3    H216240   0.398   6.834   4.003
 5433TIP3   OH216241   1.568   3.853   2.320
 5433TIP3    H116242   1.658   3.826   2.300
 5433TIP3    H216243   1.536   3.891   2.238
 5434TIP3   OH216244   4.200   0.481   2.475
 5434TIP3    H116245   4.289   0.453   2.453
 5434TIP3    H216246   4.183   0.443   2.562
 5435TIP3   OH216247   1.744   3.551   4.120
 5435TIP3    H116248   1.746   3.496   4.042
 5435TIP3    H216249   1.779   3.496   4.190
 5436TIP3   OH216250   6.697   7.071   6.778
 5436TIP3    H116251   6.707   7.042   6.687
 5436TIP3    H216252   6.642   7.005   6.818
 5437TIP3   OH216253   6.813   3.078   4.355
 5437TIP3    H116254   6.810   3.164   4.398
 5437TIP3    H216255   6.778   3.017   4.420
 5438TIP3   OH216256   2.934   4.061   3.563
 5438TIP3    H116257   2.855   4.007   3.558
 5438TIP3    H216258   2.967   4.064   3.473
 5439TIP3   OH216259   5.680   3.923   3.566
 5439TIP3    H116260   5.590   3.925   3.534
 5439TIP3    H216261   5.714   3.838   3.537
 5440TIP3   OH216262   4.149   3.685   3.574
 5440TIP3    H116263   4.196   3.687   3.490
 5440TIP3    H216264   4.058   3.703   3.551
 5441TIP3   OH216265   5.574   7.021   5.916
 5441TIP3    H116266   5.658   7.000   5.956
 5441TIP3    H216267   5.573   7.116   5.911
 5442TIP3   OH216268   4.536   4.793   3.172
 5442TIP3    H116269   4.512   4.800   3.079
 5442TIP3    H216270   4.452   4.799   3.219
 5443TIP3   OH216271   4.873   7.569   1.308
 5443TIP3    H116272   4.954   7.595   1.265
 5443TIP3    H216273   4.900   7.508   1.377
 5444TIP3   OH216274   1.183   3.055   6.222
 5444TIP3    H116275   1.133   3.089   6.147
 5444TIP3    H216276   1.184   3.127   6.285
 5445TIP3   OH216277   5.345   2.093   0.177
 5445TIP3    H116278   5.410   2.086   0.247
 5445TIP3    H216279   5.335   2.004   0.143
 5446TIP3   OH216280   0.085   3.343   3.678
 5446TIP3    H116281   0.116   3.312   3.594
 5446TIP3    H216282   0.136   3.293   3.742
 5447TIP3   OH216283   1.599   0.760   3.003
 5447TIP3    H116284   1.646   0.679   3.020
 5447TIP3    H216285   1.635   0.822   3.067
 5448TIP3   OH216286   4.112   7.410   3.897
 5448TIP3    H116287   4.077   7.446   3.979
 5448TIP3    H216288   4.082   7.319   3.897
 5449TIP3   OH216289   7.215   5.365   5.556
 5449TIP3    H116290   7.251   5.319   5.632
 5449TIP3    H216291   7.256   5.322   5.481
 5450TIP3   OH216292   0.419   6.207   0.020
 5450TIP3    H116293   0.498   6.156   0.005
 5450TIP3    H216294   0.398   6.193   0.113
 5451TIP3   OH216295   7.925   0.796   4.407
 5451TIP3    H116296   7.921   0.701   4.393
 5451TIP3    H216297   7.857   0.814   4.471
 5452TIP3   OH216298   6.891   3.941   2.559
 5452TIP3    H116299   6.842   3.940   2.477
 5452TIP3    H216300   6.833   3.985   2.622
 5453TIP3   OH216301   0.881   4.962   4.344
 5453TIP3    H116302   0.825   5.024   4.390
 5453TIP3    H216303   0.916   5.011   4.270
 5454TIP3   OH216304   1.156   1.001   0.493
 5454TIP3    H116305   1.207   0.926   0.523
 5454TIP3    H216306   1.199   1.077   0.533
 5455TIP3   OH216307   6.766   4.378   4.204
 5455TIP3    H116308   6.821   4.356   4.129
 5455TIP3    H216309   6.817   4.442   4.253
 5456TIP3   OH216310   3.246   4.673   0.204
 5456TIP3    H116311   3.306   4.741   0.172
 5456TIP3    H216312   3.222   4.623   0.127
 5457TIP3   OH216313   1.294   7.160   3.178
 5457TIP3    H116314   1.318   7.219   3.106
 5457TIP3    H216315   1.374   7.155   3.231
 5458TIP3   OH216316   5.373   7.763   0.343
 5458TIP3    H116317   5.432   7.694   0.372
 5458TIP3    H216318   5.406   7.842   0.386
 5459TIP3   OH216319   1.020   7.096   2.775
 5459TIP3    H116320   1.022   7.014   2.727
 5459TIP3    H216321   1.088   7.087   2.842
 5460TIP3   OH216322   3.929   4.942   4.121
 5460TIP3    H116323   3.909   4.854   4.088
 5460TIP3    H216324   3.863   4.999   4.081
 5461TIP3   OH216325   0.942   1.906   2.413
 5461TIP3    H116326   0.958   1.953   2.495
 5461TIP3    H216327   1.024   1.916   2.364
 5462TIP3   OH216328   3.562   2.039   4.020
 5462TIP3    H116329   3.524   2.111   4.070
 5462TIP3    H216330   3.656   2.054   4.024
 5463TIP3   OH216331   7.340   7.528   5.512
 5463TIP3    H116332   7.349   7.595   5.444
 5463TIP3    H216333   7.292   7.457   5.470
 5464TIP3   OH216334   6.722   5.916   5.372
 5464TIP3    H116335   6.629   5.915   5.395
 5464TIP3    H216336   6.766   5.880   5.449
 5465TIP3   OH216337   8.036   7.295   2.131
 5465TIP3    H116338   8.025   7.351   2.054
 5465TIP3    H216339   7.955   7.306   2.180
 5466TIP3   OH216340   3.249   4.647   4.125
 5466TIP3    H116341   3.266   4.555   4.147
 5466TIP3    H216342   3.335   4.685   4.110
 5467TIP3   OH216343   1.015   4.460   4.666
 5467TIP3    H116344   1.010   4.429   4.576
 5467TIP3    H216345   0.942   4.522   4.673
 5468TIP3   OH216346   0.115   6.644   2.447
 5468TIP3    H116347   0.084   6.725   2.486
 5468TIP3    H216348   0.162   6.600   2.517
 5469TIP3   OH216349   0.961   3.101   1.531
 5469TIP3    H116350   0.928   3.098   1.441
 5469TIP3    H216351   0.901   3.161   1.576
 5470TIP3   OH216352   7.461   7.184   3.425
 5470TIP3    H116353   7.468   7.204   3.518
 5470TIP3    H216354   7.460   7.270   3.382
 5471TIP3   OH216355   3.774   4.684   3.379
 5471TIP3    H116356   3.775   4.767   3.331
 5471TIP3    H216357   3.828   4.700   3.455
 5472TIP3   OH216358   0.474   5.727   0.576
 5472TIP3    H116359   0.476   5.715   0.671
 5472TIP3    H216360   0.532   5.802   0.561
 5473TIP3   OH216361   4.966   1.146   2.403
 5473TIP3    H116362   4.925   1.158   2.317
 5473TIP3    H216363   5.048   1.193   2.397
 5474TIP3   OH216364   6.212   5.331   0.477
 5474TIP3    H116365   6.237   5.423   0.481
 5474TIP3    H216366   6.155   5.324   0.401
 5475TIP3   OH216367   7.103   5.560   5.698
 5475TIP3    H116368   7.009   5.551   5.710
 5475TIP3    H216369   7.124   5.502   5.624
 5476TIP3   OH216370   2.454   5.315   6.263
 5476TIP3    H116371   2.510   5.241   6.240
 5476TIP3    H216372   2.515   5.383   6.292
 5477TIP3   OH216373   4.973   4.636   6.249
 5477TIP3    H116374   4.933   4.661   6.332
 5477TIP3    H216375   4.915   4.674   6.183
 5478TIP3   OH216376   3.143   5.024   1.759
 5478TIP3    H116377   3.105   5.102   1.798
 5478TIP3    H216378   3.148   5.043   1.666
 5479TIP3   OH216379   7.031   7.385   3.531
 5479TIP3    H116380   6.977   7.389   3.452
 5479TIP3    H216381   7.093   7.314   3.514
 5480TIP3   OH216382   5.582   4.662   0.614
 5480TIP3    H116383   5.575   4.586   0.671
 5480TIP3    H216384   5.641   4.721   0.660
 5481TIP3   OH216385   3.621   0.961   2.804
 5481TIP3    H116386   3.555   0.968   2.873
 5481TIP3    H216387   3.578   0.910   2.735
 5482TIP3   OH216388   4.382   4.938   6.428
 5482TIP3    H116389   4.421   4.963   6.512
 5482TIP3    H216390   4.448   4.962   6.363
 5483TIP3   OH216391   4.817   1.255   0.507
 5483TIP3    H116392   4.899   1.221   0.472
 5483TIP3    H216393   4.819   1.235   0.600
 5484TIP3   OH216394   2.003   0.657   5.382
 5484TIP3    H116395   1.927   0.711   5.406
 5484TIP3    H216396   1.981   0.623   5.295
 5485TIP3   OH216397   5.272   6.178   4.942
 5485TIP3    H116398   5.251   6.115   4.873
 5485TIP3    H216399   5.267   6.127   5.023
 5486TIP3   OH216400   4.037   0.154   0.089
 5486TIP3    H116401   3.953   0.111   0.103
 5486TIP3    H216402   4.097   0.110   0.149
 5487TIP3   OH216403   2.100   0.144   0.506
 5487TIP3    H116404   2.023   0.187   0.470
 5487TIP3    H216405   2.137   0.095   0.432
 5488TIP3   OH216406   6.832   2.134   2.476
 5488TIP3    H116407   6.746   2.134   2.517
 5488TIP3    H216408   6.861   2.225   2.482
 5489TIP3   OH216409   6.914   5.888   4.905
 5489TIP3    H116410   6.858   5.867   4.830
 5489TIP3    H216411   6.870   5.849   4.980
 5490TIP3   OH216412   1.834   6.553   4.460
 5490TIP3    H116413   1.759   6.610   4.476
 5490TIP3    H216414   1.805   6.494   4.391
 5491TIP3   OH216415   2.776   2.997   0.448
 5491TIP3    H116416   2.822   3.002   0.532
 5491TIP3    H216417   2.687   2.971   0.470
 5492TIP3   OH216418   3.027   4.620   1.833
 5492TIP3    H116419   2.964   4.657   1.895
 5492TIP3    H216420   3.096   4.686   1.827
 5493TIP3   OH216421   4.189   2.295   3.855
 5493TIP3    H116422   4.176   2.385   3.826
 5493TIP3    H216423   4.271   2.269   3.814
 5494TIP3   OH216424   2.075   1.666   5.257
 5494TIP3    H116425   2.150   1.618   5.291
 5494TIP3    H216426   2.076   1.650   5.163
 5495TIP3   OH216427   7.461   7.258   4.617
 5495TIP3    H116428   7.461   7.339   4.669
 5495TIP3    H216429   7.371   7.249   4.587
 5496TIP3   OH216430   6.400   0.923   5.607
 5496TIP3    H116431   6.486   0.920   5.565
 5496TIP3    H216432   6.345   0.868   5.551
 5497TIP3   OH216433   7.342   4.716   5.407
 5497TIP3    H116434   7.400   4.696   5.480
 5497TIP3    H216435   7.292   4.792   5.435
 5498TIP3   OH216436   0.594   4.003   6.021
 5498TIP3    H116437   0.638   4.073   5.972
 5498TIP3    H216438   0.638   4.001   6.106
 5499TIP3   OH216439   7.031   1.129   4.432
 5499TIP3    H116440   6.968   1.125   4.360
 5499TIP3    H216441   6.985   1.174   4.503
 5500TIP3   OH216442   6.918   4.162   3.876
 5500TIP3    H116443   6.865   4.083   3.882
 5500TIP3    H216444   6.981   4.143   3.806
 5501TIP3   OH216445   7.905   5.926   6.046
 5501TIP3    H116446   7.929   5.963   6.131
 5501TIP3    H216447   7.978   5.947   5.988
 5502TIP3   OH216448   7.407   5.585   6.360
 5502TIP3    H116449   7.391   5.534   6.440
 5502TIP3    H216450   7.495   5.620   6.371
 5503TIP3   OH216451   5.231   0.570   2.271
 5503TIP3    H116452   5.204   0.594   2.360
 5503TIP3    H216453   5.151   0.536   2.231
 5504TIP3   OH216454   7.724   2.650   6.054
 5504TIP3    H116455   7.776   2.706   6.111
 5504TIP3    H216456   7.714   2.568   6.103
 5505TIP3   OH216457   4.099   4.133   6.129
 5505TIP3    H116458   4.050   4.085   6.062
 5505TIP3    H216459   4.080   4.087   6.210
 5506TIP3   OH216460   0.468   2.389   0.096
 5506TIP3    H116461   0.500   2.428   0.014
 5506TIP3    H216462   0.533   2.414   0.161
 5507TIP3   OH216463   5.035   4.694   4.864
 5507TIP3    H116464   5.127   4.700   4.837
 5507TIP3    H216465   4.987   4.678   4.782
 5508TIP3   OH216466   0.748   0.227   4.594
 5508TIP3    H116467   0.720   0.288   4.526
 5508TIP3    H216468   0.772   0.283   4.668
 5509TIP3   OH216469   6.357   1.433   0.546
 5509TIP3    H116470   6.425   1.380   0.586
 5509TIP3    H216471   6.349   1.399   0.457
 5510TIP3   OH216472   7.351   4.633   6.097
 5510TIP3    H116473   7.369   4.623   6.191
 5510TIP3    H216474   7.421   4.691   6.066
 5511TIP3   OH216475   6.650   2.337   1.057
 5511TIP3    H116476   6.702   2.385   0.994
 5511TIP3    H216477   6.645   2.248   1.022
 5512TIP3   OH216478   1.701   0.580   6.158
 5512TIP3    H116479   1.781   0.570   6.105
 5512TIP3    H216480   1.661   0.493   6.157
 5513TIP3   OH216481   5.120   0.653   5.723
 5513TIP3    H116482   5.078   0.730   5.762
 5513TIP3    H216483   5.169   0.614   5.795
 5514TIP3   OH216484   7.667   0.721   5.770
 5514TIP3    H116485   7.663   0.694   5.678
 5514TIP3    H216486   7.654   0.640   5.819
 5515TIP3   OH216487   5.741   3.319   3.804
 5515TIP3    H116488   5.724   3.370   3.883
 5515TIP3    H216489   5.653   3.298   3.770
 5516TIP3   OH216490   1.882   4.368   0.044
 5516TIP3    H116491   1.913   4.400  -0.041
 5516TIP3    H216492   1.936   4.292   0.063
 5517TIP3   OH216493   0.717   0.857   5.359
 5517TIP3    H116494   0.700   0.798   5.433
 5517TIP3    H216495   0.759   0.933   5.399
 5518TIP3   OH216496   7.035   5.161   1.687
 5518TIP3    H116497   7.023   5.174   1.593
 5518TIP3    H216498   7.111   5.214   1.710
 5519TIP3   OH216499   2.512   6.657   6.105
 5519TIP3    H116500   2.553   6.580   6.145
 5519TIP3    H216501   2.564   6.673   6.026
 5520TIP3   OH216502   4.745   0.656   3.736
 5520TIP3    H116503   4.821   0.694   3.692
 5520TIP3    H216504   4.672   0.675   3.678
 5521TIP3   OH216505   7.274   2.755   5.672
 5521TIP3    H116506   7.298   2.848   5.680
 5521TIP3    H216507   7.279   2.721   5.761
 5522TIP3   OH216508   1.092   5.385   6.358
 5522TIP3    H116509   1.065   5.470   6.394
 5522TIP3    H216510   1.060   5.321   6.422
 5523TIP3   OH216511   0.452   1.325   0.267
 5523TIP3    H116512   0.365   1.286   0.274
 5523TIP3    H216513   0.441   1.398   0.207
 5524TIP3   OH216514   5.173   5.113   5.158
 5524TIP3    H116515   5.128   5.155   5.232
 5524TIP3    H216516   5.108   5.112   5.088
 5525TIP3   OH216517   6.451   2.154   1.679
 5525TIP3    H116518   6.511   2.165   1.753
 5525TIP3    H216519   6.366   2.179   1.713
 5526TIP3   OH216520   2.900   5.536   1.615
 5526TIP3    H116521   2.956   5.481   1.561
 5526TIP3    H216522   2.822   5.482   1.631
 5527TIP3   OH216523   5.117   1.109   3.687
 5527TIP3    H116524   5.162   1.070   3.762
 5527TIP3    H216525   5.099   1.199   3.714
 5528TIP3   OH216526   6.578   2.110   2.606
 5528TIP3    H116527   6.597   2.157   2.687
 5528TIP3    H216528   6.520   2.039   2.632
 5529TIP3   OH216529   2.362   6.163   0.505
 5529TIP3    H116530   2.419   6.117   0.444
 5529TIP3    H216531   2.419   6.189   0.577
 5530TIP3   OH216532   7.838   0.173   3.685
 5530TIP3    H116533   7.800   0.086   3.671
 5530TIP3    H216534   7.766   0.234   3.671
 5531TIP3   OH216535   5.623   2.742   4.085
 5531TIP3    H116536   5.671   2.663   4.110
 5531TIP3    H216537   5.614   2.792   4.166
 5532TIP3   OH216538   7.500   7.252   4.978
 5532TIP3    H116539   7.478   7.345   4.989
 5532TIP3    H216540   7.415   7.210   4.964
 5533TIP3   OH216541   4.881   1.580   4.544
 5533TIP3    H116542   4.817   1.647   4.522
 5533TIP3    H216543   4.838   1.527   4.611
 5534TIP3   OH216544   1.026   5.290   5.762
 5534TIP3    H116545   1.053   5.306   5.853
 5534TIP3    H216546   1.101   5.317   5.710
 5535TIP3   OH216547   6.284   0.261   1.585
 5535TIP3    H116548   6.220   0.286   1.651
 5535TIP3    H216549   6.360   0.233   1.635
 5536TIP3   OH216550   6.014   7.683   6.012
 5536TIP3    H116551   6.030   7.772   5.981
 5536TIP3    H216552   6.046   7.627   5.942
 5537TIP3   OH216553   0.769   7.689   5.809
 5537TIP3    H116554   0.787   7.635   5.886
 5537TIP3    H216555   0.782   7.779   5.839
 5538TIP3   OH216556   4.353   4.168   6.370
 5538TIP3    H116557   4.360   4.073   6.373
 5538TIP3    H216558   4.275   4.188   6.423
 5539TIP3   OH216559   6.131   0.700   3.966
 5539TIP3    H116560   6.201   0.711   3.902
 5539TIP3    H216561   6.171   0.651   4.038
 5540TIP3   OH216562   2.319   0.530   3.326
 5540TIP3    H116563   2.370   0.529   3.245
 5540TIP3    H216564   2.261   0.606   3.318
 5541TIP3   OH216565   4.627   7.329   3.141
 5541TIP3    H116566   4.628   7.394   3.071
 5541TIP3    H216567   4.707   7.279   3.130
 5542TIP3   OH216568   7.859   3.676   4.054
 5542TIP3    H116569   7.913   3.659   4.131
 5542TIP3    H216570   7.913   3.648   3.980
 5543TIP3   OH216571   3.087   1.024   0.053
 5543TIP3    H116572   3.088   1.103   0.107
 5543TIP3    H216573   2.995   1.001   0.046
 5544TIP3   OH216574   7.721   4.767   0.906
 5544TIP3    H116575   7.756   4.778   0.995
 5544TIP3    H216576   7.700   4.674   0.900
 5545TIP3   OH216577   2.638   6.064   6.304
 5545TIP3    H116578   2.591   5.983   6.286
 5545TIP3    H216579   2.590   6.104   6.377
 5546TIP3   OH216580   3.378   0.346   5.108
 5546TIP3    H116581   3.321   0.281   5.148
 5546TIP3    H216582   3.327   0.380   5.034
 5547TIP3   OH216583   5.901   1.631   1.334
 5547TIP3    H116584   5.874   1.614   1.244
 5547TIP3    H216585   5.945   1.716   1.331
 5548TIP3   OH216586   5.171   1.849   3.845
 5548TIP3    H116587   5.190   1.811   3.759
 5548TIP3    H216588   5.160   1.773   3.902
 5549TIP3   OH216589   6.716   5.025   3.331
 5549TIP3    H116590   6.734   4.989   3.418
 5549TIP3    H216591   6.792   5.002   3.279
 5550TIP3   OH216592   0.858   5.499   3.241
 5550TIP3    H116593   0.809   5.562   3.188
 5550TIP3    H216594   0.866   5.540   3.327
 5551TIP3   OH216595   7.814   2.737   2.698
 5551TIP3    H116596   7.790   2.797   2.768
 5551TIP3    H216597   7.771   2.655   2.720
 5552TIP3   OH216598   0.447   7.784   6.041
 5552TIP3    H116599   0.419   7.864   5.997
 5552TIP3    H216600   0.429   7.714   5.978
 5553TIP3   OH216601   2.682   3.322   6.480
 5553TIP3    H116602   2.708   3.321   6.388
 5553TIP3    H216603   2.693   3.413   6.508
 5554TIP3   OH216604   7.162   0.958   0.074
 5554TIP3    H116605   7.225   0.992   0.012
 5554TIP3    H216606   7.088   0.929   0.021
 5555TIP3   OH216607   5.022   3.091   4.410
 5555TIP3    H116608   4.971   3.108   4.489
 5555TIP3    H216609   5.073   3.171   4.397
 5556TIP3   OH216610   5.406   7.700   5.576
 5556TIP3    H116611   5.316   7.671   5.589
 5556TIP3    H216612   5.445   7.632   5.521
 5557TIP3   OH216613   4.881   7.509   5.062
 5557TIP3    H116614   4.967   7.468   5.079
 5557TIP3    H216615   4.833   7.444   5.011
 5558TIP3   OH216616   7.017   0.136   0.944
 5558TIP3    H116617   6.994   0.218   0.900
 5558TIP3    H216618   6.961   0.134   1.021
 5559TIP3   OH216619   3.983   4.870   2.697
 5559TIP3    H116620   3.904   4.912   2.731
 5559TIP3    H216621   3.970   4.777   2.715
 5560TIP3   OH216622   1.467   0.695   3.818
 5560TIP3    H116623   1.469   0.621   3.880
 5560TIP3    H216624   1.389   0.744   3.841
 5561TIP3   OH216625   5.588   3.099   6.356
 5561TIP3    H116626   5.544   3.080   6.439
 5561TIP3    H216627   5.567   3.024   6.300
 5562TIP3   OH216628   7.032   4.300   2.857
 5562TIP3    H116629   6.964   4.366   2.861
 5562TIP3    H216630   7.107   4.339   2.902
 5563TIP3   OH216631   7.009   3.121   3.053
 5563TIP3    H116632   6.949   3.061   3.010
 5563TIP3    H216633   7.020   3.086   3.141
 5564TIP3   OH216634   1.796   4.096   2.664
 5564TIP3    H116635   1.771   4.178   2.706
 5564TIP3    H216636   1.836   4.044   2.734
 5565TIP3   OH216637   5.691   1.441   0.219
 5565TIP3    H116638   5.683   1.530   0.184
 5565TIP3    H216639   5.676   1.450   0.313
 5566TIP3   OH216640   3.201   7.332   2.104
 5566TIP3    H116641   3.193   7.293   2.017
 5566TIP3    H216642   3.205   7.426   2.087
 5567TIP3   OH216643   6.606   1.357   0.283
 5567TIP3    H116644   6.691   1.336   0.321
 5567TIP3    H216645   6.600   1.452   0.287
 5568TIP3   OH216646   8.140   0.661   3.952
 5568TIP3    H116647   8.216   0.718   3.942
 5568TIP3    H216648   8.070   0.720   3.980
 5569TIP3   OH216649   3.732   4.670   6.065
 5569TIP3    H116650   3.732   4.738   6.133
 5569TIP3    H216651   3.710   4.589   6.111
 5570TIP3   OH216652   8.078   4.950   4.359
 5570TIP3    H116653   8.143   5.000   4.309
 5570TIP3    H216654   8.050   4.881   4.298
 5571TIP3   OH216655   0.600   1.904   2.698
 5571TIP3    H116656   0.550   1.972   2.743
 5571TIP3    H216657   0.644   1.856   2.768
 5572TIP3   OH216658   2.664   7.800   3.223
 5572TIP3    H116659   2.663   7.848   3.306
 5572TIP3    H216660   2.699   7.863   3.160
 5573TIP3   OH216661   0.761   7.697   1.305
 5573TIP3    H116662   0.820   7.685   1.231
 5573TIP3    H216663   0.815   7.681   1.382
 5574TIP3   OH216664   4.486   0.179   3.181
 5574TIP3    H116665   4.457   0.169   3.272
 5574TIP3    H216666   4.407   0.204   3.133
 5575TIP3   OH216667   7.306   2.967   2.112
 5575TIP3    H116668   7.319   2.994   2.203
 5575TIP3    H216669   7.285   2.874   2.118
 5576TIP3   OH216670   3.327   7.645   5.082
 5576TIP3    H116671   3.235   7.668   5.070
 5576TIP3    H216672   3.346   7.667   5.173
 5577TIP3   OH216673   7.186   4.698   0.318
 5577TIP3    H116674   7.259   4.743   0.274
 5577TIP3    H216675   7.166   4.624   0.261
 5578TIP3   OH216676   8.014   3.753   2.180
 5578TIP3    H116677   7.954   3.761   2.254
 5578TIP3    H216678   8.089   3.705   2.215
 5579TIP3   OH216679   2.051   2.592   3.107
 5579TIP3    H116680   2.058   2.501   3.134
 5579TIP3    H216681   2.122   2.604   3.044
 5580TIP3   OH216682   3.109   1.555   2.262
 5580TIP3    H116683   3.090   1.623   2.327
 5580TIP3    H216684   3.023   1.535   2.223
 5581TIP3   OH216685   0.629   5.035   3.682
 5581TIP3    H116686   0.672   5.050   3.598
 5581TIP3    H216687   0.567   4.964   3.666
 5582TIP3   OH216688   4.956   0.753   2.996
 5582TIP3    H116689   4.918   0.835   2.965
 5582TIP3    H216690   5.035   0.741   2.944
 5583TIP3   OH216691   2.354   0.156   3.103
 5583TIP3    H116692   2.421   0.172   3.036
 5583TIP3    H216693   2.309   0.078   3.073
 5584TIP3   OH216694   8.017   3.834   0.591
 5584TIP3    H116695   8.057   3.792   0.667
 5584TIP3    H216696   8.063   3.797   0.516
 5585TIP3   OH216697   5.507   6.692   4.844
 5585TIP3    H116698   5.566   6.619   4.826
 5585TIP3    H216699   5.468   6.714   4.759
 5586TIP3   OH216700   5.455   0.807   5.158
 5586TIP3    H116701   5.395   0.848   5.096
 5586TIP3    H216702   5.425   0.716   5.165
 5587TIP3   OH216703   0.021   4.032   4.564
 5587TIP3    H116704   0.074   3.973   4.618
 5587TIP3    H216705   0.067   4.116   4.566
 5588TIP3   OH216706   7.627   5.092   1.962
 5588TIP3    H116707   7.588   5.123   2.044
 5588TIP3    H216708   7.666   5.171   1.923
 5589TIP3   OH216709   0.343   1.688   1.468
 5589TIP3    H116710   0.360   1.678   1.562
 5589TIP3    H216711   0.374   1.605   1.430
 5590TIP3   OH216712   3.964   5.176   2.581
 5590TIP3    H116713   3.940   5.125   2.658
 5590TIP3    H216714   4.007   5.254   2.616
 5591TIP3   OH216715   8.199   0.527   6.583
 5591TIP3    H116716   8.167   0.579   6.509
 5591TIP3    H216717   8.133   0.459   6.595
 5592TIP3   OH216718   6.533   0.083   0.516
 5592TIP3    H116719   6.475   0.008   0.532
 5592TIP3    H216720   6.479   0.144   0.466
 5593TIP3   OH216721   7.834   3.063   6.111
 5593TIP3    H116722   7.873   3.021   6.035
 5593TIP3    H216723   7.834   3.156   6.090
 5594TIP3   OH216724   7.900   5.633   2.487
 5594TIP3    H116725   7.953   5.693   2.539
 5594TIP3    H216726   7.952   5.552   2.483
 5595TIP3   OH216727   1.756   2.241   4.447
 5595TIP3    H116728   1.845   2.237   4.480
 5595TIP3    H216729   1.762   2.299   4.370
 5596TIP3   OH216730   0.003   4.671   6.122
 5596TIP3    H116731  -0.019   4.756   6.084
 5596TIP3    H216732   0.096   4.677   6.143
 5597TIP3   OH216733   5.353   0.963   5.756
 5597TIP3    H116734   5.366   0.890   5.817
 5597TIP3    H216735   5.441   0.987   5.727
 5598TIP3   OH216736   4.484   3.065   2.133
 5598TIP3    H116737   4.465   3.022   2.216
 5598TIP3    H216738   4.399   3.085   2.095
 5599TIP3   OH216739   2.528   6.727   5.155
 5599TIP3    H116740   2.613   6.685   5.142
 5599TIP3    H216741   2.479   6.667   5.210
 5600TIP3   OH216742   2.498   6.131   6.696
 5600TIP3    H116743   2.529   6.183   6.622
 5600TIP3    H216744   2.426   6.079   6.661
 5601TIP3   OH216745   1.176   5.122   3.367
 5601TIP3    H116746   1.244   5.057   3.353
 5601TIP3    H216747   1.148   5.147   3.279
 5602TIP3   OH216748   8.264   2.860   2.464
 5602TIP3    H116749   8.172   2.882   2.478
 5602TIP3    H216750   8.304   2.942   2.433
 5603TIP3   OH216751   6.111   7.453   3.485
 5603TIP3    H116752   6.105   7.393   3.410
 5603TIP3    H216753   6.145   7.398   3.556
 5604TIP3   OH216754   7.153   0.074   2.729
 5604TIP3    H116755   7.111   0.144   2.780
 5604TIP3    H216756   7.080   0.028   2.688
 5605TIP3   OH216757   5.271   1.736   1.668
 5605TIP3    H116758   5.265   1.689   1.751
 5605TIP3    H216759   5.255   1.827   1.691
 5606TIP3   OH216760   6.527   3.883   3.592
 5606TIP3    H116761   6.482   3.939   3.654
 5606TIP3    H216762   6.504   3.794   3.618
 5607TIP3   OH216763   5.557   3.802   2.653
 5607TIP3    H116764   5.605   3.844   2.725
 5607TIP3    H216765   5.626   3.762   2.599
 5608TIP3   OH216766   5.752   4.762   3.383
 5608TIP3    H116767   5.734   4.674   3.352
 5608TIP3    H216768   5.722   4.763   3.474
 5609TIP3   OH216769   8.219   4.804   4.789
 5609TIP3    H116770   8.288   4.779   4.850
 5609TIP3    H216771   8.151   4.844   4.843
 5610TIP3   OH216772   4.165   7.235   0.456
 5610TIP3    H116773   4.078   7.195   0.463
 5610TIP3    H216774   4.153   7.325   0.488
 5611TIP3   OH216775   4.799   7.217   0.905
 5611TIP3    H116776   4.711   7.231   0.941
 5611TIP3    H216777   4.856   7.271   0.961
 5612TIP3   OH216778   3.271   7.198   6.116
 5612TIP3    H116779   3.200   7.236   6.168
 5612TIP3    H216780   3.258   7.234   6.028
 5613TIP3   OH216781   4.432   4.411   0.580
 5613TIP3    H116782   4.462   4.499   0.555
 5613TIP3    H216783   4.490   4.386   0.652
 5614TIP3   OH216784   5.674   6.352   1.715
 5614TIP3    H116785   5.598   6.321   1.665
 5614TIP3    H216786   5.671   6.302   1.796
 5615TIP3   OH216787   1.840   0.116   2.771
 5615TIP3    H116788   1.812   0.192   2.720
 5615TIP3    H216789   1.886   0.153   2.846
 5616TIP3   OH216790   2.032   1.273   0.679
 5616TIP3    H116791   2.094   1.345   0.667
 5616TIP3    H216792   2.082   1.205   0.724
 5617TIP3   OH216793   1.323   7.156   1.002
 5617TIP3    H116794   1.418   7.167   0.997
 5617TIP3    H216795   1.290   7.195   0.921
 5618TIP3   OH216796   8.295   0.902   3.176
 5618TIP3    H116797   8.349   0.917   3.253
 5618TIP3    H216798   8.208   0.935   3.200
 5619TIP3   OH216799   6.090   6.787   2.213
 5619TIP3    H116800   6.011   6.840   2.205
 5619TIP3    H216801   6.163   6.849   2.205
 5620TIP3   OH216802   5.471   5.712   2.687
 5620TIP3    H116803   5.404   5.749   2.629
 5620TIP3    H216804   5.438   5.730   2.775
 5621TIP3   OH216805   1.237   0.044   3.173
 5621TIP3    H116806   1.206  -0.020   3.109
 5621TIP3    H216807   1.246  -0.006   3.255
 5622TIP3   OH216808   8.247   2.452   2.827
 5622TIP3    H116809   8.158   2.450   2.792
 5622TIP3    H216810   8.260   2.543   2.854
 5623TIP3   OH216811   6.839   7.348   5.416
 5623TIP3    H116812   6.783   7.282   5.456
 5623TIP3    H216813   6.928   7.326   5.445
 5624TIP3   OH216814   3.388   5.924   5.442
 5624TIP3    H116815   3.403   5.992   5.508
 5624TIP3    H216816   3.381   5.843   5.492
 5625TIP3   OH216817   8.292   7.828   2.806
 5625TIP3    H116818   8.207   7.866   2.786
 5625TIP3    H216819   8.317   7.868   2.890
 5626TIP3   OH216820   3.659   5.152   1.165
 5626TIP3    H116821   3.568   5.139   1.137
 5626TIP3    H216822   3.699   5.065   1.156
 5627TIP3   OH216823   3.592   5.505   1.611
 5627TIP3    H116824   3.506   5.536   1.640
 5627TIP3    H216825   3.585   5.410   1.611
 5628TIP3   OH216826   5.307   2.676   0.566
 5628TIP3    H116827   5.306   2.581   0.574
 5628TIP3    H216828   5.377   2.694   0.504
 5629TIP3   OH216829   7.623   5.635   5.412
 5629TIP3    H116830   7.659   5.576   5.479
 5629TIP3    H216831   7.529   5.639   5.432
 5630TIP3   OH216832   6.527   4.464   2.927
 5630TIP3    H116833   6.522   4.408   2.850
 5630TIP3    H216834   6.506   4.406   3.000
 5631TIP3   OH216835   7.045   7.417   0.708
 5631TIP3    H116836   6.950   7.431   0.709
 5631TIP3    H216837   7.056   7.326   0.738
 5632TIP3   OH216838   1.417   4.851   0.888
 5632TIP3    H116839   1.344   4.883   0.941
 5632TIP3    H216840   1.385   4.857   0.798
 5633TIP3   OH216841   5.012   0.341   2.501
 5633TIP3    H116842   4.949   0.276   2.469
 5633TIP3    H216843   4.959   0.416   2.526
 5634TIP3   OH216844   3.654   3.566   6.659
 5634TIP3    H116845   3.666   3.565   6.564
 5634TIP3    H216846   3.741   3.580   6.695
 5635TIP3   OH216847   7.890   4.921   3.680
 5635TIP3    H116848   7.850   4.840   3.647
 5635TIP3    H216849   7.817   4.969   3.720
 5636TIP3   OH216850   5.048   5.123   0.804
 5636TIP3    H116851   4.954   5.125   0.789
 5636TIP3    H216852   5.086   5.108   0.718
 5637TIP3   OH216853   7.847   0.370   4.581
 5637TIP3    H116854   7.869   0.430   4.510
 5637TIP3    H216855   7.879   0.413   4.660
 5638TIP3   OH216856   2.394   3.840   0.219
 5638TIP3    H116857   2.463   3.775   0.204
 5638TIP3    H216858   2.322   3.812   0.163
 5639TIP3   OH216859   7.202   3.326   1.283
 5639TIP3    H116860   7.148   3.394   1.245
 5639TIP3    H216861   7.238   3.365   1.363
 5640TIP3   OH216862   7.842   6.023   1.021
 5640TIP3    H116863   7.889   6.106   1.022
 5640TIP3    H216864   7.784   6.028   0.945
 5641TIP3   OH216865   7.987   6.253   4.610
 5641TIP3    H116866   7.916   6.254   4.674
 5641TIP3    H216867   8.005   6.160   4.595
 5642TIP3   OH216868   1.013   0.534   4.063
 5642TIP3    H116869   0.998   0.449   4.105
 5642TIP3    H216870   0.984   0.598   4.129
 5643TIP3   OH216871   3.325   7.654   0.559
 5643TIP3    H116872   3.247   7.704   0.584
 5643TIP3    H216873   3.311   7.633   0.467
 5644TIP3   OH216874   5.396   5.109   2.789
 5644TIP3    H116875   5.352   5.175   2.842
 5644TIP3    H216876   5.348   5.028   2.808
 5645TIP3   OH216877   6.889   7.386   3.799
 5645TIP3    H116878   6.928   7.416   3.717
 5645TIP3    H216879   6.945   7.314   3.827
 5646TIP3   OH216880   1.817   4.501   4.947
 5646TIP3    H116881   1.855   4.563   5.011
 5646TIP3    H216882   1.773   4.435   5.001
 5647TIP3   OH216883   2.151   6.724   2.751
 5647TIP3    H116884   2.077   6.759   2.701
 5647TIP3    H216885   2.214   6.694   2.685
 5648TIP3   OH216886   0.294   2.462   5.762
 5648TIP3    H116887   0.296   2.555   5.785
 5648TIP3    H216888   0.348   2.456   5.683
 5649TIP3   OH216889   7.048   5.964   2.338
 5649TIP3    H116890   6.978   5.921   2.291
 5649TIP3    H216891   7.035   5.939   2.430
 5650TIP3   OH216892   5.447   1.464   6.338
 5650TIP3    H116893   5.497   1.518   6.400
 5650TIP3    H216894   5.414   1.391   6.390
 5651TIP3   OH216895   4.100   6.474   4.475
 5651TIP3    H116896   4.173   6.442   4.528
 5651TIP3    H216897   4.111   6.430   4.390
 5652TIP3   OH216898   1.400   6.566   4.436
 5652TIP3    H116899   1.328   6.524   4.389
 5652TIP3    H216900   1.477   6.511   4.416
 5653TIP3   OH216901   2.480   1.496   2.898
 5653TIP3    H116902   2.441   1.582   2.887
 5653TIP3    H216903   2.574   1.512   2.902
 5654TIP3   OH216904   0.841   3.913   1.246
 5654TIP3    H116905   0.753   3.919   1.282
 5654TIP3    H216906   0.848   3.987   1.186
 5655TIP3   OH216907   1.518   2.963   1.341
 5655TIP3    H116908   1.461   3.007   1.404
 5655TIP3    H216909   1.462   2.897   1.300
 5656TIP3   OH216910   7.697   5.182   5.630
 5656TIP3    H116911   7.782   5.179   5.673
 5656TIP3    H216912   7.640   5.227   5.692
 5657TIP3   OH216913   2.221   3.602   4.569
 5657TIP3    H116914   2.215   3.590   4.664
 5657TIP3    H216915   2.226   3.513   4.534
 5658TIP3   OH216916   6.689   1.365   0.944
 5658TIP3    H116917   6.597   1.389   0.959
 5658TIP3    H216918   6.726   1.440   0.898
 5659TIP3   OH216919   2.647   2.974   2.597
 5659TIP3    H116920   2.589   2.928   2.536
 5659TIP3    H216921   2.693   3.038   2.543
 5660TIP3   OH216922   7.925   4.586   4.419
 5660TIP3    H116923   7.944   4.571   4.511
 5660TIP3    H216924   7.872   4.511   4.392
 5661TIP3   OH216925   5.150   5.976   4.820
 5661TIP3    H116926   5.101   5.955   4.900
 5661TIP3    H216927   5.138   5.899   4.764
 5662TIP3   OH216928   4.450   2.149   0.282
 5662TIP3    H116929   4.487   2.203   0.352
 5662TIP3    H216930   4.506   2.164   0.207
 5663TIP3   OH216931   8.000   2.599   2.119
 5663TIP3    H116932   8.025   2.542   2.191
 5663TIP3    H216933   8.038   2.684   2.142
 5664TIP3   OH216934   0.167   6.814   4.818
 5664TIP3    H116935   0.094   6.766   4.779
 5664TIP3    H216936   0.177   6.891   4.763
 5665TIP3   OH216937   5.625   2.346   5.199
 5665TIP3    H116938   5.541   2.353   5.152
 5665TIP3    H216939   5.613   2.401   5.277
 5666TIP3   OH216940   0.955   7.423   2.195
 5666TIP3    H116941   1.013   7.496   2.172
 5666TIP3    H216942   0.893   7.418   2.123
 5667TIP3   OH216943   0.852   6.106   3.688
 5667TIP3    H116944   0.828   6.125   3.597
 5667TIP3    H216945   0.910   6.178   3.712
 5668TIP3   OH216946   6.999   7.529   6.735
 5668TIP3    H116947   6.924   7.475   6.762
 5668TIP3    H216948   7.022   7.495   6.649
 5669TIP3   OH216949   2.449   4.131   1.164
 5669TIP3    H116950   2.501   4.128   1.083
 5669TIP3    H216951   2.380   4.194   1.145
 5670TIP3   OH216952   8.161   2.657   4.559
 5670TIP3    H116953   8.080   2.642   4.510
 5670TIP3    H216954   8.226   2.602   4.514
 5671TIP3   OH216955   2.234   5.239   2.904
 5671TIP3    H116956   2.163   5.278   2.854
 5671TIP3    H216957   2.202   5.235   2.994
 5672TIP3   OH216958   5.504   4.097   0.331
 5672TIP3    H116959   5.551   4.177   0.306
 5672TIP3    H216960   5.543   4.072   0.415
 5673TIP3   OH216961   4.094   7.101   1.566
 5673TIP3    H116962   4.173   7.124   1.517
 5673TIP3    H216963   4.124   7.039   1.633
 5674TIP3   OH216964   1.846   3.799   3.190
 5674TIP3    H116965   1.809   3.745   3.120
 5674TIP3    H216966   1.936   3.768   3.198
 5675TIP3   OH216967   4.347   0.952   6.777
 5675TIP3    H116968   4.259   0.930   6.805
 5675TIP3    H216969   4.374   0.880   6.720
 5676TIP3   OH216970   6.836   4.164   4.445
 5676TIP3    H116971   6.775   4.212   4.501
 5676TIP3    H216972   6.812   4.190   4.356
 5677TIP3   OH216973   1.772   2.363   2.990
 5677TIP3    H116974   1.784   2.458   2.990
 5677TIP3    H216975   1.681   2.350   3.015
 5678TIP3   OH216976   8.188   0.350   6.224
 5678TIP3    H116977   8.273   0.375   6.187
 5678TIP3    H216978   8.129   0.347   6.148
 5679TIP3   OH216979   6.639   0.970   6.083
 5679TIP3    H116980   6.556   0.923   6.085
 5679TIP3    H216981   6.628   1.043   6.144
 5680TIP3   OH216982   1.940   0.558   0.616
 5680TIP3    H116983   1.961   0.552   0.522
 5680TIP3    H216984   1.966   0.473   0.652
 5681TIP3   OH216985   2.159   6.041   5.275
 5681TIP3    H116986   2.220   5.968   5.284
 5681TIP3    H216987   2.202   6.101   5.215
 5682TIP3   OH216988   6.247   6.179   5.750
 5682TIP3    H116989   6.292   6.109   5.797
 5682TIP3    H216990   6.234   6.144   5.661
 5683TIP3   OH216991   2.450   2.674   3.502
 5683TIP3    H116992   2.419   2.727   3.429
 5683TIP3    H216993   2.377   2.673   3.564
 5684TIP3   OH216994   7.911   1.006   4.210
 5684TIP3    H116995   7.950   0.936   4.158
 5684TIP3    H216996   7.929   0.983   4.300
 5685TIP3   OH216997   5.001   6.460   5.606
 5685TIP3    H116998   5.069   6.467   5.674
 5685TIP3    H216999   5.039   6.504   5.530
 5686TIP3   OH217000   3.617   0.874   1.238
 5686TIP3    H117001   3.701   0.907   1.269
 5686TIP3    H217002   3.631   0.855   1.145
 5687TIP3   OH217003   2.281   4.141   6.522
 5687TIP3    H117004   2.276   4.049   6.497
 5687TIP3    H217005   2.330   4.141   6.604
 5688TIP3   OH217006   0.574   6.077   1.543
 5688TIP3    H117007   0.637   6.043   1.480
 5688TIP3    H217008   0.615   6.156   1.578
 5689TIP3   OH217009   5.027   1.930   4.843
 5689TIP3    H117010   4.986   1.856   4.889
 5689TIP3    H217011   5.036   1.998   4.910
 5690TIP3   OH217012   2.928   2.626   4.238
 5690TIP3    H117013   2.920   2.543   4.191
 5690TIP3    H217014   2.923   2.602   4.331
 5691TIP3   OH217015   6.188   6.269   3.213
 5691TIP3    H117016   6.191   6.192   3.156
 5691TIP3    H217017   6.196   6.233   3.302
 5692TIP3   OH217018   4.372   3.543   5.033
 5692TIP3    H117019   4.374   3.583   4.946
 5692TIP3    H217020   4.364   3.617   5.093
 5693TIP3   OH217021   0.539   5.582   4.461
 5693TIP3    H117022   0.550   5.658   4.404
 5693TIP3    H217023   0.449   5.589   4.494
 5694TIP3   OH217024   0.080   4.528   6.470
 5694TIP3    H117025   0.164   4.483   6.471
 5694TIP3    H217026   0.036   4.495   6.392
 5695TIP3   OH217027   6.309   1.928   1.283
 5695TIP3    H117028   6.393   1.882   1.293
 5695TIP3    H217029   6.308   1.992   1.355
 5696TIP3   OH217030   2.676   1.087   1.531
 5696TIP3    H117031   2.670   1.028   1.607
 5696TIP3    H217032   2.674   1.028   1.455
 5697TIP3   OH217033   2.547   4.380   2.736
 5697TIP3    H117034   2.510   4.468   2.729
 5697TIP3    H217035   2.621   4.380   2.675
 5698TIP3   OH217036   1.935   1.275   1.896
 5698TIP3    H117037   1.953   1.320   1.979
 5698TIP3    H217038   1.995   1.200   1.896
 5699TIP3   OH217039   2.003   0.472   3.909
 5699TIP3    H117040   2.057   0.439   3.838
 5699TIP3    H217041   1.937   0.404   3.923
 5700TIP3   OH217042   2.480   1.373   5.432
 5700TIP3    H117043   2.570   1.364   5.402
 5700TIP3    H217044   2.427   1.336   5.362
 5701TIP3   OH217045   5.198   1.407   2.694
 5701TIP3    H117046   5.103   1.394   2.685
 5701TIP3    H217047   5.230   1.325   2.732
 5702TIP3   OH217048   7.778   0.964   0.460
 5702TIP3    H117049   7.800   0.894   0.521
 5702TIP3    H217050   7.857   1.017   0.453
 5703TIP3   OH217051   3.822   5.269   0.039
 5703TIP3    H117052   3.847   5.316   0.118
 5703TIP3    H217053   3.774   5.193   0.070
 5704TIP3   OH217054   6.501   1.863   5.807
 5704TIP3    H117055   6.428   1.801   5.801
 5704TIP3    H217056   6.579   1.808   5.802
 5705TIP3   OH217057   7.591   1.857   0.263
 5705TIP3    H117058   7.543   1.812   0.193
 5705TIP3    H217059   7.678   1.873   0.226
 5706TIP3   OH217060   4.035   1.520   5.486
 5706TIP3    H117061   3.968   1.583   5.514
 5706TIP3    H217062   3.987   1.454   5.436
 5707TIP3   OH217063   5.102   1.353   3.063
 5707TIP3    H117064   5.095   1.379   2.971
 5707TIP3    H217065   5.195   1.343   3.079
 5708TIP3   OH217066   5.797   5.954   6.292
 5708TIP3    H117067   5.804   5.883   6.228
 5708TIP3    H217068   5.709   5.989   6.278
 5709TIP3   OH217069   7.714   1.526   4.801
 5709TIP3    H117070   7.777   1.585   4.759
 5709TIP3    H217071   7.767   1.475   4.862
 5710TIP3   OH217072   2.196   0.446   6.754
 5710TIP3    H117073   2.291   0.434   6.750
 5710TIP3    H217074   2.183   0.507   6.827
 5711TIP3   OH217075   4.029   0.385   4.941
 5711TIP3    H117076   3.989   0.311   4.986
 5711TIP3    H217077   3.988   0.462   4.980
 5712TIP3   OH217078   2.979   1.990   2.521
 5712TIP3    H117079   2.958   2.083   2.526
 5712TIP3    H217080   3.033   1.982   2.442
 5713TIP3   OH217081   8.322   6.905   4.527
 5713TIP3    H117082   8.248   6.845   4.517
 5713TIP3    H217083   8.352   6.921   4.438
 5714TIP3   OH217084   1.837   2.850   0.427
 5714TIP3    H117085   1.928   2.825   0.445
 5714TIP3    H217086   1.817   2.807   0.344
 5715TIP3   OH217087   1.333   2.776   1.540
 5715TIP3    H117088   1.307   2.864   1.511
 5715TIP3    H217089   1.293   2.717   1.477
 5716TIP3   OH217090   6.479   2.410   2.046
 5716TIP3    H117091   6.523   2.374   1.968
 5716TIP3    H217092   6.425   2.339   2.078
 5717TIP3   OH217093   6.484   5.947   0.409
 5717TIP3    H117094   6.554   5.993   0.454
 5717TIP3    H217095   6.506   5.854   0.418
 5718TIP3   OH217096   6.189   3.256   2.861
 5718TIP3    H117097   6.169   3.262   2.954
 5718TIP3    H217098   6.124   3.194   2.826
 5719TIP3   OH217099   1.890   3.301   2.306
 5719TIP3    H117100   1.985   3.302   2.310
 5719TIP3    H217101   1.869   3.352   2.228
 5720TIP3   OH217102   4.827   3.491   1.200
 5720TIP3    H117103   4.809   3.399   1.181
 5720TIP3    H217104   4.844   3.493   1.294
 5721TIP3   OH217105   5.346   2.691   0.164
 5721TIP3    H117106   5.395   2.681   0.245
 5721TIP3    H217107   5.331   2.601   0.133
 5722TIP3   OH217108   4.529   5.475   1.214
 5722TIP3    H117109   4.536   5.567   1.239
 5722TIP3    H217110   4.539   5.428   1.297
 5723TIP3   OH217111   1.465   6.788   0.936
 5723TIP3    H117112   1.547   6.799   0.984
 5723TIP3    H217113   1.403   6.847   0.979
 5724TIP3   OH217114   1.005   6.806   3.035
 5724TIP3    H117115   0.971   6.731   3.083
 5724TIP3    H217116   0.960   6.805   2.951
 5725TIP3   OH217117   7.426   0.349   4.030
 5725TIP3    H117118   7.448   0.277   3.971
 5725TIP3    H217119   7.422   0.426   3.973
 5726TIP3   OH217120   8.064   4.115   5.675
 5726TIP3    H117121   8.101   4.058   5.742
 5726TIP3    H217122   8.033   4.192   5.724
 5727TIP3   OH217123   2.183   7.532   5.267
 5727TIP3    H117124   2.182   7.547   5.172
 5727TIP3    H217125   2.242   7.457   5.279
 5728TIP3   OH217126   7.672   6.282   2.540
 5728TIP3    H117127   7.666   6.249   2.630
 5728TIP3    H217128   7.606   6.351   2.535
 5729TIP3   OH217129   4.027   5.963   3.118
 5729TIP3    H117130   4.086   6.004   3.181
 5729TIP3    H217131   4.052   5.870   3.119
 5730TIP3   OH217132   6.707   6.731   2.161
 5730TIP3    H117133   6.800   6.727   2.182
 5730TIP3    H217134   6.687   6.645   2.123
 5731TIP3   OH217135   0.909   1.830   4.678
 5731TIP3    H117136   0.991   1.784   4.656
 5731TIP3    H217137   0.853   1.762   4.716
 5732TIP3   OH217138   0.966   4.678   5.868
 5732TIP3    H117139   0.933   4.699   5.956
 5732TIP3    H217140   1.040   4.736   5.856
 5733TIP3   OH217141   7.565   0.998   5.466
 5733TIP3    H117142   7.500   1.008   5.396
 5733TIP3    H217143   7.607   0.914   5.448
 5734TIP3   OH217144   0.834   5.418   0.202
 5734TIP3    H117145   0.855   5.428   0.295
 5734TIP3    H217146   0.918   5.434   0.157
 5735TIP3   OH217147   6.998   3.321   5.737
 5735TIP3    H117148   6.950   3.385   5.685
 5735TIP3    H217149   6.931   3.271   5.783
 5736TIP3   OH217150   4.507   3.721   0.335
 5736TIP3    H117151   4.433   3.668   0.365
 5736TIP3    H217152   4.468   3.801   0.301
 5737TIP3   OH217153   6.106   1.750   2.192
 5737TIP3    H117154   6.090   1.660   2.221
 5737TIP3    H217155   6.079   1.751   2.100
 5738TIP3   OH217156   1.313   0.857   0.279
 5738TIP3    H117157   1.382   0.816   0.227
 5738TIP3    H217158   1.343   0.849   0.369
 5739TIP3   OH217159   5.799   6.627   2.733
 5739TIP3    H117160   5.828   6.569   2.663
 5739TIP3    H217161   5.791   6.570   2.809
 5740TIP3   OH217162   4.353   5.612   6.712
 5740TIP3    H117163   4.288   5.629   6.780
 5740TIP3    H217164   4.342   5.519   6.691
 5741TIP3   OH217165   6.319   0.419   2.903
 5741TIP3    H117166   6.254   0.351   2.884
 5741TIP3    H217167   6.274   0.501   2.884
 5742TIP3   OH217168   3.743   3.948   1.772
 5742TIP3    H117169   3.670   3.899   1.809
 5742TIP3    H217170   3.815   3.885   1.768
 5743TIP3   OH217171   7.988   5.188   6.165
 5743TIP3    H117172   7.985   5.093   6.159
 5743TIP3    H217173   7.920   5.210   6.229
 5744TIP3   OH217174   7.258   6.504   6.104
 5744TIP3    H117175   7.337   6.469   6.146
 5744TIP3    H217176   7.189   6.441   6.126
 5745TIP3   OH217177   1.760   0.126   1.029
 5745TIP3    H117178   1.818   0.091   1.096
 5745TIP3    H217179   1.756   0.220   1.048
 5746TIP3   OH217180   3.953   0.672   5.329
 5746TIP3    H117181   3.955   0.581   5.298
 5746TIP3    H217182   3.947   0.665   5.424
 5747TIP3   OH217183   1.921   0.435   3.502
 5747TIP3    H117184   2.004   0.444   3.549
 5747TIP3    H217185   1.917   0.512   3.445
 5748TIP3   OH217186   6.067   0.907   6.840
 5748TIP3    H117187   5.977   0.929   6.817
 5748TIP3    H217188   6.093   0.840   6.777
 5749TIP3   OH217189   0.810   6.018   6.259
 5749TIP3    H117190   0.877   5.988   6.321
 5749TIP3    H217191   0.727   6.004   6.304
 5750TIP3   OH217192   0.830   0.321   2.897
 5750TIP3    H117193   0.903   0.382   2.902
 5750TIP3    H217194   0.820   0.287   2.987
 5751TIP3   OH217195   4.592   6.774   2.464
 5751TIP3    H117196   4.587   6.682   2.489
 5751TIP3    H217197   4.519   6.787   2.403
 5752TIP3   OH217198   4.715   3.804   6.210
 5752TIP3    H117199   4.634   3.788   6.162
 5752TIP3    H217200   4.784   3.800   6.144
 5753TIP3   OH217201   6.487   2.871   0.161
 5753TIP3    H117202   6.524   2.782   0.158
 5753TIP3    H217203   6.494   2.902   0.071
 5754TIP3   OH217204   2.004   5.452   1.424
 5754TIP3    H117205   2.083   5.404   1.446
 5754TIP3    H217206   1.945   5.438   1.499
 5755TIP3   OH217207   4.452   3.263   1.005
 5755TIP3    H117208   4.366   3.291   1.034
 5755TIP3    H217209   4.507   3.341   1.014
 5756TIP3   OH217210   1.495   0.740   5.874
 5756TIP3    H117211   1.453   0.722   5.791
 5756TIP3    H217212   1.575   0.687   5.873
 5757TIP3   OH217213   7.876   2.102   4.960
 5757TIP3    H117214   7.906   2.031   5.017
 5757TIP3    H217215   7.808   2.061   4.905
 5758TIP3   OH217216   3.443   1.513   0.664
 5758TIP3    H117217   3.523   1.463   0.644
 5758TIP3    H217218   3.377   1.446   0.681
 5759TIP3   OH217219   6.396   3.219   6.240
 5759TIP3    H117220   6.341   3.257   6.309
 5759TIP3    H217221   6.438   3.143   6.281
 5760TIP3   OH217222   1.304   1.294   5.995
 5760TIP3    H117223   1.283   1.352   6.068
 5760TIP3    H217224   1.254   1.214   6.012
 5761TIP3   OH217225   1.342   6.147   5.758
 5761TIP3    H117226   1.365   6.232   5.721
 5761TIP3    H217227   1.268   6.117   5.705
 5762TIP3   OH217228   0.651   4.271   3.286
 5762TIP3    H117229   0.697   4.272   3.370
 5762TIP3    H217230   0.691   4.200   3.238
 5763TIP3   OH217231   0.428   5.804   0.256
 5763TIP3    H117232   0.382   5.733   0.210
 5763TIP3    H217233   0.371   5.827   0.329
 5764TIP3   OH217234   3.197   4.942   2.604
 5764TIP3    H117235   3.116   4.977   2.565
 5764TIP3    H217236   3.238   5.018   2.645
 5765TIP3   OH217237   5.674  -0.007   3.863
 5765TIP3    H117238   5.616   0.023   3.793
 5765TIP3    H217239   5.752   0.048   3.855
 5766TIP3   OH217240   6.869   7.782   2.754
 5766TIP3    H117241   6.965   7.788   2.751
 5766TIP3    H217242   6.846   7.735   2.674
 5767TIP3   OH217243   4.973   2.011   0.239
 5767TIP3    H117244   4.949   2.102   0.259
 5767TIP3    H217245   4.889   1.968   0.224
 5768TIP3   OH217246   6.470   3.023   2.999
 5768TIP3    H117247   6.525   3.100   3.016
 5768TIP3    H217248   6.486   3.003   2.907
 5769TIP3   OH217249   5.929   7.096   4.001
 5769TIP3    H117250   5.846   7.092   3.953
 5769TIP3    H217251   5.990   7.136   3.940
 5770TIP3   OH217252   2.709   3.729   3.937
 5770TIP3    H117253   2.747   3.791   4.000
 5770TIP3    H217254   2.616   3.750   3.937
 5771TIP3   OH217255   4.300   6.875   3.838
 5771TIP3    H117256   4.335   6.878   3.749
 5771TIP3    H217257   4.366   6.826   3.887
 5772TIP3   OH217258   4.899   1.514   0.957
 5772TIP3    H117259   4.948   1.530   1.037
 5772TIP3    H217260   4.961   1.532   0.886
 5773TIP3   OH217261   5.250   4.386   0.250
 5773TIP3    H117262   5.265   4.453   0.317
 5773TIP3    H217263   5.163   4.353   0.269
 5774TIP3   OH217264   1.387   7.202   1.704
 5774TIP3    H117265   1.364   7.208   1.611
 5774TIP3    H217266   1.351   7.282   1.743
 5775TIP3   OH217267   6.367   4.756   6.010
 5775TIP3    H117268   6.376   4.729   5.918
 5775TIP3    H217269   6.365   4.851   6.008
 5776TIP3   OH217270   0.767   3.261   2.388
 5776TIP3    H117271   0.860   3.239   2.384
 5776TIP3    H217272   0.752   3.314   2.309
 5777TIP3   OH217273   3.529   4.979   6.060
 5777TIP3    H117274   3.573   4.913   6.114
 5777TIP3    H217275   3.450   5.001   6.109
 5778TIP3   OH217276   4.554   1.407   5.480
 5778TIP3    H117277   4.505   1.331   5.511
 5778TIP3    H217278   4.630   1.412   5.538
 5779TIP3   OH217279   3.548   0.052   2.446
 5779TIP3    H117280   3.568  -0.027   2.496
 5779TIP3    H217281   3.458   0.074   2.471
 5780TIP3   OH217282   3.449   7.318   3.025
 5780TIP3    H117283   3.504   7.272   3.088
 5780TIP3    H217284   3.391   7.372   3.079
 5781TIP3   OH217285   5.443   4.664   1.446
 5781TIP3    H117286   5.498   4.715   1.387
 5781TIP3    H217287   5.447   4.711   1.529
 5782TIP3   OH217288   3.680   5.645   4.727
 5782TIP3    H117289   3.604   5.626   4.782
 5782TIP3    H217290   3.665   5.597   4.646
 5783TIP3   OH217291   1.393   2.358   5.238
 5783TIP3    H117292   1.379   2.292   5.170
 5783TIP3    H217293   1.481   2.390   5.223
 5784TIP3   OH217294   2.869   0.424   2.366
 5784TIP3    H117295   2.906   0.427   2.455
 5784TIP3    H217296   2.785   0.470   2.374
 5785TIP3   OH217297   7.909   1.670   0.300
 5785TIP3    H117298   7.920   1.654   0.394
 5785TIP3    H217299   7.916   1.765   0.292
 5786TIP3   OH217300   7.704   6.683   5.200
 5786TIP3    H117301   7.735   6.701   5.289
 5786TIP3    H217302   7.730   6.760   5.150
 5787TIP3   OH217303   4.386   7.726   0.222
 5787TIP3    H117304   4.358   7.638   0.248
 5787TIP3    H217305   4.313   7.783   0.248
 5788TIP3   OH217306   6.986   0.391   4.955
 5788TIP3    H117307   6.948   0.304   4.945
 5788TIP3    H217308   6.999   0.401   5.049
 5789TIP3   OH217309   0.345   7.063   1.753
 5789TIP3    H117310   0.343   7.144   1.702
 5789TIP3    H217311   0.340   7.091   1.844
 5790TIP3   OH217312   0.449   1.903   6.189
 5790TIP3    H117313   0.450   1.922   6.283
 5790TIP3    H217314   0.398   1.822   6.181
 5791TIP3   OH217315   7.983   2.411   2.733
 5791TIP3    H117316   8.024   2.368   2.658
 5791TIP3    H217317   7.912   2.352   2.758
 5792TIP3   OH217318   1.754   3.273   1.604
 5792TIP3    H117319   1.668   3.303   1.632
 5792TIP3    H217320   1.802   3.354   1.585
 5793TIP3   OH217321   5.908   1.798   5.164
 5793TIP3    H117322   5.983   1.850   5.136
 5793TIP3    H217323   5.881   1.839   5.246
 5794TIP3   OH217324   7.694   1.480   6.538
 5794TIP3    H117325   7.765   1.504   6.597
 5794TIP3    H217326   7.646   1.561   6.524
 5795TIP3   OH217327   3.854   0.009   2.159
 5795TIP3    H117328   3.761   0.017   2.181
 5795TIP3    H217329   3.879  -0.077   2.193
 5796TIP3   OH217330   2.193   6.607   4.852
 5796TIP3    H117331   2.288   6.600   4.854
 5796TIP3    H217332   2.170   6.598   4.759
 5797TIP3   OH217333   4.588   0.879   2.826
 5797TIP3    H117334   4.677   0.912   2.842
 5797TIP3    H217335   4.556   0.932   2.753
 5798TIP3   OH217336   2.837   4.516   3.697
 5798TIP3    H117337   2.924   4.510   3.656
 5798TIP3    H217338   2.791   4.438   3.667
 5799TIP3   OH217339   1.329   7.573   0.842
 5799TIP3    H117340   1.388   7.578   0.766
 5799TIP3    H217341   1.281   7.656   0.840
 5800TIP3   OH217342   6.584   4.704   3.118
 5800TIP3    H117343   6.496   4.721   3.152
 5800TIP3    H217344   6.571   4.646   3.043
 5801TIP3   OH217345   2.200   5.886   4.336
 5801TIP3    H117346   2.280   5.928   4.304
 5801TIP3    H217347   2.201   5.799   4.295
 5802TIP3   OH217348   1.997   5.438   5.065
 5802TIP3    H117349   1.937   5.468   5.134
 5802TIP3    H217350   1.947   5.447   4.984
 5803TIP3   OH217351   4.711   3.653   4.499
 5803TIP3    H117352   4.714   3.693   4.586
 5803TIP3    H217353   4.702   3.559   4.515
 5804TIP3   OH217354   6.300   5.750   3.813
 5804TIP3    H117355   6.296   5.810   3.739
 5804TIP3    H217356   6.226   5.775   3.868
 5805TIP3   OH217357   6.556   4.388   3.244
 5805TIP3    H117358   6.558   4.292   3.239
 5805TIP3    H217359   6.579   4.408   3.334
 5806TIP3   OH217360   4.069   3.653   3.856
 5806TIP3    H117361   4.107   3.722   3.910
 5806TIP3    H217362   4.131   3.642   3.784
 5807TIP3   OH217363   5.880   2.757   5.911
 5807TIP3    H117364   5.847   2.808   5.837
 5807TIP3    H217365   5.960   2.802   5.937
 5808TIP3   OH217366   4.657   0.169   0.027
 5808TIP3    H117367   4.636   0.182  -0.066
 5808TIP3    H217368   4.687   0.254   0.057
 5809TIP3   OH217369  -0.002   7.248   3.724
 5809TIP3    H117370  -0.084   7.292   3.747
 5809TIP3    H217371   0.067   7.308   3.753
 5810TIP3   OH217372   4.160   5.382   4.937
 5810TIP3    H117373   4.126   5.402   4.850
 5810TIP3    H217374   4.085   5.398   4.995
 5811TIP3   OH217375   1.993   0.200   2.980
 5811TIP3    H117376   1.994   0.197   3.076
 5811TIP3    H217377   1.969   0.290   2.959
 5812TIP3   OH217378   4.459   1.640   4.161
 5812TIP3    H117379   4.482   1.719   4.209
 5812TIP3    H217380   4.394   1.597   4.216
 5813TIP3   OH217381   4.324   0.074   3.977
 5813TIP3    H117382   4.321   0.099   4.070
 5813TIP3    H217383   4.411   0.102   3.948
 5814TIP3   OH217384   0.153   5.089   6.721
 5814TIP3    H117385   0.067   5.117   6.752
 5814TIP3    H217386   0.135   5.036   6.644
 5815TIP3   OH217387   3.037   3.177   1.951
 5815TIP3    H117388   3.096   3.238   1.995
 5815TIP3    H217389   3.085   3.094   1.949
 5816TIP3   OH217390   6.934   6.054   1.805
 5816TIP3    H117391   7.014   6.006   1.784
 5816TIP3    H217392   6.961   6.121   1.868
 5817TIP3   OH217393   5.591   5.148   5.572
 5817TIP3    H117394   5.629   5.109   5.651
 5817TIP3    H217395   5.665   5.188   5.527
 5818TIP3   OH217396  -0.015   1.722   0.053
 5818TIP3    H117397  -0.092   1.666   0.067
 5818TIP3    H217398  -0.041   1.807   0.089
 5819TIP3   OH217399   0.237   4.177   3.433
 5819TIP3    H117400   0.146   4.198   3.414
 5819TIP3    H217401   0.233   4.116   3.507
 5820TIP3   OH217402   7.592   7.303   5.351
 5820TIP3    H117403   7.577   7.294   5.445
 5820TIP3    H217404   7.509   7.335   5.316
 5821TIP3   OH217405   2.744   4.957   4.782
 5821TIP3    H117406   2.725   5.029   4.723
 5821TIP3    H217407   2.659   4.932   4.818
 5822TIP3   OH217408   3.734   3.556   5.760
 5822TIP3    H117409   3.650   3.587   5.728
 5822TIP3    H217410   3.795   3.574   5.689
 5823TIP3   OH217411   2.997   0.709   0.425
 5823TIP3    H117412   3.068   0.742   0.480
 5823TIP3    H217413   2.917   0.729   0.473
 5824TIP3   OH217414   5.068   1.283   5.433
 5824TIP3    H117415   5.105   1.348   5.373
 5824TIP3    H217416   5.007   1.333   5.488
 5825TIP3   OH217417   6.487   7.709   2.709
 5825TIP3    H117418   6.460   7.794   2.674
 5825TIP3    H217419   6.565   7.686   2.659
 5826TIP3   OH217420   4.856   4.215   3.400
 5826TIP3    H117421   4.938   4.199   3.353
 5826TIP3    H217422   4.883   4.249   3.485
 5827TIP3   OH217423   7.104   4.472   0.188
 5827TIP3    H117424   7.020   4.516   0.177
 5827TIP3    H217425   7.081   4.383   0.213
 5828TIP3   OH217426   5.166   1.354   0.952
 5828TIP3    H117427   5.163   1.405   0.872
 5828TIP3    H217428   5.078   1.317   0.960
 5829TIP3   OH217429   0.314   3.872   1.330
 5829TIP3    H117430   0.265   3.944   1.290
 5829TIP3    H217431   0.300   3.798   1.271
 5830TIP3   OH217432   3.540   0.947   0.767
 5830TIP3    H117433   3.606   0.976   0.705
 5830TIP3    H217434   3.523   1.024   0.822
 5831TIP3   OH217435   6.584   1.457   3.919
 5831TIP3    H117436   6.668   1.501   3.903
 5831TIP3    H217437   6.522   1.528   3.933
 5832TIP3   OH217438   1.499   4.349   6.554
 5832TIP3    H117439   1.436   4.277   6.556
 5832TIP3    H217440   1.509   4.375   6.645
 5833TIP3   OH217441   0.689   7.490   4.146
 5833TIP3    H117442   0.621   7.552   4.173
 5833TIP3    H217443   0.717   7.521   4.060
 5834TIP3   OH217444   1.748   5.312   3.629
 5834TIP3    H117445   1.702   5.284   3.709
 5834TIP3    H217446   1.724   5.404   3.620
 5835TIP3   OH217447   8.090   3.864   3.016
 5835TIP3    H117448   8.158   3.853   2.949
 5835TIP3    H217449   8.126   3.928   3.077
 5836TIP3   OH217450   3.200   3.358   5.250
 5836TIP3    H117451   3.286   3.397   5.266
 5836TIP3    H217452   3.149   3.378   5.328
 5837TIP3   OH217453   8.197   1.331   2.826
 5837TIP3    H117454   8.250   1.281   2.763
 5837TIP3    H217455   8.261   1.373   2.883
 5838TIP3   OH217456   7.149   4.652   3.277
 5838TIP3    H117457   7.118   4.566   3.306
 5838TIP3    H217458   7.240   4.636   3.251
 5839TIP3   OH217459   6.558   7.250   1.011
 5839TIP3    H117460   6.613   7.202   1.072
 5839TIP3    H217461   6.472   7.254   1.053
 5840TIP3   OH217462   4.593   6.518   2.323
 5840TIP3    H117463   4.514   6.537   2.372
 5840TIP3    H217464   4.562   6.481   2.240
 5841TIP3   OH217465   2.987   4.116   6.098
 5841TIP3    H117466   2.951   4.153   6.178
 5841TIP3    H217467   2.961   4.177   6.029
 5842TIP3   OH217468   1.835   2.316   4.018
 5842TIP3    H117469   1.846   2.224   3.994
 5842TIP3    H217470   1.877   2.365   3.947
 5843TIP3   OH217471   7.696   2.833   3.142
 5843TIP3    H117472   7.653   2.910   3.179
 5843TIP3    H217473   7.745   2.795   3.215
 5844TIP3   OH217474   1.471   0.139   3.680
 5844TIP3    H117475   1.462   0.228   3.647
 5844TIP3    H217476   1.384   0.116   3.712
 5845TIP3   OH217477   4.338   6.702   3.382
 5845TIP3    H117478   4.283   6.760   3.329
 5845TIP3    H217479   4.348   6.748   3.466
 5846TIP3   OH217480   6.986   6.512   4.291
 5846TIP3    H117481   6.957   6.439   4.346
 5846TIP3    H217482   7.073   6.534   4.325
 5847TIP3   OH217483   4.935   6.022   1.978
 5847TIP3    H117484   4.854   6.071   1.997
 5847TIP3    H217485   4.956   6.046   1.888
 5848TIP3   OH217486   5.375   3.577   6.124
 5848TIP3    H117487   5.403   3.590   6.033
 5848TIP3    H217488   5.423   3.644   6.174
 5849TIP3   OH217489   7.187   0.815   5.698
 5849TIP3    H117490   7.145   0.736   5.732
 5849TIP3    H217491   7.280   0.802   5.714
 5850TIP3   OH217492   3.053   5.436   3.645
 5850TIP3    H117493   3.016   5.484   3.571
 5850TIP3    H217494   2.984   5.441   3.712
 5851TIP3   OH217495   0.545   3.185   5.099
 5851TIP3    H117496   0.452   3.199   5.080
 5851TIP3    H217497   0.572   3.116   5.038
 5852TIP3   OH217498   2.807   2.185   2.194
 5852TIP3    H117499   2.836   2.127   2.124
 5852TIP3    H217500   2.811   2.132   2.273
 5853TIP3   OH217501   4.826   6.226   0.126
 5853TIP3    H117502   4.818   6.182   0.211
 5853TIP3    H217503   4.907   6.191   0.088
 5854TIP3   OH217504   1.130   5.239   5.307
 5854TIP3    H117505   1.198   5.212   5.369
 5854TIP3    H217506   1.168   5.223   5.221
 5855TIP3   OH217507   4.758   2.954   5.323
 5855TIP3    H117508   4.777   3.027   5.265
 5855TIP3    H217509   4.696   2.900   5.274
 5856TIP3   OH217510   5.800   3.974   0.686
 5856TIP3    H117511   5.787   3.950   0.595
 5856TIP3    H217512   5.714   3.962   0.727
 5857TIP3   OH217513   2.415   1.967   6.623
 5857TIP3    H117514   2.459   1.982   6.540
 5857TIP3    H217515   2.452   2.033   6.682
 5858TIP3   OH217516   1.324   4.627   4.325
 5858TIP3    H117517   1.392   4.674   4.276
 5858TIP3    H217518   1.269   4.696   4.362
 5859TIP3   OH217519   1.274   1.554   6.168
 5859TIP3    H117520   1.186   1.567   6.133
 5859TIP3    H217521   1.261   1.535   6.261
 5860TIP3   OH217522   1.417   1.913   3.329
 5860TIP3    H117523   1.342   1.888   3.274
 5860TIP3    H217524   1.472   1.835   3.332
 5861TIP3   OH217525   4.800   3.111   4.196
 5861TIP3    H117526   4.862   3.087   4.128
 5861TIP3    H217527   4.854   3.132   4.272
 5862TIP3   OH217528   3.866   4.047   0.137
 5862TIP3    H117529   3.789   4.061   0.082
 5862TIP3    H217530   3.941   4.064   0.080
 5863TIP3   OH217531   4.453   4.304   6.738
 5863TIP3    H117532   4.402   4.227   6.763
 5863TIP3    H217533   4.544   4.275   6.743
 5864TIP3   OH217534   1.973   4.532   3.455
 5864TIP3    H117535   1.882   4.547   3.479
 5864TIP3    H217536   1.974   4.442   3.420
 5865TIP3   OH217537   5.739   2.143   2.955
 5865TIP3    H117538   5.772   2.134   2.866
 5865TIP3    H217539   5.799   2.206   2.996
 5866TIP3   OH217540   0.382   7.026   5.787
 5866TIP3    H117541   0.369   7.061   5.699
 5866TIP3    H217542   0.307   6.968   5.801
 5867TIP3   OH217543   0.049   5.087   5.622
 5867TIP3    H117544   0.027   5.121   5.709
 5867TIP3    H217545   0.131   5.130   5.599
 5868TIP3   OH217546   5.844   5.478   6.699
 5868TIP3    H117547   5.895   5.538   6.644
 5868TIP3    H217548   5.897   5.398   6.703
 5869TIP3   OH217549   5.185   7.171   6.401
 5869TIP3    H117550   5.192   7.228   6.325
 5869TIP3    H217551   5.109   7.116   6.382
 5870TIP3   OH217552   4.218   4.568   2.884
 5870TIP3    H117553   4.285   4.509   2.850
 5870TIP3    H217554   4.193   4.531   2.968
 5871TIP3   OH217555   5.862   6.549   4.336
 5871TIP3    H117556   5.810   6.628   4.351
 5871TIP3    H217557   5.864   6.540   4.241
 5872TIP3   OH217558   3.365   0.577   1.009
 5872TIP3    H117559   3.453   0.568   1.045
 5872TIP3    H217560   3.342   0.669   1.026
 5873TIP3   OH217561   4.702   3.541   1.492
 5873TIP3    H117562   4.701   3.573   1.583
 5873TIP3    H217563   4.609   3.534   1.469
 5874TIP3   OH217564   2.192   3.038   0.819
 5874TIP3    H117565   2.183   3.133   0.826
 5874TIP3    H217566   2.104   3.004   0.834
 5875TIP3   OH217567   8.184   3.766   5.657
 5875TIP3    H117568   8.149   3.802   5.739
 5875TIP3    H217569   8.134   3.812   5.589
 5876TIP3   OH217570   5.715   3.177   6.676
 5876TIP3    H117571   5.769   3.117   6.729
 5876TIP3    H217572   5.643   3.122   6.644
 5877TIP3   OH217573   6.600   6.928   5.134
 5877TIP3    H117574   6.554   7.007   5.159
 5877TIP3    H217575   6.590   6.923   5.038
 5878TIP3   OH217576   5.516   3.759   6.263
 5878TIP3    H117577   5.435   3.807   6.276
 5878TIP3    H217578   5.568   3.815   6.206
 5879TIP3   OH217579   3.518   5.578   2.702
 5879TIP3    H117580   3.469   5.601   2.781
 5879TIP3    H217581   3.572   5.655   2.683
 5880TIP3   OH217582   3.645   5.067   0.162
 5880TIP3    H117583   3.669   5.018   0.083
 5880TIP3    H217584   3.584   5.009   0.208
 5881TIP3   OH217585   8.188   7.754   2.102
 5881TIP3    H117586   8.195   7.847   2.124
 5881TIP3    H217587   8.240   7.709   2.168
 5882TIP3   OH217588   3.720   1.237   3.278
 5882TIP3    H117589   3.719   1.323   3.320
 5882TIP3    H217590   3.751   1.177   3.346
 5883TIP3   OH217591   3.717   4.426   5.491
 5883TIP3    H117592   3.693   4.509   5.532
 5883TIP3    H217593   3.780   4.386   5.552
 5884TIP3   OH217594   0.230   6.328   2.587
 5884TIP3    H117595   0.269   6.322   2.500
 5884TIP3    H217596   0.138   6.304   2.575
 5885TIP3   OH217597   1.269   1.975   2.792
 5885TIP3    H117598   1.328   1.907   2.826
 5885TIP3    H217599   1.311   2.057   2.817
 5886TIP3   OH217600   0.436   0.416   2.863
 5886TIP3    H117601   0.447   0.511   2.871
 5886TIP3    H217602   0.476   0.381   2.943
 5887TIP3   OH217603   0.881   5.036   5.216
 5887TIP3    H117604   0.871   5.079   5.301
 5887TIP3    H217605   0.853   5.102   5.153
 5888TIP3   OH217606   2.643   3.746   1.571
 5888TIP3    H117607   2.605   3.830   1.598
 5888TIP3    H217608   2.661   3.701   1.653
 5889TIP3   OH217609   2.951   2.293   2.421
 5889TIP3    H117610   2.881   2.298   2.356
 5889TIP3    H217611   2.946   2.376   2.468
 5890TIP3   OH217612   6.891   7.480   2.433
 5890TIP3    H117613   6.932   7.482   2.347
 5890TIP3    H217614   6.833   7.404   2.431
 5891TIP3   OH217615   8.188   6.555   5.729
 5891TIP3    H117616   8.139   6.488   5.777
 5891TIP3    H217617   8.147   6.638   5.754
 5892TIP3   OH217618   6.883   3.066   5.529
 5892TIP3    H117619   6.897   3.031   5.441
 5892TIP3    H217620   6.898   3.160   5.520
 5893TIP3   OH217621   4.122   0.641   1.929
 5893TIP3    H117622   4.161   0.560   1.961
 5893TIP3    H217623   4.027   0.624   1.932
 5894TIP3   OH217624   1.109   7.798   1.255
 5894TIP3    H117625   1.159   7.879   1.268
 5894TIP3    H217626   1.173   7.728   1.269
 5895TIP3   OH217627   2.544   1.462   2.275
 5895TIP3    H117628   2.619   1.403   2.280
 5895TIP3    H217629   2.554   1.520   2.351
 5896TIP3   OH217630   1.016   7.622   1.897
 5896TIP3    H117631   1.047   7.600   1.809
 5896TIP3    H217632   0.982   7.711   1.890
 5897TIP3   OH217633   1.589   3.114   3.903
 5897TIP3    H117634   1.552   3.173   3.969
 5897TIP3    H217635   1.544   3.139   3.822
 5898TIP3   OH217636   1.762   6.940   4.219
 5898TIP3    H117637   1.730   6.927   4.308
 5898TIP3    H217638   1.858   6.945   4.229
 5899TIP3   OH217639   8.111   6.355   6.539
 5899TIP3    H117640   8.205   6.358   6.559
 5899TIP3    H217641   8.105   6.299   6.462
 5900TIP3   OH217642   5.076   6.864   4.617
 5900TIP3    H117643   5.131   6.787   4.631
 5900TIP3    H217644   4.987   6.830   4.616
 5901TIP3   OH217645   1.335   0.402   6.270
 5901TIP3    H117646   1.365   0.487   6.238
 5901TIP3    H217647   1.240   0.403   6.257
 5902TIP3   OH217648   7.311   3.914   0.517
 5902TIP3    H117649   7.226   3.957   0.529
 5902TIP3    H217650   7.365   3.949   0.587
 5903TIP3   OH217651   4.668   0.759   5.100
 5903TIP3    H117652   4.632   0.847   5.115
 5903TIP3    H217653   4.707   0.735   5.184
 5904TIP3   OH217654   5.465   1.451   2.072
 5904TIP3    H117655   5.384   1.429   2.119
 5904TIP3    H217656   5.506   1.367   2.054
 5905TIP3   OH217657   2.323   4.961   6.142
 5905TIP3    H117658   2.330   4.917   6.057
 5905TIP3    H217659   2.271   5.039   6.124
 5906TIP3   OH217660   2.250   7.800   4.994
 5906TIP3    H117661   2.228   7.839   4.910
 5906TIP3    H217662   2.170   7.752   5.019
 5907TIP3   OH217663   6.349   1.698   2.481
 5907TIP3    H117664   6.357   1.604   2.498
 5907TIP3    H217665   6.368   1.707   2.388
 5908TIP3   OH217666   1.911   7.178   0.711
 5908TIP3    H117667   1.848   7.141   0.773
 5908TIP3    H217668   1.865   7.178   0.627
 5909TIP3   OH217669   3.968   5.466   1.760
 5909TIP3    H117670   4.056   5.466   1.798
 5909TIP3    H217671   3.916   5.410   1.819
 5910TIP3   OH217672   0.688   5.115   1.642
 5910TIP3    H117673   0.708   5.097   1.734
 5910TIP3    H217674   0.612   5.173   1.645
 5911TIP3   OH217675   4.059   6.362   5.261
 5911TIP3    H117676   4.033   6.271   5.280
 5911TIP3    H217677   4.153   6.363   5.277
 5912TIP3   OH217678   1.634   6.337   0.035
 5912TIP3    H117679   1.608   6.423   0.067
 5912TIP3    H217680   1.698   6.355  -0.033
 5913TIP3   OH217681   4.642   3.534   2.409
 5913TIP3    H117682   4.721   3.581   2.434
 5913TIP3    H217683   4.601   3.510   2.493
 5914TIP3   OH217684   6.375   6.868   2.529
 5914TIP3    H117685   6.422   6.938   2.573
 5914TIP3    H217686   6.399   6.877   2.437
 5915TIP3   OH217687   2.346   0.294   6.117
 5915TIP3    H117688   2.368   0.347   6.194
 5915TIP3    H217689   2.316   0.211   6.153
 5916TIP3   OH217690   4.209   0.602   1.497
 5916TIP3    H117691   4.164   0.650   1.567
 5916TIP3    H217692   4.300   0.631   1.503
 5917TIP3   OH217693   5.325   6.308   4.722
 5917TIP3    H117694   5.278   6.266   4.794
 5917TIP3    H217695   5.416   6.312   4.751
 5918TIP3   OH217696   3.979   2.425   2.106
 5918TIP3    H117697   3.968   2.481   2.183
 5918TIP3    H217698   4.029   2.479   2.045
 5919TIP3   OH217699   1.108   7.755   0.817
 5919TIP3    H117700   1.040   7.730   0.754
 5919TIP3    H217701   1.146   7.835   0.780
 5920TIP3   OH217702   5.728   3.682   1.709
 5920TIP3    H117703   5.699   3.773   1.709
 5920TIP3    H217704   5.653   3.633   1.675
 5921TIP3   OH217705   1.279   6.771   0.241
 5921TIP3    H117706   1.348   6.780   0.176
 5921TIP3    H217707   1.276   6.677   0.260
 5922TIP3   OH217708   4.347   7.462   2.686
 5922TIP3    H117709   4.270   7.423   2.727
 5922TIP3    H217710   4.405   7.388   2.669
 5923TIP3   OH217711   0.990   1.950   6.232
 5923TIP3    H117712   0.970   2.044   6.239
 5923TIP3    H217713   1.083   1.947   6.211
 5924TIP3   OH217714   2.288   7.309   2.661
 5924TIP3    H117715   2.335   7.358   2.729
 5924TIP3    H217716   2.305   7.217   2.683
 5925TIP3   OH217717   4.900   4.904   1.104
 5925TIP3    H117718   4.853   4.918   1.186
 5925TIP3    H217719   4.984   4.950   1.116
 5926TIP3   OH217720   0.855   0.375   4.835
 5926TIP3    H117721   0.890   0.461   4.811
 5926TIP3    H217722   0.924   0.335   4.887
 5927TIP3   OH217723   2.556   4.502   0.072
 5927TIP3    H117724   2.629   4.541   0.121
 5927TIP3    H217725   2.597   4.465  -0.007
 5928TIP3   OH217726   0.475   0.998   5.979
 5928TIP3    H117727   0.471   0.904   5.958
 5928TIP3    H217728   0.388   1.019   6.012
 5929TIP3   OH217729   3.855   4.746   1.638
 5929TIP3    H117730   3.942   4.705   1.637
 5929TIP3    H217731   3.865   4.825   1.584
 5930TIP3   OH217732   5.899   7.765   5.617
 5930TIP3    H117733   5.896   7.826   5.691
 5930TIP3    H217734   5.952   7.809   5.551
 5931TIP3   OH217735   6.697   3.592   5.424
 5931TIP3    H117736   6.724   3.677   5.460
 5931TIP3    H217737   6.689   3.608   5.330
 5932TIP3   OH217738   7.593   0.183   3.322
 5932TIP3    H117739   7.616   0.276   3.316
 5932TIP3    H217740   7.501   0.180   3.296
 5933TIP3   OH217741   3.032   2.262   0.861
 5933TIP3    H117742   3.123   2.236   0.848
 5933TIP3    H217743   2.988   2.181   0.886
 5934TIP3   OH217744   6.152   3.490   5.306
 5934TIP3    H117745   6.084   3.457   5.365
 5934TIP3    H217746   6.188   3.566   5.350
 5935TIP3   OH217747   1.483  -0.006   4.188
 5935TIP3    H117748   1.436   0.069   4.151
 5935TIP3    H217749   1.518  -0.052   4.112
 5936TIP3   OH217750   3.329   6.566   3.286
 5936TIP3    H117751   3.356   6.591   3.375
 5936TIP3    H217752   3.380   6.487   3.267
 5937TIP3   OH217753   8.001   0.249   2.141
 5937TIP3    H117754   8.053   0.171   2.124
 5937TIP3    H217755   7.928   0.218   2.194
 5938TIP3   OH217756   5.607   4.158   2.487
 5938TIP3    H117757   5.676   4.092   2.489
 5938TIP3    H217758   5.525   4.108   2.491
 5939TIP3   OH217759   2.826   6.457   5.243
 5939TIP3    H117760   2.861   6.369   5.250
 5939TIP3    H217761   2.902   6.514   5.253
 5940TIP3   OH217762   3.806   1.777   3.930
 5940TIP3    H117763   3.725   1.725   3.924
 5940TIP3    H217764   3.874   1.712   3.946
 5941TIP3   OH217765   1.866   1.001   0.155
 5941TIP3    H117766   1.833   1.088   0.178
 5941TIP3    H217767   1.835   0.987   0.066
 5942TIP3   OH217768   5.663   3.953   6.455
 5942TIP3    H117769   5.606   4.010   6.404
 5942TIP3    H217770   5.626   3.865   6.443
 5943TIP3   OH217771   0.550   5.796   2.361
 5943TIP3    H117772   0.594   5.723   2.404
 5943TIP3    H217773   0.593   5.803   2.275
 5944TIP3   OH217774   4.003   6.050   2.399
 5944TIP3    H117775   4.047   5.971   2.366
 5944TIP3    H217776   4.042   6.122   2.349
 5945TIP3   OH217777   6.916   3.363   3.927
 5945TIP3    H117778   6.847   3.330   3.984
 5945TIP3    H217779   6.878   3.359   3.839
 5946TIP3   OH217780   1.766   2.631   1.099
 5946TIP3    H117781   1.765   2.683   1.179
 5946TIP3    H217782   1.831   2.674   1.043
 5947TIP3   OH217783   5.617   1.796   1.352
 5947TIP3    H117784   5.557   1.849   1.404
 5947TIP3    H217785   5.612   1.709   1.390
 5948TIP3   OH217786   3.395   4.069   2.477
 5948TIP3    H117787   3.302   4.079   2.458
 5948TIP3    H217788   3.436   4.060   2.391
 5949TIP3   OH217789   3.733   4.252   2.409
 5949TIP3    H117790   3.686   4.335   2.405
 5949TIP3    H217791   3.740   4.224   2.318
 5950TIP3   OH217792   6.448   4.956   5.122
 5950TIP3    H117793   6.388   4.882   5.111
 5950TIP3    H217794   6.507   4.927   5.192
 5951TIP3   OH217795   2.772   6.582   1.934
 5951TIP3    H117796   2.721   6.662   1.942
 5951TIP3    H217797   2.804   6.565   2.022
 5952TIP3   OH217798   5.269   3.188   2.965
 5952TIP3    H117799   5.324   3.177   3.042
 5952TIP3    H217800   5.243   3.099   2.941
 5953TIP3   OH217801   1.015   2.305   1.026
 5953TIP3    H117802   1.017   2.335   0.935
 5953TIP3    H217803   0.998   2.211   1.020
 5954TIP3   OH217804   3.000   6.168   3.751
 5954TIP3    H117805   2.949   6.162   3.832
 5954TIP3    H217806   3.091   6.158   3.779
 5955TIP3   OH217807   6.353   6.893   4.190
 5955TIP3    H117808   6.438   6.935   4.197
 5955TIP3    H217809   6.291   6.965   4.178
 5956TIP3   OH217810   3.976   3.132   2.627
 5956TIP3    H117811   4.004   3.041   2.638
 5956TIP3    H217812   3.881   3.128   2.628
 5957TIP3   OH217813   6.738   3.587   5.810
 5957TIP3    H117814   6.720   3.640   5.732
 5957TIP3    H217815   6.834   3.587   5.818
 5958TIP3   OH217816   6.555   2.571   3.064
 5958TIP3    H117817   6.503   2.507   3.016
 5958TIP3    H217818   6.621   2.519   3.111
 5959TIP3   OH217819   0.044   7.569   0.102
 5959TIP3    H117820   0.063   7.476   0.114
 5959TIP3    H217821   0.114   7.614   0.150
 5960TIP3   OH217822   4.291   6.099   2.964
 5960TIP3    H117823   4.345   6.048   3.024
 5960TIP3    H217824   4.201   6.076   2.987
 5961TIP3   OH217825   3.968   7.801   2.777
 5961TIP3    H117826   3.935   7.713   2.791
 5961TIP3    H217827   4.047   7.790   2.724
 5962TIP3   OH217828   3.749   3.107   4.376
 5962TIP3    H117829   3.773   3.100   4.468
 5962TIP3    H217830   3.654   3.096   4.374
 5963TIP3   OH217831   1.327   0.721   1.633
 5963TIP3    H117832   1.401   0.782   1.636
 5963TIP3    H217833   1.291   0.733   1.545
 5964TIP3   OH217834   0.315   7.850   4.949
 5964TIP3    H117835   0.298   7.818   4.861
 5964TIP3    H217836   0.272   7.787   5.007
 5965TIP3   OH217837   6.491   1.852   3.737
 5965TIP3    H117838   6.415   1.808   3.700
 5965TIP3    H217839   6.491   1.827   3.829
 5966TIP3   OH217840   3.625   1.599   0.252
 5966TIP3    H117841   3.660   1.635   0.171
 5966TIP3    H217842   3.654   1.661   0.320
 5967TIP3   OH217843   4.221   4.175   2.338
 5967TIP3    H117844   4.239   4.229   2.416
 5967TIP3    H217845   4.151   4.221   2.293
 5968TIP3   OH217846   4.430   5.463   5.078
 5968TIP3    H117847   4.334   5.461   5.073
 5968TIP3    H217848   4.455   5.528   5.012
 5969TIP3   OH217849   0.296   0.522   0.252
 5969TIP3    H117850   0.219   0.568   0.284
 5969TIP3    H217851   0.284   0.519   0.157
 5970TIP3   OH217852   8.290   3.941   0.362
 5970TIP3    H117853   8.287   3.938   0.458
 5970TIP3    H217854   8.324   3.855   0.336
 5971TIP3   OH217855   0.283   5.598   4.537
 5971TIP3    H117856   0.195   5.563   4.521
 5971TIP3    H217857   0.295   5.588   4.631
 5972TIP3   OH217858   1.758   1.756   4.543
 5972TIP3    H117859   1.822   1.704   4.590
 5972TIP3    H217860   1.774   1.737   4.450
 5973TIP3   OH217861   2.111   4.969   0.303
 5973TIP3    H117862   2.045   4.920   0.254
 5973TIP3    H217863   2.139   4.910   0.372
 5974TIP3   OH217864   7.003   3.520   1.244
 5974TIP3    H117865   6.977   3.592   1.301
 5974TIP3    H217866   6.922   3.490   1.204
 5975TIP3   OH217867   5.428   6.283   6.219
 5975TIP3    H117868   5.341   6.257   6.248
 5975TIP3    H217869   5.414   6.322   6.133
 5976TIP3   OH217870   0.143   4.426   3.521
 5976TIP3    H117871   0.188   4.359   3.572
 5976TIP3    H217872   0.087   4.377   3.461
 5977TIP3   OH217873   7.740   6.466   6.238
 5977TIP3    H117874   7.745   6.555   6.272
 5977TIP3    H217875   7.787   6.413   6.302
 5978TIP3   OH217876   7.876   3.331   6.023
 5978TIP3    H117877   7.952   3.387   6.039
 5978TIP3    H217878   7.805   3.392   6.001
 5979TIP3   OH217879   2.793   0.725   6.060
 5979TIP3    H117880   2.799   0.651   6.121
 5979TIP3    H217881   2.846   0.793   6.101
 5980TIP3   OH217882   3.135   4.553   3.589
 5980TIP3    H117883   3.173   4.547   3.676
 5980TIP3    H217884   3.173   4.481   3.540
 5981TIP3   OH217885   2.236   3.087   4.636
 5981TIP3    H117886   2.179   3.064   4.709
 5981TIP3    H217887   2.177   3.120   4.568
 5982TIP3   OH217888   7.684   6.638   4.849
 5982TIP3    H117889   7.749   6.662   4.914
 5982TIP3    H217890   7.604   6.682   4.878
 5983TIP3   OH217891   1.565   2.559   5.581
 5983TIP3    H117892   1.608   2.631   5.627
 5983TIP3    H217893   1.595   2.480   5.625
 5984TIP3   OH217894   8.240   2.239   0.295
 5984TIP3    H117895   8.335   2.236   0.312
 5984TIP3    H217896   8.210   2.318   0.339
 5985TIP3   OH217897   6.687   6.894   6.305
 5985TIP3    H117898   6.679   6.942   6.223
 5985TIP3    H217899   6.609   6.839   6.308
 5986TIP3   OH217900   4.715   0.789   4.826
 5986TIP3    H117901   4.741   0.881   4.822
 5986TIP3    H217902   4.684   0.776   4.916
 5987TIP3   OH217903   6.280   1.931   4.640
 5987TIP3    H117904   6.336   1.981   4.699
 5987TIP3    H217905   6.212   1.993   4.612
 5988TIP3   OH217906   2.941   1.014   2.831
 5988TIP3    H117907   2.912   1.061   2.752
 5988TIP3    H217908   2.860   0.994   2.878
 5989TIP3   OH217909   1.342   0.345   1.017
 5989TIP3    H117910   1.325   0.338   1.111
 5989TIP3    H217911   1.301   0.268   0.978
 5990TIP3   OH217912   8.260   3.442   2.803
 5990TIP3    H117913   8.272   3.536   2.818
 5990TIP3    H217914   8.203   3.414   2.875
 5991TIP3   OH217915   4.106   2.846   6.390
 5991TIP3    H117916   4.173   2.844   6.322
 5991TIP3    H217917   4.126   2.769   6.444
 5992TIP3   OH217918   4.281   4.852   3.312
 5992TIP3    H117919   4.244   4.779   3.361
 5992TIP3    H217920   4.205   4.902   3.282
 5993TIP3   OH217921   7.594   5.242   5.069
 5993TIP3    H117922   7.606   5.185   5.146
 5993TIP3    H217923   7.591   5.331   5.105
 5994TIP3   OH217924   1.299   5.025   3.801
 5994TIP3    H117925   1.344   5.099   3.760
 5994TIP3    H217926   1.315   4.951   3.742
 5995TIP3   OH217927   1.421   7.674   4.006
 5995TIP3    H117928   1.411   7.631   3.921
 5995TIP3    H217929   1.468   7.755   3.987
 5996TIP3   OH217930   1.003   6.330   3.735
 5996TIP3    H117931   0.993   6.293   3.823
 5996TIP3    H217932   1.022   6.422   3.750
 5997TIP3   OH217933   0.918   7.303   1.008
 5997TIP3    H117934   0.901   7.232   0.945
 5997TIP3    H217935   0.874   7.379   0.970
 5998TIP3   OH217936   7.996   0.529   2.148
 5998TIP3    H117937   7.994   0.434   2.160
 5998TIP3    H217938   8.085   0.555   2.171
 5999TIP3   OH217939   5.073   3.567   3.992
 5999TIP3    H117940   4.998   3.524   4.033
 5999TIP3    H217941   5.034   3.630   3.932
 6000TIP3   OH217942   0.026   4.223   1.818
 6000TIP3    H117943   0.031   4.222   1.913
 6000TIP3    H217944   0.044   4.314   1.793
 6001TIP3   OH217945   6.292   7.671   0.215
 6001TIP3    H117946   6.283   7.738   0.284
 6001TIP3    H217947   6.281   7.588   0.260
 6002TIP3   OH217948   0.494   4.319   4.090
 6002TIP3    H117949   0.585   4.293   4.108
 6002TIP3    H217950   0.442   4.272   4.155
 6003TIP3   OH217951   1.361   1.887   1.972
 6003TIP3    H117952   1.306   1.850   1.903
 6003TIP3    H217953   1.436   1.827   1.977
 6004TIP3   OH217954   7.820   6.627   3.712
 6004TIP3    H117955   7.785   6.546   3.676
 6004TIP3    H217956   7.879   6.660   3.644
 6005TIP3   OH217957   2.830   6.503   4.755
 6005TIP3    H117958   2.893   6.450   4.707
 6005TIP3    H217959   2.789   6.442   4.817
 6006TIP3   OH217960   7.860   0.413   2.439
 6006TIP3    H117961   7.839   0.506   2.443
 6006TIP3    H217962   7.792   0.376   2.383
 6007TIP3   OH217963   5.081   3.939   6.104
 6007TIP3    H117964   5.002   3.984   6.133
 6007TIP3    H217965   5.111   3.989   6.028
 6008TIP3   OH217966   4.373   3.439   3.173
 6008TIP3    H117967   4.314   3.448   3.098
 6008TIP3    H217968   4.459   3.421   3.135
 6009TIP3   OH217969   3.175   6.397   1.493
 6009TIP3    H117970   3.164   6.487   1.524
 6009TIP3    H217971   3.140   6.342   1.563
 6010TIP3   OH217972   3.050   1.491   3.364
 6010TIP3    H117973   3.102   1.459   3.291
 6010TIP3    H217974   3.044   1.585   3.350
 6011TIP3   OH217975   7.532   3.290   2.701
 6011TIP3    H117976   7.511   3.281   2.608
 6011TIP3    H217977   7.485   3.369   2.729
 6012TIP3   OH217978   3.588   6.137   0.379
 6012TIP3    H117979   3.569   6.065   0.320
 6012TIP3    H217980   3.625   6.095   0.457
 6013TIP3   OH217981   3.929   1.264   5.541
 6013TIP3    H117982   3.912   1.199   5.609
 6013TIP3    H217983   3.976   1.334   5.586
 6014TIP3   OH217984   1.813   7.399   6.076
 6014TIP3    H117985   1.722   7.425   6.063
 6014TIP3    H217986   1.840   7.444   6.156
 6015TIP3   OH217987   5.996   1.024   1.734
 6015TIP3    H117988   5.904   1.013   1.758
 6015TIP3    H217989   6.021   1.107   1.775
 6016TIP3   OH217990   3.504   1.460   6.522
 6016TIP3    H117991   3.528   1.500   6.438
 6016TIP3    H217992   3.519   1.530   6.586
 6017TIP3   OH217993   4.707   5.078   6.559
 6017TIP3    H117994   4.659   5.009   6.604
 6017TIP3    H217995   4.743   5.132   6.628
 6018TIP3   OH217996   0.707   4.129   1.084
 6018TIP3    H117997   0.614   4.121   1.063
 6018TIP3    H217998   0.752   4.102   1.004
 6019TIP3   OH217999   5.179   6.366   0.215
 6019TIP3    H118000   5.156   6.282   0.254
 6019TIP3    H218001   5.212   6.418   0.288
 6020TIP3   OH218002   1.031   5.011   1.789
 6020TIP3    H118003   1.059   4.925   1.758
 6020TIP3    H218004   0.939   4.999   1.813
 6021TIP3   OH218005   4.071   3.502   5.239
 6021TIP3    H118006   4.070   3.577   5.180
 6021TIP3    H218007   4.093   3.427   5.183
 6022TIP3   OH218008   7.282   5.354   5.885
 6022TIP3    H118009   7.191   5.355   5.855
 6022TIP3    H218010   7.281   5.406   5.965
 6023TIP3   OH218011   5.971   3.307   2.082
 6023TIP3    H118012   5.934   3.299   2.170
 6023TIP3    H218013   6.059   3.271   2.090
 6024TIP3   OH218014   7.436   6.036   4.674
 6024TIP3    H118015   7.491   5.957   4.681
 6024TIP3    H218016   7.463   6.076   4.591
 6025TIP3   OH218017   8.139   2.782   6.652
 6025TIP3    H118018   8.061   2.733   6.627
 6025TIP3    H218019   8.110   2.874   6.653
 6026TIP3   OH218020   2.680   4.705   1.310
 6026TIP3    H118021   2.668   4.731   1.219
 6026TIP3    H218022   2.643   4.617   1.315
 6027TIP3   OH218023   2.433   7.851   5.185
 6027TIP3    H118024   2.355   7.844   5.131
 6027TIP3    H218025   2.481   7.770   5.170
 6028TIP3   OH218026   4.108   2.277   6.727
 6028TIP3    H118027   4.165   2.350   6.754
 6028TIP3    H218028   4.084   2.296   6.637
 6029TIP3   OH218029   7.398   4.322   4.186
 6029TIP3    H118030   7.402   4.409   4.225
 6029TIP3    H218031   7.427   4.334   4.095
 6030TIP3   OH218032   3.360   2.487   6.087
 6030TIP3    H118033   3.288   2.516   6.031
 6030TIP3    H218034   3.370   2.557   6.151
 6031TIP3   OH218035   4.372   2.914   1.756
 6031TIP3    H118036   4.457   2.907   1.713
 6031TIP3    H218037   4.365   2.835   1.809
 6032TIP3   OH218038   3.589   5.916   5.683
 6032TIP3    H118039   3.539   5.850   5.635
 6032TIP3    H218040   3.620   5.870   5.762
 6033TIP3   OH218041   1.241   5.184   1.552
 6033TIP3    H118042   1.195   5.245   1.610
 6033TIP3    H218043   1.283   5.122   1.612
 6034TIP3   OH218044   8.341   3.487   2.515
 6034TIP3    H118045   8.349   3.503   2.609
 6034TIP3    H218046   8.248   3.500   2.497
 6035TIP3   OH218047   7.083   0.326   1.172
 6035TIP3    H118048   7.159   0.342   1.116
 6035TIP3    H218049   7.078   0.231   1.180
 6036TIP3   OH218050   4.444   2.310   1.644
 6036TIP3    H118051   4.402   2.391   1.616
 6036TIP3    H218052   4.517   2.298   1.582
 6037TIP3   OH218053   2.634   5.697   4.976
 6037TIP3    H118054   2.640   5.602   4.963
 6037TIP3    H218055   2.545   5.719   4.951
 6038TIP3   OH218056   5.354   6.726   4.602
 6038TIP3    H118057   5.356   6.767   4.515
 6038TIP3    H218058   5.344   6.632   4.584
 6039TIP3   OH218059   4.170   1.546   1.690
 6039TIP3    H118060   4.130   1.463   1.718
 6039TIP3    H218061   4.251   1.551   1.741
 6040TIP3   OH218062   5.121   2.330   4.726
 6040TIP3    H118063   5.036   2.345   4.767
 6040TIP3    H218064   5.109   2.253   4.671
 6041TIP3   OH218065   6.875   3.634   6.156
 6041TIP3    H118066   6.933   3.559   6.165
 6041TIP3    H218067   6.789   3.595   6.136
 6042TIP3   OH218068   7.464   2.252   2.133
 6042TIP3    H118069   7.416   2.171   2.149
 6042TIP3    H218070   7.399   2.321   2.148
 6043TIP3   OH218071   4.294   2.530   6.143
 6043TIP3    H118072   4.232   2.546   6.071
 6043TIP3    H218073   4.363   2.477   6.104
 6044TIP3   OH218074   5.068   5.752   5.827
 6044TIP3    H118075   5.038   5.683   5.887
 6044TIP3    H218076   5.109   5.817   5.885
 6045TIP3   OH218077   3.742   4.259   4.334
 6045TIP3    H118078   3.698   4.245   4.250
 6045TIP3    H218079   3.801   4.184   4.343
 6046TIP3   OH218080   7.267   1.580   5.252
 6046TIP3    H118081   7.308   1.557   5.335
 6046TIP3    H218082   7.183   1.533   5.253
 6047TIP3   OH218083   5.444   3.857   1.043
 6047TIP3    H118084   5.401   3.785   0.997
 6047TIP3    H218085   5.383   3.882   1.112
 6048TIP3   OH218086   4.298   3.124   3.893
 6048TIP3    H118087   4.331   3.047   3.847
 6048TIP3    H218088   4.207   3.132   3.865
 6049TIP3   OH218089   5.611   3.381   5.517
 6049TIP3    H118090   5.638   3.464   5.480
 6049TIP3    H218091   5.610   3.320   5.443
 6050TIP3   OH218092   1.534   4.837   5.881
 6050TIP3    H118093   1.597   4.909   5.880
 6050TIP3    H218094   1.511   4.828   5.974
 6051TIP3   OH218095   1.231   6.602   0.657
 6051TIP3    H118096   1.326   6.588   0.660
 6051TIP3    H218097   1.203   6.594   0.748
 6052TIP3   OH218098   4.499   0.197   0.682
 6052TIP3    H118099   4.569   0.214   0.745
 6052TIP3    H218100   4.419   0.202   0.734
 6053TIP3   OH218101   0.646   2.278   2.807
 6053TIP3    H118102   0.732   2.276   2.849
 6053TIP3    H218103   0.602   2.354   2.845
 6054TIP3   OH218104   6.089   2.145   4.619
 6054TIP3    H118105   5.999   2.113   4.612
 6054TIP3    H218106   6.089   2.204   4.694
 6055TIP3   OH218107   5.312   7.717   0.678
 6055TIP3    H118108   5.369   7.792   0.659
 6055TIP3    H218109   5.230   7.737   0.633
 6056TIP3   OH218110   4.552   1.763   6.543
 6056TIP3    H118111   4.606   1.841   6.555
 6056TIP3    H218112   4.472   1.781   6.593
 6057TIP3   OH218113   2.215   1.589   5.016
 6057TIP3    H118114   2.181   1.528   4.950
 6057TIP3    H218115   2.227   1.672   4.968
 6058TIP3   OH218116   3.004   4.217   0.825
 6058TIP3    H118117   3.005   4.122   0.809
 6058TIP3    H218118   2.959   4.227   0.909
 6059TIP3   OH218119   1.877   0.500   1.545
 6059TIP3    H118120   1.968   0.488   1.519
 6059TIP3    H218121   1.837   0.549   1.473
 6060TIP3   OH218122   2.901   7.224   6.628
 6060TIP3    H118123   2.989   7.188   6.615
 6060TIP3    H218124   2.844   7.165   6.578
 6061TIP3   OH218125   1.975   4.476   6.528
 6061TIP3    H118126   1.902   4.459   6.588
 6061TIP3    H218127   2.053   4.452   6.578
 6062TIP3   OH218128   7.995   2.409   6.179
 6062TIP3    H118129   7.913   2.412   6.228
 6062TIP3    H218130   8.041   2.333   6.214
 6063TIP3   OH218131   7.331   7.410   6.593
 6063TIP3    H118132   7.355   7.327   6.634
 6063TIP3    H218133   7.345   7.476   6.661
 6064TIP3   OH218134   6.512   5.539   3.314
 6064TIP3    H118135   6.543   5.448   3.312
 6064TIP3    H218136   6.541   5.576   3.230
 6065TIP3   OH218137   3.483   7.716   6.727
 6065TIP3    H118138   3.395   7.754   6.735
 6065TIP3    H218139   3.535   7.785   6.687
 6066TIP3   OH218140   5.676   0.781   3.263
 6066TIP3    H118141   5.693   0.742   3.349
 6066TIP3    H218142   5.598   0.835   3.277
 6067TIP3   OH218143   4.471   7.205   2.243
 6067TIP3    H118144   4.561   7.217   2.275
 6067TIP3    H218145   4.438   7.294   2.233
 6068TIP3   OH218146   0.516   3.666   3.585
 6068TIP3    H118147   0.447   3.604   3.563
 6068TIP3    H218148   0.510   3.734   3.517
 6069TIP3   OH218149   7.386   3.066   3.754
 6069TIP3    H118150   7.415   3.110   3.834
 6069TIP3    H218151   7.362   2.978   3.783
 6070TIP3   OH218152   5.033   6.881   3.859
 6070TIP3    H118153   4.950   6.926   3.843
 6070TIP3    H218154   5.070   6.926   3.935
 6071TIP3   OH218155   5.516   7.060   0.955
 6071TIP3    H118156   5.609   7.074   0.975
 6071TIP3    H218157   5.513   7.055   0.859
 6072TIP3   OH218158   5.465   2.908   2.164
 6072TIP3    H118159   5.508   2.884   2.246
 6072TIP3    H218160   5.477   3.003   2.157
 6073TIP3   OH218161   6.874   2.643   0.796
 6073TIP3    H118162   6.832   2.685   0.871
 6073TIP3    H218163   6.925   2.713   0.755
 6074TIP3   OH218164   1.298   1.105   4.319
 6074TIP3    H118165   1.295   1.196   4.347
 6074TIP3    H218166   1.376   1.069   4.360
 6075TIP3   OH218167   0.411   0.193   4.526
 6075TIP3    H118168   0.393   0.103   4.501
 6075TIP3    H218169   0.340   0.216   4.587
 6076TIP3   OH218170   0.627   0.704   4.514
 6076TIP3    H118171   0.606   0.665   4.599
 6076TIP3    H218172   0.585   0.790   4.516
 6077TIP3   OH218173   5.143   3.141   3.855
 6077TIP3    H118174   5.079   3.159   3.786
 6077TIP3    H218175   5.227   3.163   3.815
 6078TIP3   OH218176   4.692   6.811   4.036
 6078TIP3    H118177   4.617   6.818   4.095
 6078TIP3    H218178   4.664   6.858   3.957
 6079TIP3   OH218179   6.755   1.891   5.437
 6079TIP3    H118180   6.669   1.916   5.472
 6079TIP3    H218181   6.799   1.975   5.421
 6080TIP3   OH218182   0.297   6.300   2.301
 6080TIP3    H118183   0.307   6.375   2.242
 6080TIP3    H218184   0.343   6.229   2.257
 6081TIP3   OH218185   1.199   2.627   4.923
 6081TIP3    H118186   1.149   2.566   4.976
 6081TIP3    H218187   1.209   2.583   4.838
 6082TIP3   OH218188   7.219   3.386   5.077
 6082TIP3    H118189   7.235   3.341   5.160
 6082TIP3    H218190   7.167   3.463   5.100
 6083TIP3   OH218191   2.151   1.955   0.571
 6083TIP3    H118192   2.165   1.939   0.478
 6083TIP3    H218193   2.224   2.010   0.598
 6084TIP3   OH218194   6.115   5.285   2.026
 6084TIP3    H118195   6.174   5.359   2.047
 6084TIP3    H218196   6.124   5.226   2.101
 6085TIP3   OH218197   5.764   4.695   0.382
 6085TIP3    H118198   5.696   4.703   0.449
 6085TIP3    H218199   5.726   4.737   0.305
 6086TIP3   OH218200   0.517   0.036   1.108
 6086TIP3    H118201   0.610   0.018   1.093
 6086TIP3    H218202   0.514   0.127   1.139
 6087TIP3   OH218203   5.811   3.565   1.251
 6087TIP3    H118204   5.772   3.503   1.190
 6087TIP3    H218205   5.852   3.631   1.195
 6088TIP3   OH218206   5.891   4.072   3.305
 6088TIP3    H118207   5.933   4.067   3.219
 6088TIP3    H218208   5.800   4.048   3.289
 6089TIP3   OH218209   6.219   0.679   0.635
 6089TIP3    H118210   6.145   0.722   0.592
 6089TIP3    H218211   6.184   0.645   0.716
 6090TIP3   OH218212   5.486   1.991   1.569
 6090TIP3    H118213   5.535   2.054   1.517
 6090TIP3    H218214   5.394   2.009   1.549
 6091TIP3   OH218215   7.131   6.150   4.735
 6091TIP3    H118216   7.098   6.211   4.800
 6091TIP3    H218217   7.204   6.106   4.778
 6092TIP3   OH218218   7.846   5.276   4.218
 6092TIP3    H118219   7.775   5.219   4.249
 6092TIP3    H218220   7.861   5.249   4.128
 6093TIP3   OH218221   4.436   1.155   3.523
 6093TIP3    H118222   4.518   1.107   3.507
 6093TIP3    H218223   4.452   1.203   3.604
 6094TIP3   OH218224   2.830   6.630   0.979
 6094TIP3    H118225   2.803   6.539   0.994
 6094TIP3    H218226   2.810   6.646   0.886
 6095TIP3   OH218227   3.473   2.148   2.242
 6095TIP3    H118228   3.508   2.199   2.169
 6095TIP3    H218229   3.446   2.213   2.307
 6096TIP3   OH218230   7.445   4.785   4.405
 6096TIP3    H118231   7.351   4.796   4.389
 6096TIP3    H218232   7.462   4.833   4.486
 6097TIP3   OH218233   7.064   1.221   1.418
 6097TIP3    H118234   7.025   1.205   1.504
 6097TIP3    H218235   7.013   1.166   1.359
 6098TIP3   OH218236   2.947   5.370   6.022
 6098TIP3    H118237   2.930   5.408   6.108
 6098TIP3    H218238   2.907   5.283   6.025
 6099TIP3   OH218239   3.280   3.381   0.166
 6099TIP3    H118240   3.343   3.328   0.118
 6099TIP3    H218241   3.268   3.335   0.249
 6100TIP3   OH218242   7.447   1.032   6.070
 6100TIP3    H118243   7.372   1.028   6.010
 6100TIP3    H218244   7.524   1.035   6.013
 6101TIP3   OH218245   3.298   1.856   5.986
 6101TIP3    H118246   3.383   1.894   6.006
 6101TIP3    H218247   3.316   1.763   5.971
 6102TIP3   OH218248   0.282   5.523   0.787
 6102TIP3    H118249   0.248   5.455   0.844
 6102TIP3    H218250   0.365   5.549   0.827
 6103TIP3   OH218251   3.093   4.493   5.128
 6103TIP3    H118252   3.070   4.452   5.044
 6103TIP3    H218253   3.173   4.449   5.155
 6104TIP3   OH218254   3.761   6.167   0.911
 6104TIP3    H118255   3.791   6.093   0.964
 6104TIP3    H218256   3.714   6.127   0.838
 6105TIP3   OH218257   2.510   7.688   2.905
 6105TIP3    H118258   2.548   7.732   2.829
 6105TIP3    H218259   2.455   7.754   2.946
 6106TIP3   OH218260   0.053   5.770   5.288
 6106TIP3    H118261   0.117   5.710   5.251
 6106TIP3    H218262   0.007   5.806   5.212
 6107TIP3   OH218263   8.093   5.018   5.588
 6107TIP3    H118264   8.106   4.938   5.537
 6107TIP3    H218265   8.181   5.050   5.606
 6108TIP3   OH218266   6.076   5.523   6.347
 6108TIP3    H118267   6.027   5.539   6.428
 6108TIP3    H218268   6.056   5.599   6.292
 6109TIP3   OH218269   1.017   6.675   4.260
 6109TIP3    H118270   0.973   6.758   4.242
 6109TIP3    H218271   1.110   6.693   4.245
 6110TIP3   OH218272   1.242   7.645   4.220
 6110TIP3    H118273   1.266   7.641   4.128
 6110TIP3    H218274   1.155   7.605   4.225
 6111TIP3   OH218275   5.915   1.938   5.413
 6111TIP3    H118276   5.906   1.944   5.508
 6111TIP3    H218277   5.899   2.026   5.381
 6112TIP3   OH218278   2.295   6.523   4.392
 6112TIP3    H118279   2.391   6.516   4.400
 6112TIP3    H218280   2.281   6.571   4.310
 6113TIP3   OH218281   7.107   3.549   4.433
 6113TIP3    H118282   7.097   3.562   4.339
 6113TIP3    H218283   7.114   3.454   4.444
 6114TIP3   OH218284   4.462   1.478   0.891
 6114TIP3    H118285   4.394   1.412   0.884
 6114TIP3    H218286   4.434   1.548   0.833
 6115TIP3   OH218287   6.230   1.527   1.811
 6115TIP3    H118288   6.154   1.561   1.764
 6115TIP3    H218289   6.258   1.450   1.760
 6116TIP3   OH218290   2.339   5.135   5.717
 6116TIP3    H118291   2.294   5.199   5.773
 6116TIP3    H218292   2.424   5.122   5.759
 6117TIP3   OH218293   5.521   6.064   2.612
 6117TIP3    H118294   5.560   6.147   2.585
 6117TIP3    H218295   5.502   6.075   2.705
 6118TIP3   OH218296   4.799   5.138   0.969
 6118TIP3    H118297   4.729   5.175   1.024
 6118TIP3    H218298   4.813   5.050   1.004
 6119TIP3   OH218299   2.170   3.839   0.881
 6119TIP3    H118300   2.164   3.934   0.882
 6119TIP3    H218301   2.264   3.821   0.869
 6120TIP3   OH218302   6.168   1.104   3.114
 6120TIP3    H118303   6.133   1.145   3.193
 6120TIP3    H218304   6.219   1.173   3.071
 6121TIP3   OH218305   0.021   0.211   2.140
 6121TIP3    H118306   0.084   0.201   2.211
 6121TIP3    H218307  -0.001   0.121   2.116
 6122TIP3   OH218308   6.930   5.914   6.524
 6122TIP3    H118309   6.901   5.823   6.518
 6122TIP3    H218310   6.849   5.964   6.535
 6123TIP3   OH218311   0.126   0.765   5.955
 6123TIP3    H118312   0.107   0.672   5.972
 6123TIP3    H218313   0.082   0.783   5.872
 6124TIP3   OH218314   5.974   4.943   0.780
 6124TIP3    H118315   5.906   4.948   0.713
 6124TIP3    H218316   6.056   4.960   0.733
 6125TIP3   OH218317   7.469   3.850   2.851
 6125TIP3    H118318   7.555   3.890   2.834
 6125TIP3    H218319   7.413   3.923   2.877
 6126TIP3   OH218320   1.272   1.588   3.297
 6126TIP3    H118321   1.177   1.598   3.301
 6126TIP3    H218322   1.290   1.514   3.356
 6127TIP3   OH218323   5.944   5.560   2.944
 6127TIP3    H118324   6.008   5.575   3.013
 6127TIP3    H218325   5.941   5.465   2.935
 6128TIP3   OH218326   7.869   2.396   3.860
 6128TIP3    H118327   7.884   2.484   3.895
 6128TIP3    H218328   7.790   2.365   3.905
 6129TIP3   OH218329   5.383   7.461   4.272
 6129TIP3    H118330   5.397   7.368   4.289
 6129TIP3    H218331   5.385   7.502   4.359
 6130TIP3   OH218332   1.284   3.136   2.471
 6130TIP3    H118333   1.336   3.067   2.511
 6130TIP3    H218334   1.335   3.164   2.395
 6131TIP3   OH218335   5.910   0.400   5.519
 6131TIP3    H118336   5.870   0.406   5.606
 6131TIP3    H218337   5.836   0.405   5.458
 6132TIP3   OH218338   6.176   3.403   3.214
 6132TIP3    H118339   6.215   3.321   3.183
 6132TIP3    H218340   6.114   3.375   3.282
 6133TIP3   OH218341   3.755   2.166   6.436
 6133TIP3    H118342   3.706   2.084   6.446
 6133TIP3    H218343   3.846   2.141   6.449
 6134TIP3   OH218344   6.097   6.331   4.952
 6134TIP3    H118345   6.091   6.273   4.876
 6134TIP3    H218346   6.190   6.329   4.976
 6135TIP3   OH218347   0.484   4.804   1.537
 6135TIP3    H118348   0.569   4.846   1.554
 6135TIP3    H218349   0.471   4.814   1.443
 6136TIP3   OH218350   1.927   0.468   2.456
 6136TIP3    H118351   1.850   0.426   2.494
 6136TIP3    H218352   1.933   0.553   2.499
 6137TIP3   OH218353   3.199   3.692   4.723
 6137TIP3    H118354   3.277   3.731   4.682
 6137TIP3    H218355   3.165   3.761   4.780
 6138TIP3   OH218356   5.615   5.209   2.575
 6138TIP3    H118357   5.546   5.145   2.556
 6138TIP3    H218358   5.577   5.293   2.547
 6139TIP3   OH218359   5.610   4.623   5.619
 6139TIP3    H118360   5.645   4.709   5.641
 6139TIP3    H218361   5.548   4.603   5.689
 6140TIP3   OH218362   4.239   7.796   1.408
 6140TIP3    H118363   4.223   7.703   1.394
 6140TIP3    H218364   4.282   7.800   1.493
 6141TIP3   OH218365   4.054   0.818   5.691
 6141TIP3    H118366   4.084   0.809   5.782
 6141TIP3    H218367   4.023   0.730   5.668
 6142TIP3   OH218368   1.162   5.944   2.625
 6142TIP3    H118369   1.138   5.997   2.549
 6142TIP3    H218370   1.202   5.865   2.587
 6143TIP3   OH218371   0.598   1.349   4.030
 6143TIP3    H118372   0.526   1.365   3.969
 6143TIP3    H218373   0.559   1.296   4.100
 6144TIP3   OH218374   2.971   7.457   4.087
 6144TIP3    H118375   2.907   7.393   4.118
 6144TIP3    H218376   3.053   7.408   4.082
 6145TIP3   OH218377   5.369   4.048   0.651
 6145TIP3    H118378   5.401   3.959   0.669
 6145TIP3    H218379   5.298   4.036   0.588
 6146TIP3   OH218380   2.188   6.173   1.905
 6146TIP3    H118381   2.128   6.116   1.951
 6146TIP3    H218382   2.152   6.261   1.916
 6147TIP3   OH218383   7.032   7.440   4.124
 6147TIP3    H118384   7.019   7.381   4.049
 6147TIP3    H218385   7.126   7.443   4.136
 6148TIP3   OH218386   4.266   1.199   4.444
 6148TIP3    H118387   4.179   1.238   4.442
 6148TIP3    H218388   4.265   1.132   4.375
 6149TIP3   OH218389   4.254   6.397   1.707
 6149TIP3    H118390   4.262   6.346   1.788
 6149TIP3    H218391   4.236   6.332   1.639
 6150TIP3   OH218392   2.183   1.117   1.879
 6150TIP3    H118393   2.220   1.162   1.804
 6150TIP3    H218394   2.215   1.165   1.955
 6151TIP3   OH218395   1.479   5.830   3.081
 6151TIP3    H118396   1.550   5.895   3.086
 6151TIP3    H218397   1.489   5.778   3.161
 6152TIP3   OH218398   0.861   2.367   4.954
 6152TIP3    H118399   0.822   2.291   4.997
 6152TIP3    H218400   0.804   2.440   4.977
 6153TIP3   OH218401   3.037   5.321   1.520
 6153TIP3    H118402   3.129   5.297   1.519
 6153TIP3    H218403   2.992   5.241   1.548
 6154TIP3   OH218404   6.989   4.318   1.728
 6154TIP3    H118405   7.027   4.231   1.739
 6154TIP3    H218406   7.055   4.366   1.679
 6155TIP3   OH218407   6.625   4.288   4.589
 6155TIP3    H118408   6.625   4.375   4.548
 6155TIP3    H218409   6.551   4.290   4.650
 6156TIP3   OH218410   7.139   1.199   4.127
 6156TIP3    H118411   7.060   1.223   4.079
 6156TIP3    H218412   7.140   1.257   4.203
 6157TIP3   OH218413  -0.029   6.225   4.444
 6157TIP3    H118414  -0.022   6.185   4.531
 6157TIP3    H218415  -0.021   6.152   4.383
 6158TIP3   OH218416   0.647   6.759   4.172
 6158TIP3    H118417   0.712   6.774   4.103
 6158TIP3    H218418   0.632   6.846   4.210
 6159TIP3   OH218419   2.745   7.697   5.731
 6159TIP3    H118420   2.757   7.723   5.640
 6159TIP3    H218421   2.832   7.670   5.760
 6160TIP3   OH218422   6.893   0.451   6.449
 6160TIP3    H118423   6.980   0.487   6.465
 6160TIP3    H218424   6.842   0.525   6.414
 6161TIP3   OH218425   1.264   7.349   2.433
 6161TIP3    H118426   1.235   7.435   2.464
 6161TIP3    H218427   1.292   7.303   2.513
 6162TIP3   OH218428   6.899   3.052   0.421
 6162TIP3    H118429   6.904   3.071   0.327
 6162TIP3    H218430   6.988   3.067   0.452
 6163TIP3   OH218431   3.490   7.545   0.783
 6163TIP3    H118432   3.427   7.536   0.854
 6163TIP3    H218433   3.436   7.565   0.706
 6164TIP3   OH218434   6.156   5.860   4.720
 6164TIP3    H118435   6.132   5.867   4.627
 6164TIP3    H218436   6.248   5.887   4.723
 6165TIP3   OH218437   3.040   0.420   4.199
 6165TIP3    H118438   3.126   0.386   4.224
 6165TIP3    H218439   3.058   0.474   4.121
 6166TIP3   OH218440   6.788   2.016   3.996
 6166TIP3    H118441   6.819   2.094   3.951
 6166TIP3    H218442   6.855   1.999   4.063
 6167TIP3   OH218443   2.987   4.698   2.638
 6167TIP3    H118444   3.015   4.753   2.565
 6167TIP3    H218445   3.067   4.656   2.669
 6168TIP3   OH218446   5.622   6.893   2.038
 6168TIP3    H118447   5.575   6.873   1.957
 6168TIP3    H218448   5.632   6.988   2.036
 6169TIP3   OH218449   5.219   7.388   2.269
 6169TIP3    H118450   5.275   7.350   2.337
 6169TIP3    H218451   5.271   7.382   2.189
 6170TIP3   OH218452   6.684   2.445   4.103
 6170TIP3    H118453   6.668   2.527   4.150
 6170TIP3    H218454   6.745   2.396   4.158
 6171TIP3   OH218455   6.742   2.829   5.589
 6171TIP3    H118456   6.781   2.915   5.574
 6171TIP3    H218457   6.779   2.774   5.521
 6172TIP3   OH218458   1.227   5.744   3.717
 6172TIP3    H118459   1.291   5.811   3.692
 6172TIP3    H218460   1.153   5.793   3.752
 6173TIP3   OH218461   0.665   7.334   5.898
 6173TIP3    H118462   0.730   7.382   5.948
 6173TIP3    H218463   0.586   7.389   5.903
 6174TIP3   OH218464   2.690   4.542   4.023
 6174TIP3    H118465   2.731   4.616   3.978
 6174TIP3    H218466   2.727   4.464   3.980
 6175TIP3   OH218467   2.850   1.464   3.714
 6175TIP3    H118468   2.920   1.422   3.764
 6175TIP3    H218469   2.782   1.483   3.778
 6176TIP3   OH218470   7.993   7.301   4.127
 6176TIP3    H118471   8.059   7.368   4.146
 6176TIP3    H218472   7.963   7.272   4.213
 6177TIP3   OH218473   4.988   4.399   4.499
 6177TIP3    H118474   5.071   4.389   4.452
 6177TIP3    H218475   4.923   4.412   4.430
 6178TIP3   OH218476   6.258   2.854   2.048
 6178TIP3    H118477   6.315   2.817   1.981
 6178TIP3    H218478   6.312   2.919   2.092
 6179TIP3   OH218479   4.536   5.965   5.155
 6179TIP3    H118480   4.456   6.009   5.183
 6179TIP3    H218481   4.595   6.037   5.131
 6180TIP3   OH218482   5.000   6.099   1.725
 6180TIP3    H118483   4.929   6.129   1.668
 6180TIP3    H218484   5.080   6.116   1.674
 6181TIP3   OH218485   1.028   6.058   0.730
 6181TIP3    H118486   0.954   6.106   0.694
 6181TIP3    H218487   1.098   6.124   0.736
 6182TIP3   OH218488   2.884   4.071   2.993
 6182TIP3    H118489   2.910   4.113   2.911
 6182TIP3    H218490   2.801   4.112   3.015
 6183TIP3   OH218491   7.679   0.842   1.944
 6183TIP3    H118492   7.584   0.839   1.958
 6183TIP3    H218493   7.710   0.755   1.969
 6184TIP3   OH218494   7.096   7.557   2.588
 6184TIP3    H118495   7.043   7.542   2.666
 6184TIP3    H218496   7.042   7.526   2.516
 6185TIP3   OH218497   3.440   6.827   6.285
 6185TIP3    H118498   3.478   6.749   6.246
 6185TIP3    H218499   3.365   6.847   6.230
 6186TIP3   OH218500   0.115   4.529   4.813
 6186TIP3    H118501   0.198   4.485   4.827
 6186TIP3    H218502   0.113   4.548   4.719
 6187TIP3   OH218503   4.103   5.825   2.255
 6187TIP3    H118504   4.173   5.766   2.284
 6187TIP3    H218505   4.027   5.767   2.243
 6188TIP3   OH218506   6.292   1.855   5.142
 6188TIP3    H118507   6.297   1.800   5.065
 6188TIP3    H218508   6.254   1.799   5.210
 6189TIP3   OH218509   1.746   6.499   3.577
 6189TIP3    H118510   1.713   6.503   3.666
 6189TIP3    H218511   1.768   6.590   3.556
 6190TIP3   OH218512   7.171   0.254   6.333
 6190TIP3    H118513   7.078   0.266   6.313
 6190TIP3    H218514   7.213   0.241   6.248
 6191TIP3   OH218515   5.675   2.487   2.316
 6191TIP3    H118516   5.600   2.543   2.295
 6191TIP3    H218517   5.732   2.543   2.369
 6192TIP3   OH218518   3.088   3.304   4.062
 6192TIP3    H118519   3.077   3.242   4.134
 6192TIP3    H218520   3.060   3.257   3.984
 6193TIP3   OH218521   0.162   1.010   2.256
 6193TIP3    H118522   0.227   1.080   2.259
 6193TIP3    H218523   0.184   0.960   2.177
 6194TIP3   OH218524   6.696   7.601   4.503
 6194TIP3    H118525   6.704   7.512   4.538
 6194TIP3    H218526   6.751   7.600   4.424
 6195TIP3   OH218527   7.800   1.555   0.956
 6195TIP3    H118528   7.775   1.583   0.868
 6195TIP3    H218529   7.873   1.613   0.979
 6196TIP3   OH218530   7.532   0.712   1.171
 6196TIP3    H118531   7.627   0.702   1.169
 6196TIP3    H218532   7.517   0.803   1.148
 6197TIP3   OH218533   6.336   0.393   2.177
 6197TIP3    H118534   6.387   0.334   2.122
 6197TIP3    H218535   6.400   0.458   2.208
 6198TIP3   OH218536   4.865   7.423   0.218
 6198TIP3    H118537   4.777   7.456   0.199
 6198TIP3    H218538   4.854   7.328   0.226
 6199TIP3   OH218539   5.102   6.599   0.595
 6199TIP3    H118540   5.071   6.516   0.558
 6199TIP3    H218541   5.032   6.626   0.655
 6200TIP3   OH218542   6.102   7.033   0.474
 6200TIP3    H118543   6.123   7.079   0.393
 6200TIP3    H218544   6.174   7.056   0.533
 6201TIP3   OH218545   1.035   2.240   6.367
 6201TIP3    H118546   1.114   2.221   6.318
 6201TIP3    H218547   0.965   2.243   6.301
 6202TIP3   OH218548   6.724   0.170   6.703
 6202TIP3    H118549   6.771   0.130   6.630
 6202TIP3    H218550   6.788   0.229   6.743
 6203TIP3   OH218551   2.473   6.586   4.883
 6203TIP3    H118552   2.477   6.500   4.925
 6203TIP3    H218553   2.537   6.639   4.931
 6204TIP3   OH218554   6.017   3.113   5.195
 6204TIP3    H118555   6.053   3.042   5.247
 6204TIP3    H218556   6.056   3.102   5.108
 6205TIP3   OH218557   4.387   0.094   4.252
 6205TIP3    H118558   4.315   0.135   4.299
 6205TIP3    H218559   4.408   0.015   4.303
 6206TIP3   OH218560   5.205   2.668   3.089
 6206TIP3    H118561   5.235   2.590   3.043
 6206TIP3    H218562   5.164   2.634   3.169
 6207TIP3   OH218563   2.512   4.037   4.510
 6207TIP3    H118564   2.459   3.976   4.561
 6207TIP3    H218565   2.458   4.058   4.434
 6208TIP3   OH218566   7.072   4.172   2.092
 6208TIP3    H118567   7.102   4.262   2.105
 6208TIP3    H218568   7.012   4.156   2.164
 6209TIP3   OH218569   6.460   6.145   2.201
 6209TIP3    H118570   6.473   6.089   2.278
 6209TIP3    H218571   6.517   6.107   2.134
 6210TIP3   OH218572   0.678   0.885   6.516
 6210TIP3    H118573   0.719   0.808   6.555
 6210TIP3    H218574   0.727   0.899   6.435
 6211TIP3   OH218575   5.721   3.641   3.570
 6211TIP3    H118576   5.721   3.640   3.666
 6211TIP3    H218577   5.661   3.571   3.545
 6212TIP3   OH218578   0.280   4.818   4.613
 6212TIP3    H118579   0.292   4.745   4.552
 6212TIP3    H218580   0.185   4.835   4.611
 6213TIP3   OH218581   3.720   0.813   5.302
 6213TIP3    H118582   3.747   0.871   5.374
 6213TIP3    H218583   3.792   0.750   5.294
 6214TIP3   OH218584   0.072   0.024   4.102
 6214TIP3    H118585   0.060   0.035   4.197
 6214TIP3    H218586   0.008  -0.042   4.077
 6215TIP3   OH218587   6.397   0.138   5.887
 6215TIP3    H118588   6.446   0.098   5.815
 6215TIP3    H218589   6.314   0.165   5.847
 6216TIP3   OH218590   0.390   6.952   0.081
 6216TIP3    H118591   0.449   7.019   0.115
 6216TIP3    H218592   0.442   6.872   0.081
 6217TIP3   OH218593   3.976   6.248   1.912
 6217TIP3    H118594   3.996   6.154   1.915
 6217TIP3    H218595   3.881   6.252   1.909
 6218TIP3   OH218596   5.125   3.269   2.696
 6218TIP3    H118597   5.061   3.210   2.736
 6218TIP3    H218598   5.121   3.248   2.602
 6219TIP3   OH218599   3.312   5.982   5.903
 6219TIP3    H118600   3.258   5.992   5.982
 6219TIP3    H218601   3.299   6.064   5.855
 6220TIP3   OH218602   4.422   4.536   5.805
 6220TIP3    H118603   4.419   4.624   5.767
 6220TIP3    H218604   4.439   4.550   5.898
 6221TIP3   OH218605   6.689   2.763   3.504
 6221TIP3    H118606   6.749   2.831   3.534
 6221TIP3    H218607   6.684   2.701   3.577
 6222TIP3   OH218608   6.352   3.278   3.609
 6222TIP3    H118609   6.326   3.226   3.534
 6222TIP3    H218610   6.421   3.336   3.576
 6223TIP3   OH218611   1.404   7.825   0.279
 6223TIP3    H118612   1.327   7.791   0.325
 6223TIP3    H218613   1.454   7.747   0.255
 6224TIP3   OH218614   5.568   4.162   4.641
 6224TIP3    H118615   5.647   4.141   4.591
 6224TIP3    H218616   5.540   4.079   4.679
 6225TIP3   OH218617   0.238   2.943   0.751
 6225TIP3    H118618   0.283   2.917   0.671
 6225TIP3    H218619   0.153   2.898   0.746
 6226TIP3   OH218620   4.637   4.717   4.965
 6226TIP3    H118621   4.542   4.708   4.957
 6226TIP3    H218622   4.670   4.628   4.956
 6227TIP3   OH218623   7.963   2.167   0.864
 6227TIP3    H118624   8.003   2.080   0.860
 6227TIP3    H218625   7.882   2.158   0.813
 6228TIP3   OH218626   5.792   2.830   5.195
 6228TIP3    H118627   5.864   2.798   5.140
 6228TIP3    H218628   5.788   2.768   5.268
 6229TIP3   OH218629   3.808   2.549   5.919
 6229TIP3    H118630   3.824   2.494   5.843
 6229TIP3    H218631   3.757   2.494   5.978
 6230TIP3   OH218632   6.758   5.816   6.305
 6230TIP3    H118633   6.666   5.838   6.296
 6230TIP3    H218634   6.765   5.775   6.391
 6231TIP3   OH218635   5.960   5.700   3.496
 6231TIP3    H118636   5.897   5.760   3.457
 6231TIP3    H218637   5.974   5.633   3.428
 6232TIP3   OH218638   0.668   7.097   5.774
 6232TIP3    H118639   0.573   7.090   5.774
 6232TIP3    H218640   0.688   7.167   5.837
 6233TIP3   OH218641   5.518   5.958   2.349
 6233TIP3    H118642   5.426   5.942   2.330
 6233TIP3    H218643   5.518   6.032   2.409
 6234TIP3   OH218644   7.931   1.096   5.351
 6234TIP3    H118645   7.888   1.071   5.433
 6234TIP3    H218646   8.017   1.052   5.355
 6235TIP3   OH218647   7.894   6.051   2.554
 6235TIP3    H118648   7.817   6.102   2.528
 6235TIP3    H218649   7.922   6.090   2.636
 6236TIP3   OH218650   8.159   4.404   2.878
 6236TIP3    H118651   8.166   4.420   2.784
 6236TIP3    H218652   8.081   4.453   2.905
 6237TIP3   OH218653   0.030   7.449   5.629
 6237TIP3    H118654   0.112   7.409   5.602
 6237TIP3    H218655  -0.029   7.375   5.643
 6238TIP3   OH218656   8.287   1.949   2.025
 6238TIP3    H118657   8.246   1.863   2.042
 6238TIP3    H218658   8.380   1.930   2.018
 6239TIP3   OH218659   1.704   6.321   4.583
 6239TIP3    H118660   1.644   6.338   4.655
 6239TIP3    H218661   1.724   6.408   4.547
 6240TIP3   OH218662   6.015   0.030   6.735
 6240TIP3    H118663   6.004   0.124   6.723
 6240TIP3    H218664   5.939   0.004   6.786
 6241TIP3   OH218665   5.727   3.081   1.383
 6241TIP3    H118666   5.705   3.007   1.440
 6241TIP3    H218667   5.715   3.158   1.438
 6242TIP3   OH218668   2.954   3.364   5.131
 6242TIP3    H118669   2.906   3.356   5.213
 6242TIP3    H218670   3.046   3.349   5.155
 6243TIP3   OH218671   7.896   1.925   0.247
 6243TIP3    H118672   7.858   1.992   0.303
 6243TIP3    H218673   7.978   1.963   0.216
 6244TIP3   OH218674   0.128   7.021   4.306
 6244TIP3    H118675   0.114   7.114   4.323
 6244TIP3    H218676   0.075   7.002   4.228
 6245TIP3   OH218677   7.956   1.128   6.076
 6245TIP3    H118678   8.028   1.188   6.096
 6245TIP3    H218679   7.915   1.109   6.160
 6246TIP3   OH218680   5.940   5.229   1.585
 6246TIP3    H118681   6.007   5.173   1.624
 6246TIP3    H218682   5.926   5.299   1.648
 6247TIP3   OH218683   5.978   0.122   5.039
 6247TIP3    H118684   5.952   0.129   4.947
 6247TIP3    H218685   5.944   0.036   5.066
 6248TIP3   OH218686   7.303   5.838   2.027
 6248TIP3    H118687   7.394   5.822   2.053
 6248TIP3    H218688   7.253   5.831   2.109
 6249TIP3   OH218689   7.303   6.902   2.921
 6249TIP3    H118690   7.386   6.912   2.875
 6249TIP3    H218691   7.316   6.827   2.978
 6250TIP3   OH218692   5.296   2.465   2.918
 6250TIP3    H118693   5.248   2.501   2.844
 6250TIP3    H218694   5.341   2.388   2.882
 6251TIP3   OH218695   1.020   6.061   4.542
 6251TIP3    H118696   1.019   6.152   4.573
 6251TIP3    H218697   1.100   6.025   4.581
 6252TIP3   OH218698   0.720   5.992   0.512
 6252TIP3    H118699   0.778   6.068   0.503
 6252TIP3    H218700   0.756   5.927   0.451
 6253TIP3   OH218701   0.276   4.069   6.801
 6253TIP3    H118702   0.216   4.143   6.792
 6253TIP3    H218703   0.266   4.020   6.719
 6254TIP3   OH218704   4.292   0.994   2.469
 6254TIP3    H118705   4.261   0.914   2.512
 6254TIP3    H218706   4.371   1.018   2.517
 6255TIP3   OH218707   0.467   4.581   4.954
 6255TIP3    H118708   0.450   4.675   4.966
 6255TIP3    H218709   0.531   4.560   5.022
 6256TIP3   OH218710   1.283   1.379   6.663
 6256TIP3    H118711   1.253   1.470   6.655
 6256TIP3    H218712   1.212   1.335   6.709
 6257TIP3   OH218713   0.493   5.457   6.067
 6257TIP3    H118714   0.565   5.421   6.118
 6257TIP3    H218715   0.415   5.414   6.101
 6258TIP3   OH218716   4.927   3.673   5.629
 6258TIP3    H118717   4.931   3.595   5.573
 6258TIP3    H218718   5.003   3.725   5.603
 6259TIP3   OH218719   6.392   6.636   1.859
 6259TIP3    H118720   6.347   6.664   1.939
 6259TIP3    H218721   6.475   6.599   1.889
 6260TIP3   OH218722   5.749   4.387   0.511
 6260TIP3    H118723   5.753   4.303   0.466
 6260TIP3    H218724   5.656   4.403   0.524
 6261TIP3   OH218725   1.108   2.555   0.741
 6261TIP3    H118726   1.179   2.591   0.688
 6261TIP3    H218727   1.038   2.621   0.735
 6262TIP3   OH218728   2.614   1.182   0.115
 6262TIP3    H118729   2.665   1.101   0.123
 6262TIP3    H218730   2.546   1.161   0.051
 6263TIP3   OH218731   3.214   0.453   1.236
 6263TIP3    H118732   3.288   0.476   1.181
 6263TIP3    H218733   3.232   0.364   1.264
 6264TIP3   OH218734   7.474   6.396   6.291
 6264TIP3    H118735   7.462   6.453   6.367
 6264TIP3    H218736   7.569   6.381   6.286
 6265TIP3   OH218737   5.237   4.638   2.304
 6265TIP3    H118738   5.165   4.679   2.353
 6265TIP3    H218739   5.211   4.547   2.293
 6266TIP3   OH218740   5.290   7.174   0.209
 6266TIP3    H118741   5.224   7.118   0.167
 6266TIP3    H218742   5.362   7.114   0.230
 6267TIP3   OH218743   1.957   3.693   2.556
 6267TIP3    H118744   1.894   3.623   2.542
 6267TIP3    H218745   2.042   3.651   2.545
 6268TIP3   OH218746   6.408   3.180   1.848
 6268TIP3    H118747   6.376   3.182   1.938
 6268TIP3    H218748   6.350   3.240   1.801
 6269TIP3   OH218749   3.426   2.432   0.467
 6269TIP3    H118750   3.487   2.420   0.540
 6269TIP3    H218751   3.396   2.344   0.445
 6270TIP3   OH218752   0.644   1.460   2.629
 6270TIP3    H118753   0.570   1.491   2.680
 6270TIP3    H218754   0.721   1.489   2.678
 6271TIP3   OH218755   5.761   1.665   1.807
 6271TIP3    H118756   5.745   1.631   1.895
 6271TIP3    H218757   5.710   1.746   1.803
 6272TIP3   OH218758   0.169   4.048   6.296
 6272TIP3    H118759   0.220   4.126   6.276
 6272TIP3    H218760   0.095   4.051   6.235
 6273TIP3   OH218761   6.788   3.180   4.109
 6273TIP3    H118762   6.786   3.123   4.186
 6273TIP3    H218763   6.698   3.181   4.077
 6274TIP3   OH218764   6.090   5.947   1.379
 6274TIP3    H118765   6.043   5.910   1.304
 6274TIP3    H218766   6.169   5.986   1.340
 6275TIP3   OH218767   0.506   2.432   5.557
 6275TIP3    H118768   0.537   2.347   5.525
 6275TIP3    H218769   0.575   2.494   5.532
 6276TIP3   OH218770   6.803   3.005   2.721
 6276TIP3    H118771   6.722   2.977   2.679
 6276TIP3    H218772   6.861   3.030   2.649
 6277TIP3   OH218773   5.990   5.230   5.411
 6277TIP3    H118774   5.914   5.288   5.409
 6277TIP3    H218775   6.062   5.285   5.443
 6278TIP3   OH218776   6.489   0.871   6.416
 6278TIP3    H118777   6.568   0.926   6.415
 6278TIP3    H218778   6.471   0.854   6.323
 6279TIP3   OH218779   2.092   3.909   1.815
 6279TIP3    H118780   2.050   3.934   1.897
 6279TIP3    H218781   2.029   3.851   1.772
 6280TIP3   OH218782   3.009   5.468   4.693
 6280TIP3    H118783   3.095   5.473   4.735
 6280TIP3    H218784   2.992   5.374   4.683
 6281TIP3   OH218785   5.940   4.499   0.714
 6281TIP3    H118786   5.905   4.508   0.803
 6281TIP3    H218787   5.864   4.473   0.661
 6282TIP3   OH218788   4.683   5.172   0.244
 6282TIP3    H118789   4.597   5.150   0.209
 6282TIP3    H218790   4.692   5.266   0.230
 6283TIP3   OH218791   4.410   1.851   1.156
 6283TIP3    H118792   4.327   1.807   1.174
 6283TIP3    H218793   4.392   1.944   1.174
 6284TIP3   OH218794   5.827   5.287   1.279
 6284TIP3    H118795   5.914   5.327   1.289
 6284TIP3    H218796   5.766   5.360   1.288
 6285TIP3   OH218797   3.355   1.273   2.425
 6285TIP3    H118798   3.322   1.271   2.336
 6285TIP3    H218799   3.332   1.187   2.461
 6286TIP3   OH218800   1.305   2.151   6.778
 6286TIP3    H118801   1.338   2.066   6.751
 6286TIP3    H218802   1.257   2.184   6.702
 6287TIP3   OH218803   8.228   7.202   0.112
 6287TIP3    H118804   8.243   7.288   0.074
 6287TIP3    H218805   8.134   7.186   0.101
 6288TIP3   OH218806   2.121   3.853   4.931
 6288TIP3    H118807   2.107   3.831   5.023
 6288TIP3    H218808   2.106   3.947   4.926
 6289TIP3   OH218809   4.819   0.501   3.159
 6289TIP3    H118810   4.865   0.577   3.124
 6289TIP3    H218811   4.791   0.527   3.246
 6290TIP3   OH218812   7.291   2.744   3.352
 6290TIP3    H118813   7.295   2.761   3.258
 6290TIP3    H218814   7.323   2.654   3.362
 6291TIP3   OH218815   4.544   2.710   4.129
 6291TIP3    H118816   4.559   2.805   4.134
 6291TIP3    H218817   4.544   2.681   4.221
 6292TIP3   OH218818   0.285   5.384   1.450
 6292TIP3    H118819   0.219   5.451   1.465
 6292TIP3    H218820   0.365   5.432   1.429
 6293TIP3   OH218821   3.091   5.746   0.399
 6293TIP3    H118822   3.020   5.699   0.442
 6293TIP3    H218823   3.051   5.828   0.369
 6294TIP3   OH218824   5.388   3.367   4.623
 6294TIP3    H118825   5.385   3.319   4.706
 6294TIP3    H218826   5.455   3.322   4.571
 6295TIP3   OH218827   5.193   0.388   5.246
 6295TIP3    H118828   5.125   0.360   5.184
 6295TIP3    H218829   5.147   0.402   5.328
 6296TIP3   OH218830   6.251   1.604   5.278
 6296TIP3    H118831   6.196   1.612   5.356
 6296TIP3    H218832   6.222   1.523   5.236
 6297TIP3   OH218833   7.390   7.467   3.349
 6297TIP3    H118834   7.433   7.485   3.432
 6297TIP3    H218835   7.446   7.508   3.283
 6298TIP3   OH218836   4.362   1.820   3.547
 6298TIP3    H118837   4.298   1.798   3.479
 6298TIP3    H218838   4.315   1.878   3.606
 6299TIP3   OH218839   5.579   6.469   6.342
 6299TIP3    H118840   5.515   6.403   6.312
 6299TIP3    H218841   5.564   6.475   6.436
 6300TIP3   OH218842   5.808   2.294   0.892
 6300TIP3    H118843   5.852   2.355   0.951
 6300TIP3    H218844   5.768   2.230   0.950
 6301TIP3   OH218845   3.660   6.891   0.308
 6301TIP3    H118846   3.611   6.809   0.302
 6301TIP3    H218847   3.724   6.886   0.237
 6302TIP3   OH218848   7.564   3.334   2.069
 6302TIP3    H118849   7.565   3.310   2.161
 6302TIP3    H218850   7.616   3.415   2.065
 6303TIP3   OH218851   7.150   5.779   4.347
 6303TIP3    H118852   7.127   5.725   4.272
 6303TIP3    H218853   7.082   5.846   4.351
 6304TIP3   OH218854   7.079   2.933   4.345
 6304TIP3    H118855   7.103   2.869   4.412
 6304TIP3    H218856   7.001   2.977   4.381
 6305TIP3   OH218857   0.038   6.380   1.116
 6305TIP3    H118858   0.028   6.308   1.054
 6305TIP3    H218859  -0.020   6.357   1.189
 6306TIP3   OH218860   7.517   1.670   6.491
 6306TIP3    H118861   7.534   1.760   6.463
 6306TIP3    H218862   7.458   1.635   6.425
 6307TIP3   OH218863   1.321   7.671   4.912
 6307TIP3    H118864   1.386   7.688   4.981
 6307TIP3    H218865   1.356   7.595   4.865
 6308TIP3   OH218866   4.841   1.686   4.036
 6308TIP3    H118867   4.923   1.671   4.084
 6308TIP3    H218868   4.798   1.757   4.084
 6309TIP3   OH218869   0.842   5.628   5.034
 6309TIP3    H118870   0.882   5.604   4.951
 6309TIP3    H218871   0.833   5.724   5.030
 6310TIP3   OH218872   5.281   5.279   0.399
 6310TIP3    H118873   5.292   5.352   0.338
 6310TIP3    H218874   5.264   5.203   0.344
 6311TIP3   OH218875   1.669   4.608   0.388
 6311TIP3    H118876   1.745   4.667   0.392
 6311TIP3    H218877   1.678   4.552   0.466
 6312TIP3   OH218878   1.066   1.944   3.704
 6312TIP3    H118879   1.041   1.987   3.622
 6312TIP3    H218880   1.135   1.883   3.679
 6313TIP3   OH218881   1.348   6.706   5.681
 6313TIP3    H118882   1.279   6.720   5.745
 6313TIP3    H218883   1.415   6.657   5.727
 6314TIP3   OH218884   0.579   7.092   3.428
 6314TIP3    H118885   0.501   7.040   3.410
 6314TIP3    H218886   0.618   7.109   3.342
 6315TIP3   OH218887   5.100   2.322   1.590
 6315TIP3    H118888   5.048   2.331   1.670
 6315TIP3    H218889   5.036   2.302   1.522
 6316TIP3   OH218890   4.154   6.882   4.675
 6316TIP3    H118891   4.154   6.796   4.717
 6316TIP3    H218892   4.182   6.942   4.744
 6317TIP3   OH218893   7.221   5.832   6.420
 6317TIP3    H118894   7.278   5.771   6.374
 6317TIP3    H218895   7.189   5.783   6.495
 6318TIP3   OH218896   7.428   3.977   2.457
 6318TIP3    H118897   7.513   3.934   2.452
 6318TIP3    H218898   7.446   4.065   2.490
 6319TIP3   OH218899   1.263   4.123   4.136
 6319TIP3    H118900   1.276   4.030   4.156
 6319TIP3    H218901   1.178   4.126   4.090
 6320TIP3   OH218902   2.980   0.443   0.079
 6320TIP3    H118903   2.990   0.375   0.012
 6320TIP3    H218904   2.975   0.525   0.029
 6321TIP3   OH218905   1.416   7.128   0.183
 6321TIP3    H118906   1.356   7.166   0.119
 6321TIP3    H218907   1.501   7.128   0.140
 6322TIP3   OH218908   6.407   6.079   5.213
 6322TIP3    H118909   6.422   6.055   5.304
 6322TIP3    H218910   6.321   6.120   5.212
 6323TIP3   OH218911   6.415   4.676   1.019
 6323TIP3    H118912   6.497   4.630   1.006
 6323TIP3    H218913   6.368   4.665   0.936
 6324TIP3   OH218914   3.060   5.687   4.032
 6324TIP3    H118915   3.025   5.620   3.973
 6324TIP3    H218916   3.086   5.759   3.975
 6325TIP3   OH218917   3.761   5.677   1.723
 6325TIP3    H118918   3.691   5.626   1.682
 6325TIP3    H218919   3.821   5.611   1.758
 6326TIP3   OH218920   8.121   1.706   1.421
 6326TIP3    H118921   8.202   1.712   1.473
 6326TIP3    H218922   8.134   1.770   1.351
 6327TIP3   OH218923   5.862   6.848   2.570
 6327TIP3    H118924   5.838   6.771   2.622
 6327TIP3    H218925   5.782   6.901   2.568
 6328TIP3   OH218926   1.305   3.581   1.989
 6328TIP3    H118927   1.328   3.584   1.896
 6328TIP3    H218928   1.389   3.577   2.034
 6329TIP3   OH218929   0.855   6.821   5.524
 6329TIP3    H118930   0.892   6.747   5.476
 6329TIP3    H218931   0.763   6.824   5.497
 6330TIP3   OH218932   2.363   0.489   2.870
 6330TIP3    H118933   2.308   0.424   2.825
 6330TIP3    H218934   2.425   0.518   2.803
 6331TIP3   OH218935   6.641   0.759   3.404
 6331TIP3    H118936   6.713   0.817   3.379
 6331TIP3    H218937   6.568   0.818   3.423
 6332TIP3   OH218938   5.665   1.725   0.105
 6332TIP3    H118939   5.740   1.709   0.048
 6332TIP3    H218940   5.701   1.777   0.177
 6333TIP3   OH218941   7.814   3.938   6.148
 6333TIP3    H118942   7.798   4.026   6.182
 6333TIP3    H218943   7.730   3.912   6.109
 6334TIP3   OH218944   1.102   1.619   0.884
 6334TIP3    H118945   1.080   1.654   0.798
 6334TIP3    H218946   1.036   1.552   0.900
 6335TIP3   OH218947   8.182   7.501   4.523
 6335TIP3    H118948   8.224   7.566   4.466
 6335TIP3    H218949   8.163   7.427   4.465
 6336TIP3   OH218950   1.195   1.621   6.706
 6336TIP3    H118951   1.128   1.633   6.774
 6336TIP3    H218952   1.225   1.710   6.687
 6337TIP3   OH218953   1.399   1.646   2.220
 6337TIP3    H118954   1.309   1.665   2.247
 6337TIP3    H218955   1.390   1.583   2.149
 6338TIP3   OH218956   2.583   7.579   4.676
 6338TIP3    H118957   2.546   7.500   4.714
 6338TIP3    H218958   2.624   7.550   4.595
 6339TIP3   OH218959   0.734   4.370   4.891
 6339TIP3    H118960   0.655   4.343   4.937
 6339TIP3    H218961   0.791   4.405   4.960
 6340TIP3   OH218962   5.866   1.660   2.754
 6340TIP3    H118963   5.898   1.732   2.807
 6340TIP3    H218964   5.941   1.636   2.699
 6341TIP3   OH218965   2.026   6.004   0.759
 6341TIP3    H118966   1.993   5.915   0.744
 6341TIP3    H218967   2.043   6.038   0.671
 6342TIP3   OH218968   1.156   6.315   5.015
 6342TIP3    H118969   1.094   6.246   5.037
 6342TIP3    H218970   1.157   6.317   4.919
 6343TIP3   OH218971   1.749   2.050   5.963
 6343TIP3    H118972   1.765   2.121   5.901
 6343TIP3    H218973   1.654   2.035   5.960
 6344TIP3   OH218974   1.044   4.682   0.723
 6344TIP3    H118975   1.033   4.599   0.769
 6344TIP3    H218976   1.131   4.677   0.683
 6345TIP3   OH218977   8.242   0.383   2.883
 6345TIP3    H118978   8.236   0.307   2.825
 6345TIP3    H218979   8.207   0.455   2.832
 6346TIP3   OH218980   3.806   4.186   2.131
 6346TIP3    H118981   3.766   4.258   2.082
 6346TIP3    H218982   3.869   4.147   2.070
 6347TIP3   OH218983   7.945   4.295   3.243
 6347TIP3    H118984   8.037   4.274   3.261
 6347TIP3    H218985   7.939   4.297   3.148
 6348TIP3   OH218986   7.106   7.249   2.120
 6348TIP3    H118987   7.106   7.302   2.199
 6348TIP3    H218988   7.114   7.159   2.152
 6349TIP3   OH218989   7.562   2.330   4.565
 6349TIP3    H118990   7.600   2.348   4.651
 6349TIP3    H218991   7.635   2.338   4.504
 6350TIP3   OH218992   1.305   4.219   1.255
 6350TIP3    H118993   1.396   4.224   1.224
 6350TIP3    H218994   1.260   4.290   1.209
 6351TIP3   OH218995   4.781   1.365   3.195
 6351TIP3    H118996   4.835   1.426   3.247
 6351TIP3    H218997   4.727   1.320   3.260
 6352TIP3   OH218998   2.196   0.035   4.368
 6352TIP3    H118999   2.246   0.099   4.318
 6352TIP3    H219000   2.259  -0.002   4.429
 6353TIP3   OH219001   2.322   6.955   5.302
 6353TIP3    H119002   2.271   6.877   5.281
 6353TIP3    H219003   2.287   6.984   5.386
 6354TIP3   OH219004   4.599   6.903   1.210
 6354TIP3    H119005   4.504   6.907   1.199
 6354TIP3    H219006   4.625   6.994   1.225
 6355TIP3   OH219007   2.927   6.428   4.060
 6355TIP3    H119008   2.880   6.479   3.994
 6355TIP3    H219009   2.912   6.476   4.141
 6356TIP3   OH219010   6.018   0.958   3.990
 6356TIP3    H119011   6.022   0.990   4.079
 6356TIP3    H219012   6.056   0.870   3.994
 6357TIP3   OH219013   5.360   7.207   2.489
 6357TIP3    H119014   5.402   7.172   2.567
 6357TIP3    H219015   5.267   7.186   2.499
 6358TIP3   OH219016   1.355   5.432   1.732
 6358TIP3    H119017   1.352   5.509   1.676
 6358TIP3    H219018   1.270   5.389   1.718
 6359TIP3   OH219019   1.921   1.903   1.445
 6359TIP3    H119020   1.912   1.970   1.377
 6359TIP3    H219021   2.015   1.885   1.448
 6360TIP3   OH219022   8.163   1.241   6.775
 6360TIP3    H119023   8.203   1.169   6.823
 6360TIP3    H219024   8.205   1.320   6.811
 6361TIP3   OH219025   7.476   5.734   0.184
 6361TIP3    H119026   7.439   5.647   0.194
 6361TIP3    H219027   7.405   5.786   0.146
 6362TIP3   OH219028   7.660   4.922   0.292
 6362TIP3    H119029   7.640   4.936   0.200
 6362TIP3    H219030   7.740   4.973   0.307
 6363TIP3   OH219031   3.282   6.925   4.895
 6363TIP3    H119032   3.304   7.018   4.887
 6363TIP3    H219033   3.315   6.886   4.814
 6364TIP3   OH219034   4.772   7.842   4.606
 6364TIP3    H119035   4.733   7.783   4.541
 6364TIP3    H219036   4.710   7.842   4.679
 6365TIP3   OH219037   4.421   3.385   4.343
 6365TIP3    H119038   4.447   3.317   4.405
 6365TIP3    H219039   4.412   3.339   4.259
 6366TIP3   OH219040   2.682   2.007   3.666
 6366TIP3    H119041   2.627   2.071   3.712
 6366TIP3    H219042   2.657   2.016   3.574
 6367TIP3   OH219043   1.466   6.887   3.009
 6367TIP3    H119044   1.435   6.821   2.948
 6367TIP3    H219045   1.483   6.964   2.956
 6368TIP3   OH219046   5.096   7.075   2.827
 6368TIP3    H119047   5.186   7.077   2.795
 6368TIP3    H219048   5.078   6.983   2.844
 6369TIP3   OH219049   1.520   6.963   4.018
 6369TIP3    H119050   1.597   7.010   4.050
 6369TIP3    H219051   1.543   6.938   3.928
 6370TIP3   OH219052   4.358   6.680   4.529
 6370TIP3    H119053   4.434   6.708   4.581
 6370TIP3    H219054   4.302   6.634   4.591
 6371TIP3   OH219055   8.130   2.974   1.440
 6371TIP3    H119056   8.124   3.018   1.525
 6371TIP3    H219057   8.120   2.881   1.460
 6372TIP3   OH219058   4.405   2.818   5.419
 6372TIP3    H119059   4.310   2.825   5.412
 6372TIP3    H219060   4.426   2.852   5.506
 6373TIP3   OH219061   0.355   3.783   5.538
 6373TIP3    H119062   0.347   3.708   5.597
 6373TIP3    H219063   0.267   3.795   5.503
 6374TIP3   OH219064   5.829   7.440   4.753
 6374TIP3    H119065   5.887   7.513   4.733
 6374TIP3    H219066   5.885   7.362   4.743
 6375TIP3   OH219067   6.004   5.256   6.691
 6375TIP3    H119068   6.067   5.255   6.763
 6375TIP3    H219069   6.050   5.215   6.618
 6376TIP3   OH219070   7.314   7.084   3.142
 6376TIP3    H119071   7.327   7.017   3.209
 6376TIP3    H219072   7.284   7.035   3.065
 6377TIP3   OH219073   5.133   6.933   5.252
 6377TIP3    H119074   5.175   7.005   5.204
 6377TIP3    H219075   5.049   6.968   5.281
 6378TIP3   OH219076   0.517   6.941   2.092
 6378TIP3    H119077   0.450   6.936   2.160
 6378TIP3    H219078   0.592   6.981   2.136
 6379TIP3   OH219079   5.564   3.236   6.133
 6379TIP3    H119080   5.599   3.200   6.214
 6379TIP3    H219081   5.511   3.311   6.160
 6380TIP3   OH219082   5.231   3.244   5.530
 6380TIP3    H119083   5.165   3.311   5.514
 6380TIP3    H219084   5.295   3.286   5.587
 6381TIP3   OH219085   2.769   2.735   2.909
 6381TIP3    H119086   2.674   2.747   2.900
 6381TIP3    H219087   2.783   2.725   3.004
 6382TIP3   OH219088   2.494   2.591   1.213
 6382TIP3    H119089   2.524   2.574   1.123
 6382TIP3    H219090   2.481   2.686   1.216
 6383TIP3   OH219091   7.644   1.062   1.534
 6383TIP3    H119092   7.562   1.017   1.514
 6383TIP3    H219093   7.697   0.995   1.578
 6384TIP3   OH219094   0.968   1.320   0.449
 6384TIP3    H119095   0.946   1.248   0.389
 6384TIP3    H219096   1.036   1.284   0.506
 6385TIP3   OH219097   2.079   4.235   1.291
 6385TIP3    H119098   2.035   4.203   1.370
 6385TIP3    H219099   2.156   4.178   1.282
 6386TIP3   OH219100   0.789   3.346   2.642
 6386TIP3    H119101   0.725   3.319   2.709
 6386TIP3    H219102   0.747   3.322   2.559
 6387TIP3   OH219103   2.836   1.285   1.821
 6387TIP3    H119104   2.889   1.237   1.884
 6387TIP3    H219105   2.745   1.265   1.846
 6388TIP3   OH219106   6.904   0.916   4.052
 6388TIP3    H119107   6.950   0.850   4.105
 6388TIP3    H219108   6.834   0.868   4.009
 6389TIP3   OH219109   5.217   1.214   1.183
 6389TIP3    H119110   5.192   1.280   1.118
 6389TIP3    H219111   5.275   1.155   1.136
 6390TIP3   OH219112   1.658   2.055   2.602
 6390TIP3    H119113   1.583   2.021   2.553
 6390TIP3    H219114   1.620   2.091   2.682
 6391TIP3   OH219115   5.536   7.491   5.399
 6391TIP3    H119116   5.512   7.398   5.404
 6391TIP3    H219117   5.603   7.503   5.465
 6392TIP3   OH219118   1.549   5.087   4.581
 6392TIP3    H119119   1.462   5.125   4.565
 6392TIP3    H219120   1.534   4.993   4.582
 6393TIP3   OH219121   6.409   7.605   6.438
 6393TIP3    H119122   6.323   7.647   6.441
 6393TIP3    H219123   6.463   7.659   6.496
 6394TIP3   OH219124   3.338   4.756   6.195
 6394TIP3    H119125   3.284   4.705   6.255
 6394TIP3    H219126   3.355   4.838   6.241
 6395TIP3   OH219127   8.229   4.784   1.664
 6395TIP3    H119128   8.261   4.754   1.579
 6395TIP3    H219129   8.185   4.707   1.701
 6396TIP3   OH219130   5.615   5.023   6.616
 6396TIP3    H119131   5.535   5.066   6.586
 6396TIP3    H219132   5.590   4.978   6.697
 6397TIP3   OH219133   0.884   6.764   4.682
 6397TIP3    H119134   0.888   6.776   4.777
 6397TIP3    H219135   0.940   6.834   4.647
 6398TIP3   OH219136   5.457   2.593   5.831
 6398TIP3    H119137   5.521   2.660   5.854
 6398TIP3    H219138   5.437   2.610   5.739
 6399TIP3   OH219139   0.199   2.285   0.969
 6399TIP3    H119140   0.107   2.263   0.961
 6399TIP3    H219141   0.199   2.373   1.007
 6400TIP3   OH219142   1.546   4.849   1.309
 6400TIP3    H119143   1.487   4.813   1.376
 6400TIP3    H219144   1.493   4.913   1.262
 6401TIP3   OH219145   6.952   0.599   4.076
 6401TIP3    H119146   6.957   0.511   4.039
 6401TIP3    H219147   7.022   0.648   4.032
 6402TIP3   OH219148   2.697   4.294   0.878
 6402TIP3    H119149   2.749   4.285   0.959
 6402TIP3    H219150   2.647   4.213   0.873
 6403TIP3   OH219151   0.278   5.321   6.177
 6403TIP3    H119152   0.251   5.401   6.221
 6403TIP3    H219153   0.196   5.276   6.156
 6404TIP3   OH219154   3.016   2.867   2.778
 6404TIP3    H119155   2.957   2.825   2.841
 6404TIP3    H219156   3.007   2.814   2.699
 6405TIP3   OH219157   1.263   4.076   2.654
 6405TIP3    H119158   1.333   4.036   2.601
 6405TIP3    H219159   1.201   4.110   2.589
 6406TIP3   OH219160   4.351   0.909   1.191
 6406TIP3    H119161   4.286   0.958   1.142
 6406TIP3    H219162   4.324   0.817   1.182
 6407TIP3   OH219163   1.062   1.120   4.506
 6407TIP3    H119164   1.118   1.081   4.440
 6407TIP3    H219165   1.121   1.174   4.559
 6408TIP3   OH219166   2.834   3.592   0.151
 6408TIP3    H119167   2.782   3.648   0.093
 6408TIP3    H219168   2.812   3.503   0.125
 6409TIP3   OH219169   1.776   4.668   0.029
 6409TIP3    H119170   1.805   4.580   0.051
 6409TIP3    H219171   1.680   4.663   0.028
 6410TIP3   OH219172   1.219   0.978   4.816
 6410TIP3    H119173   1.239   0.905   4.758
 6410TIP3    H219174   1.179   1.044   4.760
 6411TIP3   OH219175   5.220   0.367   1.195
 6411TIP3    H119176   5.191   0.276   1.190
 6411TIP3    H219177   5.171   0.412   1.126
 6412TIP3   OH219178   7.867   0.668   2.474
 6412TIP3    H119179   7.890   0.677   2.566
 6412TIP3    H219180   7.789   0.722   2.462
 6413TIP3   OH219181   1.462   3.201   6.302
 6413TIP3    H119182   1.374   3.193   6.338
 6413TIP3    H219183   1.470   3.293   6.277
 6414TIP3   OH219184   1.742   6.399   6.393
 6414TIP3    H119185   1.666   6.347   6.367
 6414TIP3    H219186   1.816   6.339   6.383
 6415TIP3   OH219187   3.846   1.017   0.965
 6415TIP3    H119188   3.818   1.073   0.892
 6415TIP3    H219189   3.796   0.936   0.953
 6416TIP3   OH219190   8.276   4.391   1.010
 6416TIP3    H119191   8.221   4.467   1.029
 6416TIP3    H219192   8.338   4.423   0.944
 6417TIP3   OH219193   3.076   4.870   2.185
 6417TIP3    H119194   3.048   4.959   2.207
 6417TIP3    H219195   3.117   4.838   2.266
 6418TIP3   OH219196   4.900   4.171   6.180
 6418TIP3    H119197   4.873   4.125   6.259
 6418TIP3    H219198   4.951   4.246   6.211
 6419TIP3   OH219199   1.134   6.056   5.567
 6419TIP3    H119200   1.080   6.131   5.542
 6419TIP3    H219201   1.072   5.985   5.582
 6420TIP3   OH219202   1.505   5.134   3.449
 6420TIP3    H119203   1.582   5.106   3.498
 6420TIP3    H219204   1.431   5.091   3.493
 6421TIP3   OH219205   2.453   3.846   3.987
 6421TIP3    H119206   2.424   3.938   3.992
 6421TIP3    H219207   2.457   3.828   3.893
 6422TIP3   OH219208   4.777   7.257   4.575
 6422TIP3    H119209   4.706   7.197   4.557
 6422TIP3    H219210   4.852   7.201   4.595
 6423TIP3   OH219211   6.743   3.926   1.383
 6423TIP3    H119212   6.791   4.006   1.402
 6423TIP3    H219213   6.675   3.922   1.450
 6424TIP3   OH219214   4.318   2.270   5.801
 6424TIP3    H119215   4.367   2.348   5.827
 6424TIP3    H219216   4.381   2.218   5.750
 6425TIP3   OH219217   3.587   3.736   0.034
 6425TIP3    H119218   3.609   3.648   0.064
 6425TIP3    H219219   3.595   3.791   0.112
 6426TIP3   OH219220   5.187   3.427   2.442
 6426TIP3    H119221   5.256   3.371   2.407
 6426TIP3    H219222   5.225   3.514   2.445
 6427TIP3   OH219223   8.038   6.634   6.404
 6427TIP3    H119224   8.087   6.575   6.461
 6427TIP3    H219225   8.059   6.721   6.436
 6428TIP3   OH219226   4.010   6.150   1.545
 6428TIP3    H119227   3.954   6.228   1.538
 6428TIP3    H219228   3.963   6.093   1.606
 6429TIP3   OH219229   0.089   3.673   1.209
 6429TIP3    H119230   0.008   3.624   1.222
 6429TIP3    H219231   0.061   3.757   1.171
 6430TIP3   OH219232   1.216   2.037   5.803
 6430TIP3    H119233   1.200   2.118   5.755
 6430TIP3    H219234   1.133   1.990   5.798
 6431TIP3   OH219235   5.464   1.143   4.088
 6431TIP3    H119236   5.466   1.051   4.113
 6431TIP3    H219237   5.430   1.188   4.164
 6432TIP3   OH219238   4.642   0.838   5.791
 6432TIP3    H119239   4.699   0.788   5.734
 6432TIP3    H219240   4.673   0.819   5.880
 6433TIP3   OH219241   5.826   2.071   4.549
 6433TIP3    H119242   5.808   1.978   4.557
 6433TIP3    H219243   5.741   2.114   4.559
 6434TIP3   OH219244   7.232   5.250   6.230
 6434TIP3    H119245   7.227   5.328   6.175
 6434TIP3    H219246   7.236   5.177   6.168
 6435TIP3   OH219247   7.763   4.574   1.725
 6435TIP3    H119248   7.793   4.607   1.641
 6435TIP3    H219249   7.669   4.561   1.714
 6436TIP3   OH219250   1.887   0.078   3.666
 6436TIP3    H119251   1.972   0.117   3.686
 6436TIP3    H219252   1.823   0.143   3.696
 6437TIP3   OH219253   2.279   5.508   6.172
 6437TIP3    H119254   2.331   5.446   6.223
 6437TIP3    H219255   2.253   5.459   6.094
 6438TIP3   OH219256   2.731   0.071   5.648
 6438TIP3    H119257   2.655   0.058   5.591
 6438TIP3    H219258   2.740   0.166   5.653
 6439TIP3   OH219259   7.565   7.527   5.863
 6439TIP3    H119260   7.613   7.447   5.844
 6439TIP3    H219261   7.593   7.551   5.951
 6440TIP3   OH219262   6.151   7.366   0.869
 6440TIP3    H119263   6.193   7.452   0.860
 6440TIP3    H219264   6.105   7.371   0.952
 6441TIP3   OH219265   3.233   0.496   2.997
 6441TIP3    H119266   3.151   0.505   3.046
 6441TIP3    H219267   3.278   0.579   3.011
 6442TIP3   OH219268   5.880   6.481   2.521
 6442TIP3    H119269   5.969   6.518   2.521
 6442TIP3    H219270   5.856   6.480   2.428
 6443TIP3   OH219271   3.623   2.120   4.439
 6443TIP3    H119272   3.545   2.070   4.414
 6443TIP3    H219273   3.693   2.084   4.384
 6444TIP3   OH219274   7.148   2.838   3.852
 6444TIP3    H119275   7.137   2.847   3.758
 6444TIP3    H219276   7.077   2.891   3.890
 6445TIP3   OH219277   0.157   5.102   4.061
 6445TIP3    H119278   0.143   5.190   4.097
 6445TIP3    H219279   0.070   5.075   4.032
 6446TIP3   OH219280   4.212   2.077   3.483
 6446TIP3    H119281   4.127   2.105   3.515
 6446TIP3    H219282   4.192   2.004   3.424
 6447TIP3   OH219283   0.825   6.867   5.803
 6447TIP3    H119284   0.823   6.820   5.720
 6447TIP3    H219285   0.749   6.925   5.800
 6448TIP3   OH219286   3.313   4.053   0.166
 6448TIP3    H119287   3.277   4.110   0.234
 6448TIP3    H219288   3.237   4.018   0.120
 6449TIP3   OH219289   2.473   0.162   1.753
 6449TIP3    H119290   2.426   0.118   1.825
 6449TIP3    H219291   2.550   0.200   1.794
 6450TIP3   OH219292   6.037   6.843   5.979
 6450TIP3    H119293   6.085   6.884   6.051
 6450TIP3    H219294   6.031   6.750   6.004
 6451TIP3   OH219295   2.778   4.630   6.401
 6451TIP3    H119296   2.690   4.630   6.363
 6451TIP3    H219297   2.828   4.571   6.345
 6452TIP3   OH219298   6.084   0.987   0.253
 6452TIP3    H119299   6.152   1.053   0.266
 6452TIP3    H219300   6.035   1.018   0.177
 6453TIP3   OH219301   5.850   6.971   0.919
 6453TIP3    H119302   5.811   6.887   0.945
 6453TIP3    H219303   5.945   6.954   0.918
 6454TIP3   OH219304   0.970   6.859   3.712
 6454TIP3    H119305   0.920   6.908   3.646
 6454TIP3    H219306   0.925   6.876   3.794
 6455TIP3   OH219307   2.902   7.200   3.841
 6455TIP3    H119308   2.964   7.130   3.856
 6455TIP3    H219309   2.858   7.177   3.759
 6456TIP3   OH219310   4.585   0.703   2.059
 6456TIP3    H119311   4.563   0.631   2.118
 6456TIP3    H219312   4.503   0.723   2.013
 6457TIP3   OH219313   3.792   7.195   1.133
 6457TIP3    H119314   3.846   7.269   1.104
 6457TIP3    H219315   3.831   7.168   1.216
 6458TIP3   OH219316   1.541   1.770   5.200
 6458TIP3    H119317   1.498   1.806   5.277
 6458TIP3    H219318   1.626   1.741   5.231
 6459TIP3   OH219319   2.544   6.588   4.565
 6459TIP3    H119320   2.495   6.584   4.647
 6459TIP3    H219321   2.620   6.643   4.586
 6460TIP3   OH219322   6.069   6.675   2.444
 6460TIP3    H119323   6.082   6.718   2.359
 6460TIP3    H219324   6.000   6.726   2.486
 6461TIP3   OH219325   1.560   5.126   1.921
 6461TIP3    H119326   1.639   5.107   1.870
 6461TIP3    H219327   1.584   5.103   2.010
 6462TIP3   OH219328   8.150   3.092   6.026
 6462TIP3    H119329   8.169   3.089   6.120
 6462TIP3    H219330   8.085   3.161   6.017
 6463TIP3   OH219331   6.114   4.403   6.659
 6463TIP3    H119332   6.134   4.467   6.591
 6463TIP3    H219333   6.036   4.358   6.628
 6464TIP3   OH219334   5.977   5.508   3.254
 6464TIP3    H119335   5.883   5.519   3.236
 6464TIP3    H219336   5.995   5.417   3.230
 6465TIP3   OH219337   7.649   0.121   0.344
 6465TIP3    H119338   7.592   0.047   0.364
 6465TIP3    H219339   7.630   0.185   0.411
 6466TIP3   OH219340   3.438   1.255   1.659
 6466TIP3    H119341   3.450   1.170   1.617
 6466TIP3    H219342   3.344   1.272   1.654
 6467TIP3   OH219343   4.390   7.113   4.198
 6467TIP3    H119344   4.381   7.178   4.128
 6467TIP3    H219345   4.313   7.126   4.253
 6468TIP3   OH219346   4.564   1.910   0.511
 6468TIP3    H119347   4.483   1.899   0.562
 6468TIP3    H219348   4.534   1.948   0.429
 6469TIP3   OH219349   4.033   5.416   3.028
 6469TIP3    H119350   4.034   5.399   3.122
 6469TIP3    H219351   4.020   5.330   2.988
 6470TIP3   OH219352   6.726   0.290   3.451
 6470TIP3    H119353   6.719   0.293   3.355
 6470TIP3    H219354   6.745   0.380   3.477
 6471TIP3   OH219355   1.117   1.868   0.418
 6471TIP3    H119356   1.083   1.816   0.345
 6471TIP3    H219357   1.211   1.851   0.419
 6472TIP3   OH219358   4.076   6.338   0.125
 6472TIP3    H119359   3.997   6.388   0.149
 6472TIP3    H219360   4.112   6.386   0.051
 6473TIP3   OH219361   1.725   3.946   5.194
 6473TIP3    H119362   1.676   3.942   5.112
 6473TIP3    H219363   1.707   4.033   5.228
 6474TIP3   OH219364   2.209   3.090   2.499
 6474TIP3    H119365   2.237   3.010   2.454
 6474TIP3    H219366   2.209   3.157   2.431
 6475TIP3   OH219367   2.309   3.705   0.618
 6475TIP3    H119368   2.362   3.630   0.644
 6475TIP3    H219369   2.221   3.685   0.650
 6476TIP3   OH219370   7.200  -0.030   0.556
 6476TIP3    H119371   7.290  -0.033   0.524
 6476TIP3    H219372   7.158   0.036   0.501
 6477TIP3   OH219373   5.864   6.581   3.104
 6477TIP3    H119374   5.797   6.641   3.071
 6477TIP3    H219375   5.947   6.628   3.092
 6478TIP3   OH219376   7.202   0.908   1.193
 6478TIP3    H119377   7.188   0.846   1.120
 6478TIP3    H219378   7.180   0.993   1.156
 6479TIP3   OH219379   3.056   2.331   4.395
 6479TIP3    H119380   3.114   2.388   4.344
 6479TIP3    H219381   3.110   2.257   4.420
 6480TIP3   OH219382   1.691   1.390   5.164
 6480TIP3    H119383   1.763   1.435   5.120
 6480TIP3    H219384   1.726   1.365   5.250
 6481TIP3   OH219385   7.946   6.824   5.488
 6481TIP3    H119386   7.936   6.902   5.543
 6481TIP3    H219387   7.858   6.808   5.454
 6482TIP3   OH219388   0.917   1.409   5.992
 6482TIP3    H119389   0.866   1.488   6.006
 6482TIP3    H219390   0.993   1.438   5.941
 6483TIP3   OH219391   2.358   4.117   4.995
 6483TIP3    H119392   2.379   4.204   5.029
 6483TIP3    H219393   2.313   4.133   4.912
 6484TIP3   OH219394   8.293   1.455   2.171
 6484TIP3    H119395   8.387   1.440   2.158
 6484TIP3    H219396   8.269   1.399   2.244
 6485TIP3   OH219397   0.092   5.890   1.816
 6485TIP3    H119398   0.026   5.847   1.869
 6485TIP3    H219399   0.069   5.868   1.726
 6486TIP3   OH219400   2.523   2.018   5.397
 6486TIP3    H119401   2.452   2.006   5.459
 6486TIP3    H219402   2.509   1.951   5.330
 6487TIP3   OH219403   3.975   4.573   5.960
 6487TIP3    H119404   4.020   4.654   5.935
 6487TIP3    H219405   3.891   4.602   5.996
 6488TIP3   OH219406   8.076   7.892   5.452
 6488TIP3    H119407   8.004   7.898   5.514
 6488TIP3    H219408   8.070   7.803   5.417
 6489TIP3   OH219409   4.026   2.795   0.807
 6489TIP3    H119410   4.011   2.819   0.898
 6489TIP3    H219411   4.121   2.795   0.798
 6490TIP3   OH219412   1.508   6.318   2.111
 6490TIP3    H119413   1.530   6.240   2.059
 6490TIP3    H219414   1.523   6.290   2.202
 6491TIP3   OH219415   3.473   3.477   5.924
 6491TIP3    H119416   3.451   3.414   5.855
 6491TIP3    H219417   3.388   3.510   5.953
 6492TIP3   OH219418   3.400   3.306   2.030
 6492TIP3    H119419   3.401   3.215   2.000
 6492TIP3    H219420   3.336   3.349   1.975
 6493TIP3   OH219421   4.464   6.166   0.208
 6493TIP3    H119422   4.468   6.155   0.303
 6493TIP3    H219423   4.449   6.077   0.175
 6494TIP3   OH219424   4.552   6.791   1.672
 6494TIP3    H119425   4.641   6.785   1.635
 6494TIP3    H219426   4.504   6.720   1.630
 6495TIP3   OH219427   3.523   2.867   5.326
 6495TIP3    H119428   3.482   2.947   5.293
 6495TIP3    H219429   3.509   2.869   5.420
 6496TIP3   OH219430   3.044   6.843   2.005
 6496TIP3    H119431   3.017   6.932   2.027
 6496TIP3    H219432   3.123   6.829   2.057
 6497TIP3   OH219433   6.760   0.669   6.062
 6497TIP3    H119434   6.720   0.588   6.030
 6497TIP3    H219435   6.727   0.736   6.002
 6498TIP3   OH219436   1.229   3.809   6.729
 6498TIP3    H119437   1.319   3.807   6.697
 6498TIP3    H219438   1.238   3.825   6.823
 6499TIP3   OH219439   4.375   7.298   3.984
 6499TIP3    H119440   4.405   7.298   3.894
 6499TIP3    H219441   4.305   7.363   3.987
 6500TIP3   OH219442   7.630   6.153   5.695
 6500TIP3    H119443   7.583   6.209   5.756
 6500TIP3    H219444   7.618   6.196   5.610
 6501TIP3   OH219445   0.218   7.806   3.707
 6501TIP3    H119446   0.260   7.721   3.699
 6501TIP3    H219447   0.277   7.866   3.662
 6502TIP3   OH219448   2.036   2.783   0.092
 6502TIP3    H119449   1.979   2.852   0.057
 6502TIP3    H219450   2.121   2.800   0.053
 6503TIP3   OH219451   5.678   3.094   4.156
 6503TIP3    H119452   5.646   3.011   4.191
 6503TIP3    H219453   5.607   3.124   4.099
 6504TIP3   OH219454   4.445   5.998   3.179
 6504TIP3    H119455   4.524   6.049   3.162
 6504TIP3    H219456   4.465   5.910   3.147
 6505TIP3   OH219457   5.529   0.864   0.158
 6505TIP3    H119458   5.450   0.845   0.209
 6505TIP3    H219459   5.496   0.897   0.074
 6506TIP3   OH219460   4.545   4.771   6.288
 6506TIP3    H119461   4.487   4.775   6.363
 6506TIP3    H219462   4.614   4.835   6.307
 6507TIP3   OH219463   4.275   6.151   6.089
 6507TIP3    H119464   4.252   6.146   6.182
 6507TIP3    H219465   4.348   6.213   6.085
 6508TIP3   OH219466   6.023   5.406   4.254
 6508TIP3    H119467   5.928   5.410   4.243
 6508TIP3    H219468   6.041   5.470   4.323
 6509TIP3   OH219469   2.100   4.527   5.377
 6509TIP3    H119470   2.113   4.435   5.399
 6509TIP3    H219471   2.130   4.575   5.454
 6510TIP3   OH219472   7.705   6.230   5.007
 6510TIP3    H119473   7.670   6.307   5.052
 6510TIP3    H219474   7.660   6.156   5.049
 6511TIP3   OH219475   4.148   7.185   6.439
 6511TIP3    H119476   4.109   7.103   6.468
 6511TIP3    H219477   4.081   7.227   6.385
 6512TIP3   OH219478   2.933   7.026   2.830
 6512TIP3    H119479   2.940   7.030   2.925
 6512TIP3    H219480   3.019   7.053   2.798
 6513TIP3   OH219481   5.448   6.985   1.564
 6513TIP3    H119482   5.453   7.077   1.538
 6513TIP3    H219483   5.354   6.968   1.574
 6514TIP3   OH219484   5.688   0.228   6.408
 6514TIP3    H119485   5.732   0.256   6.489
 6514TIP3    H219486   5.603   0.271   6.411
 6515TIP3   OH219487   0.972   0.946   5.147
 6515TIP3    H119488   0.890   0.993   5.132
 6515TIP3    H219489   1.040   1.004   5.114
 6516TIP3   OH219490   2.077   7.099   1.921
 6516TIP3    H119491   2.080   7.014   1.877
 6516TIP3    H219492   2.157   7.143   1.895
 6517TIP3   OH219493   5.675   6.377   0.185
 6517TIP3    H119494   5.768   6.355   0.185
 6517TIP3    H219495   5.663   6.429   0.264
 6518TIP3   OH219496   3.256   1.511   5.267
 6518TIP3    H119497   3.241   1.606   5.272
 6518TIP3    H219498   3.351   1.502   5.255
 6519TIP3   OH219499   1.253   4.688   2.128
 6519TIP3    H119500   1.255   4.638   2.210
 6519TIP3    H219501   1.267   4.778   2.155
 6520TIP3   OH219502   2.701   6.551   3.860
 6520TIP3    H119503   2.618   6.598   3.856
 6520TIP3    H219504   2.723   6.532   3.768
 6521TIP3   OH219505   7.194   3.440   3.397
 6521TIP3    H119506   7.227   3.472   3.481
 6521TIP3    H219507   7.192   3.517   3.341
 6522TIP3   OH219508   2.858   4.545   2.334
 6522TIP3    H119509   2.787   4.487   2.305
 6522TIP3    H219510   2.812   4.622   2.370
 6523TIP3   OH219511   7.253   3.199   6.561
 6523TIP3    H119512   7.160   3.222   6.555
 6523TIP3    H219513   7.298   3.270   6.514
 6524TIP3   OH219514   7.617   6.891   4.339
 6524TIP3    H119515   7.631   6.973   4.292
 6524TIP3    H219516   7.551   6.844   4.288
 6525TIP3   OH219517   0.356   0.599   1.169
 6525TIP3    H119518   0.327   0.601   1.078
 6525TIP3    H219519   0.275   0.600   1.220
 6526TIP3   OH219520   4.052   0.391   2.262
 6526TIP3    H119521   4.008   0.307   2.277
 6526TIP3    H219522   4.095   0.410   2.346
 6527TIP3   OH219523   3.075   2.376   4.960
 6527TIP3    H119524   3.157   2.329   4.970
 6527TIP3    H219525   3.050   2.362   4.868
 6528TIP3   OH219526   2.708   3.868   5.766
 6528TIP3    H119527   2.675   3.783   5.795
 6528TIP3    H219528   2.675   3.877   5.677
 6529TIP3   OH219529   5.000   4.581   2.907
 6529TIP3    H119530   4.961   4.497   2.884
 6529TIP3    H219531   5.093   4.563   2.919
 6530TIP3   OH219532   8.197   4.453   2.099
 6530TIP3    H119533   8.111   4.414   2.081
 6530TIP3    H219534   8.260   4.393   2.060
 6531TIP3   OH219535   6.707   6.477   0.191
 6531TIP3    H119536   6.785   6.502   0.240
 6531TIP3    H219537   6.652   6.555   0.192
 6532TIP3   OH219538   6.640   3.525   6.062
 6532TIP3    H119539   6.633   3.562   5.974
 6532TIP3    H219540   6.560   3.473   6.073
 6533TIP3   OH219541   7.960   7.079   5.659
 6533TIP3    H119542   7.867   7.098   5.643
 6533TIP3    H219543   7.963   7.046   5.749
 6534TIP3   OH219544   2.736   4.819   2.402
 6534TIP3    H119545   2.682   4.845   2.477
 6534TIP3    H219546   2.682   4.840   2.325
 6535TIP3   OH219547   1.988   2.687   3.361
 6535TIP3    H119548   2.033   2.608   3.391
 6535TIP3    H219549   1.993   2.682   3.266
 6536TIP3   OH219550   1.398   1.677   4.930
 6536TIP3    H119551   1.402   1.759   4.979
 6536TIP3    H219552   1.471   1.683   4.868
 6537TIP3   OH219553   2.586   2.736   3.228
 6537TIP3    H119554   2.679   2.730   3.248
 6537TIP3    H219555   2.570   2.830   3.219
 6538TIP3   OH219556   6.787   0.351   1.183
 6538TIP3    H119557   6.876   0.363   1.150
 6538TIP3    H219558   6.737   0.321   1.107
 6539TIP3   OH219559   4.378   7.473   6.640
 6539TIP3    H119560   4.389   7.385   6.604
 6539TIP3    H219561   4.300   7.507   6.596
 6540TIP3   OH219562   6.718   0.091   5.119
 6540TIP3    H119563   6.623   0.078   5.124
 6540TIP3    H219564   6.746   0.033   5.048
 6541TIP3   OH219565   0.585   0.186   2.797
 6541TIP3    H119566   0.654   0.235   2.840
 6541TIP3    H219567   0.507   0.241   2.808
 6542TIP3   OH219568   7.750   0.074   5.571
 6542TIP3    H119569   7.781   0.090   5.482
 6542TIP3    H219570   7.801  -0.001   5.601
 6543TIP3   OH219571   4.016   7.507   4.131
 6543TIP3    H119572   3.971   7.430   4.165
 6543TIP3    H219573   4.080   7.530   4.198
 6544TIP3   OH219574  -0.008   0.356   0.771
 6544TIP3    H119575   0.061   0.418   0.794
 6544TIP3    H219576   0.034   0.270   0.774
 6545TIP3   OH219577   3.854   1.841   6.521
 6545TIP3    H119578   3.823   1.807   6.604
 6545TIP3    H219579   3.929   1.897   6.543
 6546TIP3   OH219580   3.841   6.166   6.090
 6546TIP3    H119581   3.759   6.118   6.103
 6546TIP3    H219582   3.846   6.226   6.164
 6547TIP3   OH219583   0.130   0.307   0.418
 6547TIP3    H119584   0.159   0.381   0.471
 6547TIP3    H219585   0.193   0.301   0.346
 6548TIP3   OH219586   6.863   3.490   1.575
 6548TIP3    H119587   6.806   3.459   1.505
 6548TIP3    H219588   6.887   3.579   1.549
 6549TIP3   OH219589   6.856   4.613   0.195
 6549TIP3    H119590   6.792   4.542   0.187
 6549TIP3    H219591   6.839   4.650   0.282
 6550TIP3   OH219592   2.090   0.961   1.310
 6550TIP3    H119593   2.065   1.053   1.318
 6550TIP3    H219594   2.172   0.954   1.359
 6551TIP3   OH219595   5.672   6.516   3.305
 6551TIP3    H119596   5.759   6.555   3.303
 6551TIP3    H219597   5.626   6.555   3.231
 6552TIP3   OH219598   4.119   5.443   6.097
 6552TIP3    H119599   4.141   5.351   6.114
 6552TIP3    H219600   4.027   5.449   6.123
 6553TIP3   OH219601   3.958   2.626   2.959
 6553TIP3    H119602   3.909   2.549   2.929
 6553TIP3    H219603   4.009   2.595   3.034
 6554TIP3   OH219604   1.527   1.427   6.259
 6554TIP3    H119605   1.440   1.440   6.222
 6554TIP3    H219606   1.513   1.368   6.333
 6555TIP3   OH219607   6.839   2.137   5.410
 6555TIP3    H119608   6.914   2.191   5.436
 6555TIP3    H219609   6.772   2.200   5.384
 6556TIP3   OH219610   3.188   5.797   0.935
 6556TIP3    H119611   3.155   5.778   1.023
 6556TIP3    H219612   3.265   5.741   0.926
 6557TIP3   OH219613   4.935   6.985   0.890
 6557TIP3    H119614   5.011   7.024   0.846
 6557TIP3    H219615   4.872   7.057   0.896
 6558TIP3   OH219616   5.623   5.385   6.590
 6558TIP3    H119617   5.707   5.426   6.612
 6558TIP3    H219618   5.602   5.332   6.667
 6559TIP3   OH219619   4.403   0.831   5.340
 6559TIP3    H119620   4.363   0.775   5.407
 6559TIP3    H219621   4.463   0.888   5.388
 6560TIP3   OH219622   7.172   6.757   1.373
 6560TIP3    H119623   7.153   6.743   1.280
 6560TIP3    H219624   7.268   6.754   1.378
 6561TIP3   OH219625   3.569   7.000   3.683
 6561TIP3    H119626   3.589   6.965   3.596
 6561TIP3    H219627   3.648   6.982   3.734
 6562TIP3   OH219628   3.873   4.410   6.369
 6562TIP3    H119629   3.936   4.407   6.297
 6562TIP3    H219630   3.878   4.323   6.409
 6563TIP3   OH219631   5.519   6.013   4.488
 6563TIP3    H119632   5.464   6.033   4.412
 6563TIP3    H219633   5.512   5.918   4.499
 6564TIP3   OH219634   2.914   2.829   3.890
 6564TIP3    H119635   2.935   2.739   3.915
 6564TIP3    H219636   2.927   2.831   3.795
 6565TIP3   OH219637   1.543   2.110   5.700
 6565TIP3    H119638   1.543   2.110   5.604
 6565TIP3    H219639   1.542   2.203   5.724
 6566TIP3   OH219640   6.111   5.201   4.726
 6566TIP3    H119641   6.106   5.246   4.810
 6566TIP3    H219642   6.034   5.232   4.678
 6567TIP3   OH219643   8.059   4.816   2.230
 6567TIP3    H119644   8.103   4.835   2.313
 6567TIP3    H219645   8.003   4.740   2.250
 6568TIP3   OH219646   2.468   7.180   3.727
 6568TIP3    H119647   2.502   7.195   3.639
 6568TIP3    H219648   2.476   7.264   3.771
 6569TIP3   OH219649   2.082   5.732   2.457
 6569TIP3    H119650   2.057   5.646   2.423
 6569TIP3    H219651   2.130   5.712   2.538
 6570TIP3   OH219652   6.374   6.700   2.967
 6570TIP3    H119653   6.452   6.737   3.009
 6570TIP3    H219654   6.388   6.605   2.970
 6571TIP3   OH219655   0.396   0.331   6.566
 6571TIP3    H119656   0.413   0.400   6.502
 6571TIP3    H219657   0.335   0.370   6.629
 6572TIP3   OH219658   7.740   6.634   5.457
 6572TIP3    H119659   7.655   6.665   5.488
 6572TIP3    H219660   7.753   6.550   5.501
 6573TIP3   OH219661   3.178   7.000   1.728
 6573TIP3    H119662   3.116   6.935   1.762
 6573TIP3    H219663   3.233   7.022   1.803
 6574TIP3   OH219664   1.627   5.796   6.745
 6574TIP3    H119665   1.554   5.858   6.738
 6574TIP3    H219666   1.703   5.846   6.716
 6575TIP3   OH219667   1.671   1.729   1.854
 6575TIP3    H119668   1.597   1.691   1.804
 6575TIP3    H219669   1.648   1.821   1.863
 6576TIP3   OH219670   2.137   4.423   5.096
 6576TIP3    H119671   2.054   4.380   5.074
 6576TIP3    H219672   2.136   4.429   5.191
 6577TIP3   OH219673   6.330   5.985   3.373
 6577TIP3    H119674   6.414   5.974   3.327
 6577TIP3    H219675   6.342   6.065   3.424
 6578TIP3   OH219676   3.983   4.126   5.876
 6578TIP3    H119677   3.909   4.134   5.815
 6578TIP3    H219678   4.059   4.152   5.824
 6579TIP3   OH219679   3.882   4.630   2.250
 6579TIP3    H119680   3.805   4.681   2.225
 6579TIP3    H219681   3.878   4.625   2.345
 6580TIP3   OH219682   4.966   5.824   3.530
 6580TIP3    H119683   4.895   5.760   3.534
 6580TIP3    H219684   5.035   5.786   3.584
 6581TIP3   OH219685   6.216   5.274   6.490
 6581TIP3    H119686   6.156   5.307   6.423
 6581TIP3    H219687   6.252   5.194   6.452
 6582TIP3   OH219688   3.258   3.870   1.124
 6582TIP3    H119689   3.230   3.956   1.155
 6582TIP3    H219690   3.250   3.875   1.029
 6583TIP3   OH219691   6.525   0.264   2.004
 6583TIP3    H119692   6.469   0.214   1.944
 6583TIP3    H219693   6.594   0.202   2.029
 6584TIP3   OH219694   0.870   2.060   5.796
 6584TIP3    H119695   0.903   2.128   5.855
 6584TIP3    H219696   0.871   2.100   5.709
 6585TIP3   OH219697   0.884   1.988   4.934
 6585TIP3    H119698   0.808   1.932   4.919
 6585TIP3    H219699   0.954   1.949   4.881
 6586TIP3   OH219700   5.299   4.532   1.946
 6586TIP3    H119701   5.358   4.490   1.884
 6586TIP3    H219702   5.350   4.604   1.984
 6587TIP3   OH219703   5.272   5.457   3.002
 6587TIP3    H119704   5.337   5.390   3.023
 6587TIP3    H219705   5.265   5.455   2.907
 6588TIP3   OH219706   4.852   5.916   5.965
 6588TIP3    H119707   4.889   6.001   5.944
 6588TIP3    H219708   4.804   5.890   5.886
 6589TIP3   OH219709   4.949   4.943   0.493
 6589TIP3    H119710   4.898   4.922   0.571
 6589TIP3    H219711   4.927   5.035   0.474
 6590TIP3   OH219712   2.618   2.824   4.412
 6590TIP3    H119713   2.538   2.874   4.396
 6590TIP3    H219714   2.650   2.800   4.325
 6591TIP3   OH219715   6.681   7.239   0.760
 6591TIP3    H119716   6.635   7.242   0.843
 6591TIP3    H219717   6.721   7.152   0.758
 6592TIP3   OH219718   4.981   4.507   0.995
 6592TIP3    H119719   4.955   4.572   1.060
 6592TIP3    H219720   4.904   4.452   0.984
 6593TIP3   OH219721   6.423   7.671   3.799
 6593TIP3    H119722   6.429   7.582   3.832
 6593TIP3    H219723   6.511   7.707   3.811
 6594TIP3   OH219724   3.990   4.716   5.069
 6594TIP3    H119725   4.006   4.639   5.124
 6594TIP3    H219726   3.932   4.772   5.121
 6595TIP3   OH219727   4.734   0.589   1.422
 6595TIP3    H119728   4.655   0.642   1.418
 6595TIP3    H219729   4.804   0.652   1.439
 6596TIP3   OH219730   3.807   4.502   2.018
 6596TIP3    H119731   3.838   4.553   2.093
 6596TIP3    H219732   3.751   4.562   1.970
 6597TIP3   OH219733   0.782   5.208   6.467
 6597TIP3    H119734   0.737   5.130   6.434
 6597TIP3    H219735   0.873   5.182   6.474
 6598TIP3   OH219736   7.026   0.787   1.985
 6598TIP3    H119737   7.061   0.715   1.933
 6598TIP3    H219738   7.062   0.774   2.072
 6599TIP3   OH219739   4.133   2.378   1.788
 6599TIP3    H119740   4.181   2.302   1.752
 6599TIP3    H219741   4.041   2.353   1.781
 6600TIP3   OH219742   6.263   0.851   5.140
 6600TIP3    H119743   6.305   0.802   5.070
 6600TIP3    H219744   6.306   0.937   5.138
 6601TIP3   OH219745   8.159   5.812   0.032
 6601TIP3    H119746   8.184   5.858   0.112
 6601TIP3    H219747   8.233   5.827  -0.027
 6602TIP3   OH219748   0.682   2.858   3.905
 6602TIP3    H119749   0.777   2.853   3.901
 6602TIP3    H219750   0.662   2.871   3.998
 6603TIP3   OH219751   6.488   1.825   0.872
 6603TIP3    H119752   6.573   1.808   0.913
 6603TIP3    H219753   6.473   1.750   0.814
 6604TIP3   OH219754   6.465   3.430   4.335
 6604TIP3    H119755   6.523   3.368   4.378
 6604TIP3    H219756   6.398   3.376   4.293
 6605TIP3   OH219757   2.682   4.563   4.737
 6605TIP3    H119758   2.696   4.468   4.730
 6605TIP3    H219759   2.769   4.598   4.756
 6606TIP3   OH219760   4.165   0.563   1.208
 6606TIP3    H119761   4.185   0.597   1.295
 6606TIP3    H219762   4.079   0.601   1.187
 6607TIP3   OH219763   7.610   0.275   6.317
 6607TIP3    H119764   7.699   0.307   6.325
 6607TIP3    H219765   7.586   0.293   6.226
 6608TIP3   OH219766   0.808   4.873   1.817
 6608TIP3    H119767   0.720   4.865   1.854
 6608TIP3    H219768   0.795   4.868   1.722
 6609TIP3   OH219769   1.424   3.044   1.025
 6609TIP3    H119770   1.393   3.131   1.002
 6609TIP3    H219771   1.344   2.994   1.041
 6610TIP3   OH219772   6.648   2.492   4.819
 6610TIP3    H119773   6.572   2.446   4.855
 6610TIP3    H219774   6.718   2.475   4.883
 6611TIP3   OH219775   7.860   1.161   1.139
 6611TIP3    H119776   7.871   1.184   1.231
 6611TIP3    H219777   7.787   1.216   1.109
 6612TIP3   OH219778   6.987   3.822   4.138
 6612TIP3    H119779   7.065   3.850   4.090
 6612TIP3    H219780   7.002   3.729   4.155
 6613TIP3   OH219781   1.065   6.412   5.745
 6613TIP3    H119782   1.127   6.357   5.792
 6613TIP3    H219783   1.102   6.421   5.657
 6614TIP3   OH219784   6.783   6.527   3.036
 6614TIP3    H119785   6.831   6.580   3.100
 6614TIP3    H219786   6.766   6.587   2.963
 6615TIP3   OH219787   7.909   4.489   4.080
 6615TIP3    H119788   7.931   4.559   4.142
 6615TIP3    H219789   7.983   4.428   4.086
 6616TIP3   OH219790   4.420   7.162   0.473
 6616TIP3    H119791   4.444   7.198   0.387
 6616TIP3    H219792   4.324   7.165   0.474
 6617TIP3   OH219793   7.479   1.823   2.866
 6617TIP3    H119794   7.519   1.789   2.946
 6617TIP3    H219795   7.492   1.754   2.802
 6618TIP3   OH219796   6.642   1.019   4.292
 6618TIP3    H119797   6.556   0.979   4.278
 6618TIP3    H219798   6.645   1.037   4.386
 6619TIP3   OH219799   4.516   0.758   1.380
 6619TIP3    H119800   4.517   0.785   1.472
 6619TIP3    H219801   4.510   0.840   1.331
 6620TIP3   OH219802   7.909   6.314   3.702
 6620TIP3    H119803   7.938   6.284   3.616
 6620TIP3    H219804   7.816   6.293   3.704
 6621TIP3   OH219805   5.350   2.549   6.370
 6621TIP3    H119806   5.274   2.490   6.367
 6621TIP3    H219807   5.419   2.500   6.325
 6622TIP3   OH219808   4.277   7.171   1.805
 6622TIP3    H119809   4.321   7.097   1.764
 6622TIP3    H219810   4.200   7.133   1.847
 6623TIP3   OH219811   0.442   3.613   1.190
 6623TIP3    H119812   0.394   3.556   1.130
 6623TIP3    H219813   0.481   3.680   1.135
 6624TIP3   OH219814   7.477   1.373   6.182
 6624TIP3    H119815   7.502   1.297   6.129
 6624TIP3    H219816   7.531   1.366   6.261
 6625TIP3   OH219817   0.496   5.312   1.675
 6625TIP3    H119818   0.409   5.335   1.642
 6625TIP3    H219819   0.540   5.396   1.686
 6626TIP3   OH219820   2.120   1.676   4.554
 6626TIP3    H119821   2.101   1.628   4.473
 6626TIP3    H219822   2.117   1.610   4.622
 6627TIP3   OH219823   5.572   2.447   6.189
 6627TIP3    H119824   5.640   2.466   6.125
 6627TIP3    H219825   5.517   2.381   6.147
 6628TIP3   OH219826   3.768   6.985   4.331
 6628TIP3    H119827   3.727   6.970   4.246
 6628TIP3    H219828   3.856   6.947   4.322
 6629TIP3   OH219829   2.892   4.715   2.047
 6629TIP3    H119830   2.833   4.648   2.082
 6629TIP3    H219831   2.940   4.746   2.124
 6630TIP3   OH219832   1.813   4.590   1.446
 6630TIP3    H119833   1.745   4.631   1.500
 6630TIP3    H219834   1.780   4.502   1.430
 6631TIP3   OH219835   1.204   0.081   5.790
 6631TIP3    H119836   1.263   0.147   5.825
 6631TIP3    H219837   1.229   0.000   5.835
 6632TIP3   OH219838   0.335   5.504   2.364
 6632TIP3    H119839   0.300   5.539   2.281
 6632TIP3    H219840   0.390   5.575   2.398
 6633TIP3   OH219841   5.169   2.537   5.334
 6633TIP3    H119842   5.136   2.626   5.346
 6633TIP3    H219843   5.230   2.543   5.260
 6634TIP3   OH219844   1.419   3.258   0.089
 6634TIP3    H119845   1.484   3.212   0.036
 6634TIP3    H219846   1.365   3.305   0.025
 6635TIP3   OH219847   3.615   5.791   3.003
 6635TIP3    H119848   3.599   5.767   3.094
 6635TIP3    H219849   3.709   5.778   2.991
 6636TIP3   OH219850   1.134   1.981   2.187
 6636TIP3    H119851   1.189   2.001   2.263
 6636TIP3    H219852   1.182   2.016   2.113
 6637TIP3   OH219853   3.800   3.079   3.542
 6637TIP3    H119854   3.800   3.058   3.635
 6637TIP3    H219855   3.796   2.995   3.498
 6638TIP3   OH219856   2.918   5.314   3.217
 6638TIP3    H119857   2.897   5.279   3.304
 6638TIP3    H219858   2.865   5.262   3.157
 6639TIP3   OH219859   1.543   0.808   3.296
 6639TIP3    H119860   1.589   0.727   3.276
 6639TIP3    H219861   1.451   0.787   3.284
 6640TIP3   OH219862   6.104   1.653   2.618
 6640TIP3    H119863   6.137   1.570   2.653
 6640TIP3    H219864   6.171   1.681   2.556
 6641TIP3   OH219865   0.503   3.493   0.485
 6641TIP3    H119866   0.458   3.567   0.524
 6641TIP3    H219867   0.437   3.451   0.430
 6642TIP3   OH219868   4.067   3.752   5.032
 6642TIP3    H119869   4.066   3.769   4.937
 6642TIP3    H219870   4.158   3.732   5.051
 6643TIP3   OH219871   5.605   0.745   0.660
 6643TIP3    H119872   5.695   0.776   0.663
 6643TIP3    H219873   5.601   0.674   0.724
 6644TIP3   OH219874   7.379   6.919   5.833
 6644TIP3    H119875   7.421   6.870   5.904
 6644TIP3    H219876   7.299   6.870   5.815
 6645TIP3   OH219877   5.470   4.377   3.291
 6645TIP3    H119878   5.437   4.340   3.210
 6645TIP3    H219879   5.550   4.424   3.265
 6646TIP3   OH219880   6.825   1.265   1.135
 6646TIP3    H119881   6.776   1.278   1.054
 6646TIP3    H219882   6.900   1.323   1.128
 6647TIP3   OH219883   1.716   5.258   6.725
 6647TIP3    H119884   1.700   5.171   6.761
 6647TIP3    H219885   1.646   5.271   6.661
 6648TIP3   OH219886   6.634   3.859   2.823
 6648TIP3    H119887   6.687   3.938   2.837
 6648TIP3    H219888   6.665   3.797   2.888
 6649TIP3   OH219889   7.130   6.681   1.093
 6649TIP3    H119890   7.129   6.660   0.999
 6649TIP3    H219891   7.047   6.647   1.126
 6650TIP3   OH219892   3.329   2.204   6.015
 6650TIP3    H119893   3.303   2.287   6.055
 6650TIP3    H219894   3.279   2.200   5.934
 6651TIP3   OH219895   1.316   2.080   5.468
 6651TIP3    H119896   1.342   2.145   5.403
 6651TIP3    H219897   1.238   2.117   5.510
 6652TIP3   OH219898   2.729   6.542   2.527
 6652TIP3    H119899   2.818   6.572   2.548
 6652TIP3    H219900   2.680   6.556   2.608
 6653TIP3   OH219901   6.626   2.259   4.363
 6653TIP3    H119902   6.708   2.270   4.314
 6653TIP3    H219903   6.638   2.313   4.441
 6654TIP3   OH219904   3.592   6.055   2.959
 6654TIP3    H119905   3.611   5.961   2.957
 6654TIP3    H219906   3.621   6.083   3.046
 6655TIP3   OH219907   0.940   0.992   1.485
 6655TIP3    H119908   0.865   0.941   1.516
 6655TIP3    H219909   1.013   0.960   1.538
 6656TIP3   OH219910   5.516   1.160   3.761
 6656TIP3    H119911   5.501   1.216   3.837
 6656TIP3    H219912   5.531   1.073   3.797
 6657TIP3   OH219913   3.362   7.747   5.334
 6657TIP3    H119914   3.409   7.829   5.352
 6657TIP3    H219915   3.418   7.679   5.370
 6658TIP3   OH219916   3.396   5.684   5.568
 6658TIP3    H119917   3.380   5.684   5.662
 6658TIP3    H219918   3.458   5.612   5.554
 6659TIP3   OH219919   2.621   0.066   6.544
 6659TIP3    H119920   2.654  -0.021   6.567
 6659TIP3    H219921   2.686   0.127   6.580
 6660TIP3   OH219922  -0.012   0.565   1.141
 6660TIP3    H119923   0.049   0.515   1.196
 6660TIP3    H219924   0.024   0.557   1.053
 6661TIP3   OH219925   5.288   1.650   5.632
 6661TIP3    H119926   5.349   1.703   5.580
 6661TIP3    H219927   5.251   1.711   5.695
 6662TIP3   OH219928   2.931   3.826   2.560
 6662TIP3    H119929   2.967   3.799   2.645
 6662TIP3    H219930   2.934   3.747   2.507
 6663TIP3   OH219931   3.782   3.290   5.297
 6663TIP3    H119932   3.865   3.268   5.340
 6663TIP3    H219933   3.714   3.260   5.358
 6664TIP3   OH219934   2.429   6.510   1.998
 6664TIP3    H119935   2.358   6.550   2.048
 6664TIP3    H219936   2.427   6.418   2.022
 6665TIP3   OH219937   4.442   0.191   4.949
 6665TIP3    H119938   4.458   0.170   5.041
 6665TIP3    H219939   4.430   0.106   4.907
 6666TIP3   OH219940   4.230   7.360   3.227
 6666TIP3    H119941   4.312   7.402   3.200
 6666TIP3    H219942   4.186   7.426   3.281
 6667TIP3   OH219943   4.142   3.110   0.175
 6667TIP3    H119944   4.083   3.132   0.103
 6667TIP3    H219945   4.088   3.116   0.253
 6668TIP3   OH219946   2.207   6.659   2.111
 6668TIP3    H119947   2.143   6.666   2.181
 6668TIP3    H219948   2.246   6.747   2.105
 6669TIP3   OH219949   4.998   3.081   6.166
 6669TIP3    H119950   4.964   2.993   6.182
 6669TIP3    H219951   5.059   3.071   6.093
 6670TIP3   OH219952   4.471   7.811   1.932
 6670TIP3    H119953   4.505   7.734   1.886
 6670TIP3    H219954   4.434   7.866   1.864
 6671TIP3   OH219955   7.497   5.262   1.229
 6671TIP3    H119956   7.424   5.249   1.168
 6671TIP3    H219957   7.524   5.174   1.253
 6672TIP3   OH219958   6.620   6.947   3.439
 6672TIP3    H119959   6.543   7.003   3.439
 6672TIP3    H219960   6.694   7.007   3.436
 6673TIP3   OH219961   7.978   2.327   3.631
 6673TIP3    H119962   7.946   2.330   3.721
 6673TIP3    H219963   7.975   2.234   3.607
 6674TIP3   OH219964   4.531   5.646   4.898
 6674TIP3    H119965   4.463   5.714   4.896
 6674TIP3    H219966   4.604   5.684   4.849
 6675TIP3   OH219967   2.092   7.810   6.044
 6675TIP3    H119968   2.071   7.725   6.006
 6675TIP3    H219969   2.078   7.872   5.973
 6676TIP3   OH219970   0.537   2.182   6.140
 6676TIP3    H119971   0.474   2.247   6.107
 6676TIP3    H219972   0.499   2.097   6.116
 6677TIP3   OH219973   4.854   6.581   4.064
 6677TIP3    H119974   4.796   6.655   4.046
 6677TIP3    H219975   4.872   6.586   4.158
 6678TIP3   OH219976   1.918   4.899   5.689
 6678TIP3    H119977   1.928   4.977   5.634
 6678TIP3    H219978   2.004   4.857   5.685
 6679TIP3   OH219979   3.232   0.133   4.003
 6679TIP3    H119980   3.321   0.157   3.974
 6679TIP3    H219981   3.219   0.183   4.084
 6680TIP3   OH219982   6.028   6.336   6.774
 6680TIP3    H119983   5.966   6.367   6.840
 6680TIP3    H219984   6.114   6.345   6.816
 6681TIP3   OH219985   5.157   1.731   4.118
 6681TIP3    H119986   5.201   1.646   4.122
 6681TIP3    H219987   5.144   1.755   4.210
 6682TIP3   OH219988   2.162   0.865   1.072
 6682TIP3    H119989   2.129   0.888   1.159
 6682TIP3    H219990   2.117   0.926   1.013
 6683TIP3   OH219991   0.238   4.673   5.156
 6683TIP3    H119992   0.202   4.611   5.219
 6683TIP3    H219993   0.312   4.626   5.117
 6684TIP3   OH219994   6.401   4.097   3.763
 6684TIP3    H119995   6.438   4.151   3.694
 6684TIP3    H219996   6.465   4.102   3.834
 6685TIP3   OH219997   2.873   6.018   5.506
 6685TIP3    H119998   2.840   6.106   5.527
 6685TIP3    H219999   2.960   6.015   5.546
 6686TIP3   OH220000   6.805   3.308   3.681
 6686TIP3    H120001   6.735   3.258   3.639
 6686TIP3    H220002   6.882   3.291   3.628
 6687TIP3   OH220003   4.581   5.946   5.464
 6687TIP3    H120004   4.584   6.036   5.434
 6687TIP3    H220005   4.551   5.896   5.388
 6688TIP3   OH220006   0.425   6.975   3.090
 6688TIP3    H120007   0.490   7.022   3.039
 6688TIP3    H220008   0.429   6.885   3.058
 6689TIP3   OH220009   2.723   6.773   0.122
 6689TIP3    H120010   2.741   6.867   0.115
 6689TIP3    H220011   2.709   6.745   0.032
 6690TIP3   OH220012   1.056   5.929   4.904
 6690TIP3    H120013   1.117   5.955   4.835
 6690TIP3    H220014   1.103   5.863   4.954
 6691TIP3   OH220015   0.581   5.082   1.901
 6691TIP3    H120016   0.520   5.093   1.974
 6691TIP3    H220017   0.529   5.042   1.832
 6692TIP3   OH220018   4.519   0.563   6.464
 6692TIP3    H120019   4.433   0.532   6.436
 6692TIP3    H220020   4.556   0.606   6.387
 6693TIP3   OH220021   8.018   7.012   4.059
 6693TIP3    H120022   8.114   7.011   4.063
 6693TIP3    H220023   7.997   7.104   4.040
 6694TIP3   OH220024   4.471   5.719   5.293
 6694TIP3    H120025   4.486   5.795   5.237
 6694TIP3    H220026   4.533   5.653   5.261
 6695TIP3   OH220027   7.579   2.689   4.522
 6695TIP3    H120028   7.549   2.662   4.435
 6695TIP3    H220029   7.628   2.770   4.506
 6696TIP3   OH220030   6.045   1.197   6.247
 6696TIP3    H120031   6.057   1.252   6.325
 6696TIP3    H220032   6.131   1.196   6.204
 6697TIP3   OH220033   2.089   2.698   4.709
 6697TIP3    H120034   2.082   2.633   4.640
 6697TIP3    H220035   2.149   2.658   4.773
 6698TIP3   OH220036   2.947   2.528   1.949
 6698TIP3    H120037   2.897   2.449   1.969
 6698TIP3    H220038   2.886   2.600   1.966
 6699TIP3   OH220039   3.662   7.283   6.787
 6699TIP3    H120040   3.706   7.345   6.730
 6699TIP3    H220041   3.574   7.318   6.799
 6700TIP3   OH220042   1.368   4.832   5.473
 6700TIP3    H120043   1.380   4.737   5.478
 6700TIP3    H220044   1.299   4.844   5.409
 6701TIP3   OH220045   2.369   4.637   6.070
 6701TIP3    H120046   2.330   4.573   6.129
 6701TIP3    H220047   2.458   4.604   6.054
 6702TIP3   OH220048   7.744   6.956   2.624
 6702TIP3    H120049   7.732   7.047   2.649
 6702TIP3    H220050   7.733   6.955   2.529
 6703TIP3   OH220051   1.675   4.243   5.659
 6703TIP3    H120052   1.757   4.291   5.654
 6703TIP3    H220053   1.699   4.158   5.696
 6704TIP3   OH220054   2.977   3.462   2.154
 6704TIP3    H120055   3.012   3.467   2.243
 6704TIP3    H220056   2.944   3.550   2.136
 6705TIP3   OH220057   2.001   4.057   4.562
 6705TIP3    H120058   1.937   4.069   4.632
 6705TIP3    H220059   1.949   4.029   4.487
 6706TIP3   OH220060   1.097   6.713   1.197
 6706TIP3    H120061   1.118   6.804   1.178
 6706TIP3    H220062   1.127   6.699   1.287
 6707TIP3   OH220063   4.386   2.119   2.961
 6707TIP3    H120064   4.460   2.063   2.984
 6707TIP3    H220065   4.424   2.186   2.903
 6708TIP3   OH220066   3.474   2.851   3.502
 6708TIP3    H120067   3.566   2.834   3.519
 6708TIP3    H220068   3.472   2.896   3.417
 6709TIP3   OH220069   1.775   6.141   4.344
 6709TIP3    H120070   1.745   6.155   4.434
 6709TIP3    H220071   1.870   6.143   4.350
 6710TIP3   OH220072   2.469   0.387   6.416
 6710TIP3    H120073   2.516   0.458   6.460
 6710TIP3    H220074   2.407   0.355   6.482
 6711TIP3   OH220075   3.836   3.590   2.599
 6711TIP3    H120076   3.749   3.607   2.563
 6711TIP3    H220077   3.880   3.675   2.595
 6712TIP3   OH220078   0.364   7.265   1.566
 6712TIP3    H120079   0.451   7.294   1.537
 6712TIP3    H220080   0.308   7.341   1.553
 6713TIP3   OH220081   5.725   2.717   2.987
 6713TIP3    H120082   5.767   2.704   3.072
 6713TIP3    H220083   5.636   2.745   3.008
 6714TIP3   OH220084   1.865   1.621   5.844
 6714TIP3    H120085   1.833   1.702   5.883
 6714TIP3    H220086   1.950   1.643   5.807
 6715TIP3   OH220087   5.135   6.656   1.310
 6715TIP3    H120088   5.046   6.622   1.317
 6715TIP3    H220089   5.124   6.750   1.292
 6716TIP3   OH220090   0.164   3.917   4.112
 6716TIP3    H120091   0.104   3.923   4.187
 6716TIP3    H220092   0.172   3.823   4.095
 6717TIP3   OH220093   6.544   4.717   6.350
 6717TIP3    H120094   6.545   4.812   6.360
 6717TIP3    H220095   6.543   4.703   6.255
 6718TIP3   OH220096   6.906   6.019   4.609
 6718TIP3    H120097   6.983   6.046   4.658
 6718TIP3    H220098   6.940   5.969   4.535
 6719TIP3   OH220099   4.904   1.773   5.803
 6719TIP3    H120100   4.915   1.690   5.757
 6719TIP3    H220101   4.893   1.838   5.734
 6720TIP3   OH220102   5.701   1.790   6.709
 6720TIP3    H120103   5.659   1.768   6.792
 6720TIP3    H220104   5.790   1.756   6.716
 6721TIP3   OH220105   2.566   4.891   2.594
 6721TIP3    H120106   2.483   4.901   2.641
 6721TIP3    H220107   2.617   4.832   2.649
 6722TIP3   OH220108   7.469   1.681   0.065
 6722TIP3    H120109   7.388   1.650   0.104
 6722TIP3    H220110   7.443   1.710  -0.023
 6723TIP3   OH220111   2.310   6.073   0.813
 6723TIP3    H120112   2.219   6.104   0.811
 6723TIP3    H220113   2.312   6.000   0.751
 6724TIP3   OH220114   3.678   5.163   2.980
 6724TIP3    H120115   3.719   5.249   2.986
 6724TIP3    H220116   3.615   5.161   3.052
 6725TIP3   OH220117   6.749   1.069   2.717
 6725TIP3    H120118   6.764   1.049   2.809
 6725TIP3    H220119   6.814   1.018   2.670
 6726TIP3   OH220120   6.037   4.848   1.079
 6726TIP3    H120121   6.039   4.778   1.013
 6726TIP3    H220122   5.953   4.891   1.066
 6727TIP3   OH220123   7.226   2.812   0.636
 6727TIP3    H120124   7.184   2.869   0.572
 6727TIP3    H220125   7.222   2.861   0.718
 6728TIP3   OH220126   6.458   6.014   6.229
 6728TIP3    H120127   6.403   6.078   6.273
 6728TIP3    H220128   6.470   5.945   6.295
 6729TIP3   OH220129   6.877   0.321   0.230
 6729TIP3    H120130   6.946   0.387   0.221
 6729TIP3    H220131   6.796   0.372   0.235
 6730TIP3   OH220132   7.214   1.977   4.347
 6730TIP3    H120133   7.298   1.942   4.318
 6730TIP3    H220134   7.150   1.911   4.321
 6731TIP3   OH220135   1.198   3.790   3.070
 6731TIP3    H120136   1.217   3.858   3.006
 6731TIP3    H220137   1.128   3.826   3.124
 6732TIP3   OH220138   7.107   1.864   1.505
 6732TIP3    H120139   7.161   1.931   1.547
 6732TIP3    H220140   7.041   1.841   1.570
 6733TIP3   OH220141   7.045   0.956   6.663
 6733TIP3    H120142   6.998   0.886   6.708
 6733TIP3    H220143   6.976   1.010   6.625
 6734TIP3   OH220144   5.874   7.088   6.705
 6734TIP3    H120145   5.911   7.013   6.659
 6734TIP3    H220146   5.934   7.160   6.686
 6735TIP3   OH220147   2.020   2.259   6.304
 6735TIP3    H120148   1.996   2.265   6.396
 6735TIP3    H220149   1.941   2.230   6.259
 6736TIP3   OH220150   6.668   2.425   1.816
 6736TIP3    H120151   6.657   2.461   1.728
 6736TIP3    H220152   6.726   2.487   1.860
 6737TIP3   OH220153   6.884   0.746   3.116
 6737TIP3    H120154   6.895   0.652   3.130
 6737TIP3    H220155   6.877   0.783   3.204
 6738TIP3   OH220156   5.278   0.752   4.005
 6738TIP3    H120157   5.241   0.799   4.081
 6738TIP3    H220158   5.288   0.662   4.035
 6739TIP3   OH220159   7.143   3.798   1.630
 6739TIP3    H120160   7.127   3.726   1.691
 6739TIP3    H220161   7.146   3.876   1.686
 6740TIP3   OH220162   5.910   0.555   2.915
 6740TIP3    H120163   5.938   0.499   2.987
 6740TIP3    H220164   5.860   0.624   2.956
 6741TIP3   OH220165   7.242   6.568   5.563
 6741TIP3    H120166   7.276   6.557   5.652
 6741TIP3    H220167   7.223   6.479   5.533
 6742TIP3   OH220168   1.163   2.461   2.065
 6742TIP3    H120169   1.097   2.413   2.015
 6742TIP3    H220170   1.122   2.546   2.084
 6743TIP3   OH220171   7.313   6.471   1.182
 6743TIP3    H120172   7.309   6.409   1.109
 6743TIP3    H220173   7.288   6.555   1.144
 6744TIP3   OH220174   4.072   3.202   0.792
 6744TIP3    H120175   3.982   3.174   0.773
 6744TIP3    H220176   4.107   3.134   0.848
 6745TIP3   OH220177   6.177   4.960   3.789
 6745TIP3    H120178   6.263   4.997   3.769
 6745TIP3    H220179   6.122   5.036   3.811
 6746TIP3   OH220180   7.292   7.458   4.164
 6746TIP3    H120181   7.358   7.484   4.100
 6746TIP3    H220182   7.317   7.503   4.245
 6747TIP3   OH220183   2.657   7.786   0.407
 6747TIP3    H120184   2.566   7.773   0.433
 6747TIP3    H220185   2.704   7.796   0.489
 6748TIP3   OH220186   7.434   0.985   0.395
 6748TIP3    H120187   7.407   1.065   0.348
 6748TIP3    H220188   7.526   1.000   0.416
 6749TIP3   OH220189   5.948   0.777   4.917
 6749TIP3    H120190   6.000   0.838   4.866
 6749TIP3    H220191   5.992   0.693   4.908
 6750TIP3   OH220192   1.587   2.607   3.160
 6750TIP3    H120193   1.499   2.570   3.156
 6750TIP3    H220194   1.575   2.694   3.197
 6751TIP3   OH220195   6.157   4.443   2.906
 6751TIP3    H120196   6.219   4.471   2.974
 6751TIP3    H220197   6.213   4.413   2.834
 6752TIP3   OH220198   3.663   5.767   0.627
 6752TIP3    H120199   3.740   5.743   0.577
 6752TIP3    H220200   3.602   5.694   0.615
 6753TIP3   OH220201   4.882   3.281   3.865
 6753TIP3    H120202   4.905   3.256   3.775
 6753TIP3    H220203   4.830   3.207   3.897
 6754TIP3   OH220204   5.294   3.692   2.475
 6754TIP3    H120205   5.271   3.732   2.559
 6754TIP3    H220206   5.302   3.766   2.415
 6755TIP3   OH220207   2.266   3.226   3.914
 6755TIP3    H120208   2.186   3.202   3.961
 6755TIP3    H220209   2.258   3.184   3.828
 6756TIP3   OH220210   3.781   2.398   1.780
 6756TIP3    H120211   3.756   2.484   1.814
 6756TIP3    H220212   3.782   2.341   1.856
 6757TIP3   OH220213   2.202   0.013   1.297
 6757TIP3    H120214   2.195  -0.018   1.387
 6757TIP3    H220215   2.114   0.003   1.261
 6758TIP3   OH220216   5.429   0.623   4.856
 6758TIP3    H120217   5.401   0.584   4.939
 6758TIP3    H220218   5.524   0.632   4.864
 6759TIP3   OH220219   3.226   0.192   1.090
 6759TIP3    H120220   3.289   0.133   1.132
 6759TIP3    H220221   3.145   0.181   1.141
 6760TIP3   OH220222   3.845   2.288   3.535
 6760TIP3    H120223   3.835   2.262   3.626
 6760TIP3    H220224   3.781   2.358   3.522
 6761TIP3   OH220225   7.425   3.339   6.380
 6761TIP3    H120226   7.384   3.414   6.338
 6761TIP3    H220227   7.449   3.281   6.307
 6762TIP3   OH220228   7.027   6.520   3.842
 6762TIP3    H120229   7.031   6.607   3.802
 6762TIP3    H220230   7.014   6.461   3.768
 6763TIP3   OH220231   5.185   0.529   1.547
 6763TIP3    H120232   5.215   0.575   1.468
 6763TIP3    H220233   5.264   0.515   1.599
 6764TIP3   OH220234   2.918   3.314   2.778
 6764TIP3    H120235   2.853   3.293   2.711
 6764TIP3    H220236   2.987   3.360   2.731
 6765TIP3   OH220237   5.005   2.881   2.596
 6765TIP3    H120238   4.996   2.970   2.562
 6765TIP3    H220239   5.086   2.849   2.557
 6766TIP3   OH220240   3.837   7.151   4.779
 6766TIP3    H120241   3.796   7.102   4.707
 6766TIP3    H220242   3.906   7.202   4.737
 6767TIP3   OH220243   0.069   2.272   2.984
 6767TIP3    H120244   0.070   2.335   3.057
 6767TIP3    H220245   0.013   2.311   2.919
 6768TIP3   OH220246   1.984   1.182   5.697
 6768TIP3    H120247   2.065   1.212   5.655
 6768TIP3    H220248   1.914   1.224   5.647
 6769TIP3   OH220249   4.957   3.464   1.741
 6769TIP3    H120250   4.938   3.530   1.808
 6769TIP3    H220251   4.987   3.387   1.791
 6770TIP3   OH220252   1.129   1.881   1.797
 6770TIP3    H120253   1.057   1.900   1.857
 6770TIP3    H220254   1.094   1.814   1.738
 6771TIP3   OH220255   3.208   3.905   1.717
 6771TIP3    H120256   3.199   3.986   1.768
 6771TIP3    H220257   3.280   3.922   1.657
 6772TIP3   OH220258   7.279   7.233   1.236
 6772TIP3    H120259   7.258   7.183   1.156
 6772TIP3    H220260   7.218   7.306   1.236
 6773TIP3   OH220261   5.338   2.770   3.626
 6773TIP3    H120262   5.332   2.716   3.704
 6773TIP3    H220263   5.396   2.723   3.567
 6774TIP3   OH220264   2.320   7.103   0.836
 6774TIP3    H120265   2.271   7.021   0.826
 6774TIP3    H220266   2.387   7.084   0.902
 6775TIP3   OH220267   2.810   3.784   3.288
 6775TIP3    H120268   2.769   3.734   3.217
 6775TIP3    H220269   2.749   3.775   3.361
 6776TIP3   OH220270   6.103   6.025   1.647
 6776TIP3    H120271   6.033   6.089   1.636
 6776TIP3    H220272   6.123   5.994   1.558
 6777TIP3   OH220273   7.783   5.093   3.307
 6777TIP3    H120274   7.821   5.085   3.394
 6777TIP3    H220275   7.805   5.182   3.279
 6778TIP3   OH220276   4.297   3.722   2.754
 6778TIP3    H120277   4.258   3.802   2.719
 6778TIP3    H220278   4.324   3.745   2.843
 6779TIP3   OH220279   4.725   3.917   0.492
 6779TIP3    H120280   4.771   3.837   0.519
 6779TIP3    H220281   4.633   3.901   0.513
 6780TIP3   OH220282   0.386   1.185   5.786
 6780TIP3    H120283   0.328   1.230   5.847
 6780TIP3    H220284   0.459   1.156   5.840
 6781TIP3   OH220285   3.738   5.396   1.319
 6781TIP3    H120286   3.806   5.385   1.385
 6781TIP3    H220287   3.712   5.306   1.296
 6782TIP3   OH220288   0.891   3.964   0.536
 6782TIP3    H120289   0.872   3.972   0.442
 6782TIP3    H220290   0.810   3.930   0.574
 6783TIP3   OH220291   7.244   7.050   1.886
 6783TIP3    H120292   7.266   6.960   1.912
 6783TIP3    H220293   7.297   7.105   1.943
 6784TIP3   OH220294   2.459   1.021   6.081
 6784TIP3    H120295   2.428   1.051   5.995
 6784TIP3    H220296   2.548   1.056   6.087
 6785TIP3   OH220297   0.466   5.431   5.785
 6785TIP3    H120298   0.547   5.384   5.764
 6785TIP3    H220299   0.467   5.439   5.880
 6786TIP3   OH220300   4.294   4.601   5.408
 6786TIP3    H120301   4.348   4.546   5.465
 6786TIP3    H220302   4.337   4.686   5.408
 6787TIP3   OH220303   5.356   4.224   1.920
 6787TIP3    H120304   5.363   4.271   1.836
 6787TIP3    H220305   5.434   4.251   1.968
 6788TIP3   OH220306   1.437   1.222   1.062
 6788TIP3    H120307   1.348   1.254   1.050
 6788TIP3    H220308   1.456   1.237   1.154
 6789TIP3   OH220309   2.687   5.376   4.018
 6789TIP3    H120310   2.638   5.379   4.100
 6789TIP3    H220311   2.751   5.306   4.031
 6790TIP3   OH220312   6.073   6.179   2.424
 6790TIP3    H120313   6.037   6.196   2.511
 6790TIP3    H220314   6.013   6.116   2.385
 6791TIP3   OH220315   3.240   3.105   0.729
 6791TIP3    H120316   3.279   3.029   0.772
 6791TIP3    H220317   3.254   3.178   0.790
 6792TIP3   OH220318   2.680   0.081   0.661
 6792TIP3    H120319   2.769   0.048   0.674
 6792TIP3    H220320   2.692   0.175   0.647
 6793TIP3   OH220321   7.152   3.939   0.799
 6793TIP3    H120322   7.232   3.915   0.845
 6793TIP3    H220323   7.081   3.918   0.860
 6794TIP3   OH220324   3.591   7.668   3.677
 6794TIP3    H120325   3.612   7.596   3.618
 6794TIP3    H220326   3.672   7.719   3.683
 6795TIP3   OH220327   3.723   6.005   3.455
 6795TIP3    H120328   3.747   6.016   3.363
 6795TIP3    H220329   3.764   5.922   3.480
 6796TIP3   OH220330   5.139   0.685   1.951
 6796TIP3    H120331   5.112   0.634   1.875
 6796TIP3    H220332   5.134   0.776   1.922
 6797TIP3   OH220333   7.834   4.430   2.538
 6797TIP3    H120334   7.742   4.427   2.509
 6797TIP3    H220335   7.849   4.522   2.558
 6798TIP3   OH220336   5.020   1.618   0.115
 6798TIP3    H120337   5.008   1.555   0.186
 6798TIP3    H220338   4.935   1.663   0.108
 6799TIP3   OH220339   4.459   6.457   2.077
 6799TIP3    H120340   4.371   6.438   2.042
 6799TIP3    H220341   4.478   6.545   2.046
 6800TIP3   OH220342   0.344   7.703   2.581
 6800TIP3    H120343   0.318   7.738   2.667
 6800TIP3    H220344   0.397   7.773   2.542
 6801TIP3   OH220345   0.991   4.207   6.401
 6801TIP3    H120346   0.908   4.250   6.424
 6801TIP3    H220347   1.047   4.223   6.477
 6802TIP3   OH220348   6.661   2.947   5.848
 6802TIP3    H120349   6.680   2.919   5.759
 6802TIP3    H220350   6.738   2.997   5.875
 6803TIP3   OH220351   2.443   0.292   2.331
 6803TIP3    H120352   2.398   0.304   2.247
 6803TIP3    H220353   2.422   0.370   2.382
 6804TIP3   OH220354   2.902   5.504   4.420
 6804TIP3    H120355   2.950   5.509   4.503
 6804TIP3    H220356   2.844   5.429   4.431
 6805TIP3   OH220357   3.560   1.616   3.857
 6805TIP3    H120358   3.504   1.552   3.813
 6805TIP3    H220359   3.522   1.701   3.832
 6806TIP3   OH220360   7.521   1.147   0.194
 6806TIP3    H120361   7.605   1.104   0.176
 6806TIP3    H220362   7.534   1.238   0.166
 6807TIP3   OH220363   2.552   1.884   4.332
 6807TIP3    H120364   2.483   1.939   4.295
 6807TIP3    H220365   2.509   1.839   4.405
 6808TIP3   OH220366   5.926   5.468   3.742
 6808TIP3    H120367   5.968   5.469   3.828
 6808TIP3    H220368   5.943   5.555   3.706
 6809TIP3   OH220369   1.196   6.537   2.659
 6809TIP3    H120370   1.149   6.506   2.736
 6809TIP3    H220371   1.289   6.522   2.679
 6810TIP3   OH220372   7.109   5.142   4.119
 6810TIP3    H120373   7.190   5.103   4.086
 6810TIP3    H220374   7.051   5.067   4.134
 6811TIP3   OH220375   0.165   0.952   6.380
 6811TIP3    H120376   0.180   0.871   6.430
 6811TIP3    H220377   0.225   0.945   6.306
 6812TIP3   OH220378   0.514   6.725   0.244
 6812TIP3    H120379   0.586   6.692   0.297
 6812TIP3    H220380   0.477   6.796   0.296
 6813TIP3   OH220381   5.882   6.519   5.976
 6813TIP3    H120382   5.879   6.605   6.018
 6813TIP3    H220383   5.973   6.509   5.949
 6814TIP3   OH220384   7.757   0.209   1.583
 6814TIP3    H120385   7.769   0.293   1.539
 6814TIP3    H220386   7.844   0.170   1.585
 6815TIP3   OH220387   6.225   7.288   4.750
 6815TIP3    H120388   6.200   7.267   4.840
 6815TIP3    H220389   6.278   7.367   4.758
 6816TIP3   OH220390   3.851   6.575   6.142
 6816TIP3    H120391   3.813   6.548   6.058
 6816TIP3    H220392   3.932   6.524   6.149
 6817TIP3   OH220393   6.007   6.309   1.150
 6817TIP3    H120394   5.930   6.351   1.189
 6817TIP3    H220395   6.027   6.363   1.073
 6818TIP3   OH220396   7.815   1.092   6.406
 6818TIP3    H120397   7.904   1.122   6.425
 6818TIP3    H220398   7.811   1.003   6.442
 6819TIP3   OH220399   7.555   5.678   0.807
 6819TIP3    H120400   7.632   5.656   0.755
 6819TIP3    H220401   7.491   5.611   0.784
 6820TIP3   OH220402   1.053   1.454   2.414
 6820TIP3    H120403   0.998   1.425   2.342
 6820TIP3    H220404   1.072   1.546   2.396
 6821TIP3   OH220405   6.335   4.982   5.775
 6821TIP3    H120406   6.284   5.040   5.832
 6821TIP3    H220407   6.274   4.956   5.705
 6822TIP3   OH220408   3.884   2.243   5.449
 6822TIP3    H120409   3.938   2.175   5.408
 6822TIP3    H220410   3.797   2.204   5.453
 6823TIP3   OH220411   2.211   2.297   3.613
 6823TIP3    H120412   2.233   2.273   3.703
 6823TIP3    H220413   2.122   2.264   3.600
 6824TIP3   OH220414   2.042   6.102   5.918
 6824TIP3    H120415   2.014   6.033   5.978
 6824TIP3    H220416   2.040   6.060   5.832
 6825TIP3   OH220417   2.384   2.663   0.550
 6825TIP3    H120418   2.333   2.618   0.483
 6825TIP3    H220419   2.418   2.593   0.606
 6826TIP3   OH220420   1.066   1.278   6.254
 6826TIP3    H120421   1.090   1.195   6.213
 6826TIP3    H220422   1.014   1.323   6.187
 6827TIP3   OH220423   6.417   3.304   5.388
 6827TIP3    H120424   6.359   3.295   5.312
 6827TIP3    H220425   6.505   3.304   5.351
 6828TIP3   OH220426   2.549   2.472   0.658
 6828TIP3    H120427   2.583   2.553   0.693
 6828TIP3    H220428   2.547   2.412   0.732
 6829TIP3   OH220429   4.649   2.481   6.238
 6829TIP3    H120430   4.621   2.490   6.147
 6829TIP3    H220431   4.743   2.501   6.236
 6830TIP3   OH220432   4.352   4.395   6.210
 6830TIP3    H120433   4.354   4.320   6.269
 6830TIP3    H220434   4.262   4.399   6.178
 6831TIP3   OH220435   5.786   7.727   6.760
 6831TIP3    H120436   5.810   7.644   6.800
 6831TIP3    H220437   5.853   7.744   6.694
 6832TIP3   OH220438   3.794   2.626   3.288
 6832TIP3    H120439   3.812   2.532   3.296
 6832TIP3    H220440   3.711   2.630   3.241
 6833TIP3   OH220441   6.056   4.688   0.488
 6833TIP3    H120442   5.990   4.727   0.545
 6833TIP3    H220443   6.006   4.661   0.410
 6834TIP3   OH220444   7.444   7.441   3.917
 6834TIP3    H120445   7.435   7.535   3.901
 6834TIP3    H220446   7.535   7.431   3.947
 6835TIP3   OH220447   0.666   1.321   0.466
 6835TIP3    H120448   0.618   1.351   0.389
 6835TIP3    H220449   0.753   1.298   0.432
 6836TIP3   OH220450   1.106   4.365   2.530
 6836TIP3    H120451   1.085   4.278   2.495
 6836TIP3    H220452   1.193   4.355   2.568
 6837TIP3   OH220453  -0.041   1.990   5.938
 6837TIP3    H120454   0.046   2.000   5.898
 6837TIP3    H220455  -0.023   1.963   6.028
 6838TIP3   OH220456   4.643   2.012   3.025
 6838TIP3    H120457   4.717   1.976   2.976
 6838TIP3    H220458   4.611   1.939   3.077
 6839TIP3   OH220459   5.566   2.882   2.465
 6839TIP3    H120460   5.620   2.807   2.490
 6839TIP3    H220461   5.627   2.956   2.465
 6840TIP3   OH220462   5.113   4.081   1.300
 6840TIP3    H120463   5.132   4.012   1.236
 6840TIP3    H220464   5.198   4.107   1.334
 6841TIP3   OH220465   8.123   7.341   6.527
 6841TIP3    H120466   8.104   7.290   6.448
 6841TIP3    H220467   8.069   7.301   6.595
 6842TIP3   OH220468   1.338   6.324   1.627
 6842TIP3    H120469   1.297   6.311   1.541
 6842TIP3    H220470   1.393   6.402   1.615
 6843TIP3   OH220471   0.382   5.656   1.562
 6843TIP3    H120472   0.448   5.713   1.601
 6843TIP3    H220473   0.427   5.615   1.488
 6844TIP3   OH220474   7.654   2.486   2.695
 6844TIP3    H120475   7.586   2.435   2.737
 6844TIP3    H220476   7.690   2.428   2.628
 6845TIP3   OH220477   2.833   0.872   1.811
 6845TIP3    H120478   2.907   0.876   1.751
 6845TIP3    H220479   2.756   0.867   1.753
 6846TIP3   OH220480   4.243   3.201   0.447
 6846TIP3    H120481   4.209   3.138   0.511
 6846TIP3    H220482   4.321   3.159   0.411
 6847TIP3   OH220483   2.684   1.617   5.127
 6847TIP3    H120484   2.745   1.544   5.136
 6847TIP3    H220485   2.598   1.575   5.118
 6848TIP3   OH220486   3.533   4.303   1.888
 6848TIP3    H120487   3.464   4.306   1.954
 6848TIP3    H220488   3.486   4.298   1.805
 6849TIP3   OH220489   3.075   4.473   6.656
 6849TIP3    H120490   3.075   4.564   6.628
 6849TIP3    H220491   3.167   4.446   6.650
 6850TIP3   OH220492   6.680   6.224   1.077
 6850TIP3    H120493   6.740   6.192   1.144
 6850TIP3    H220494   6.661   6.147   1.023
 6851TIP3   OH220495   0.561   0.437   0.212
 6851TIP3    H120496   0.569   0.469   0.122
 6851TIP3    H220497   0.476   0.470   0.242
 6852TIP3   OH220498   3.582   1.203   6.352
 6852TIP3    H120499   3.488   1.211   6.369
 6852TIP3    H220500   3.595   1.248   6.269
 6853TIP3   OH220501   1.030   6.293   1.739
 6853TIP3    H120502   1.103   6.295   1.801
 6853TIP3    H220503   1.007   6.385   1.727
 6854TIP3   OH220504   4.498   2.866   3.002
 6854TIP3    H120505   4.523   2.936   2.942
 6854TIP3    H220506   4.436   2.906   3.062
 6855TIP3   OH220507   4.204   0.608   3.027
 6855TIP3    H120508   4.282   0.637   2.980
 6855TIP3    H220509   4.237   0.547   3.094
 6856TIP3   OH220510   8.293   5.183   6.325
 6856TIP3    H120511   8.341   5.255   6.366
 6856TIP3    H220512   8.208   5.220   6.302
 6857TIP3   OH220513   0.921   3.349   0.614
 6857TIP3    H120514   0.934   3.358   0.520
 6857TIP3    H220515   0.896   3.257   0.626
 6858TIP3   OH220516   2.253   1.246   4.024
 6858TIP3    H120517   2.202   1.176   4.065
 6858TIP3    H220518   2.240   1.233   3.930
 6859TIP3   OH220519   3.577   2.895   2.961
 6859TIP3    H120520   3.667   2.924   2.973
 6859TIP3    H220521   3.533   2.970   2.920
 6860TIP3   OH220522   2.318   7.051   0.163
 6860TIP3    H120523   2.232   7.045   0.123
 6860TIP3    H220524   2.320   7.137   0.205
 6861TIP3   OH220525   1.582   0.080   6.114
 6861TIP3    H120526   1.608   0.026   6.040
 6861TIP3    H220527   1.579   0.019   6.188
 6862TIP3   OH220528   5.802   2.917   5.696
 6862TIP3    H120529   5.807   3.005   5.736
 6862TIP3    H220530   5.845   2.927   5.611
 6863TIP3   OH220531   0.674   3.630   1.360
 6863TIP3    H120532   0.639   3.602   1.275
 6863TIP3    H220533   0.608   3.691   1.394
 6864TIP3   OH220534   5.645   6.581   4.012
 6864TIP3    H120535   5.624   6.504   3.960
 6864TIP3    H220536   5.735   6.565   4.042
 6865TIP3   OH220537   8.346   0.023   3.517
 6865TIP3    H120538   8.302   0.005   3.600
 6865TIP3    H220539   8.421   0.078   3.541
 6866TIP3   OH220540   3.840   3.499   6.386
 6866TIP3    H120541   3.803   3.421   6.344
 6866TIP3    H220542   3.782   3.571   6.360
 6867TIP3   OH220543   7.300   3.256   2.100
 6867TIP3    H120544   7.321   3.163   2.089
 6867TIP3    H220545   7.373   3.303   2.060
 6868TIP3   OH220546   4.207   3.482   6.273
 6868TIP3    H120547   4.199   3.388   6.291
 6868TIP3    H220548   4.298   3.494   6.246
 6869TIP3   OH220549   1.933   2.512   2.540
 6869TIP3    H120550   1.853   2.506   2.487
 6869TIP3    H220551   2.004   2.514   2.476
 6870TIP3   OH220552   5.349   0.286   4.352
 6870TIP3    H120553   5.259   0.317   4.349
 6870TIP3    H220554   5.341   0.193   4.372
 6871TIP3   OH220555   5.733   2.695   5.439
 6871TIP3    H120556   5.771   2.763   5.495
 6871TIP3    H220557   5.729   2.617   5.495
 6872TIP3   OH220558   1.323   4.923   0.662
 6872TIP3    H120559   1.282   4.858   0.605
 6872TIP3    H220560   1.261   4.996   0.665
 6873TIP3   OH220561   3.848   2.170   1.083
 6873TIP3    H120562   3.853   2.106   1.012
 6873TIP3    H220563   3.820   2.119   1.159
 6874TIP3   OH220564   3.234   0.127   6.468
 6874TIP3    H120565   3.272   0.043   6.442
 6874TIP3    H220566   3.284   0.152   6.546
 6875TIP3   OH220567   5.604   0.482   2.423
 6875TIP3    H120568   5.695   0.511   2.430
 6875TIP3    H220569   5.552   0.560   2.443
 6876TIP3   OH220570   7.607   4.607   0.309
 6876TIP3    H120571   7.689   4.588   0.355
 6876TIP3    H220572   7.633   4.667   0.239
 6877TIP3   OH220573   5.232   3.190   2.247
 6877TIP3    H120574   5.298   3.144   2.196
 6877TIP3    H220575   5.149   3.151   2.220
 6878TIP3   OH220576   5.060   7.304   5.180
 6878TIP3    H120577   4.974   7.289   5.219
 6878TIP3    H220578   5.111   7.346   5.249
 6879TIP3   OH220579   3.383   4.767   1.285
 6879TIP3    H120580   3.409   4.718   1.362
 6879TIP3    H220581   3.287   4.763   1.285
 6880TIP3   OH220582   2.929   5.161   4.806
 6880TIP3    H120583   2.855   5.119   4.849
 6880TIP3    H220584   2.986   5.088   4.780
 6881TIP3   OH220585   0.930   2.598   4.704
 6881TIP3    H120586   0.930   2.558   4.618
 6881TIP3    H220587   0.906   2.528   4.764
 6882TIP3   OH220588   3.436   2.331   2.428
 6882TIP3    H120589   3.401   2.418   2.445
 6882TIP3    H220590   3.522   2.331   2.471
 6883TIP3   OH220591   5.018   4.207   6.506
 6883TIP3    H120592   4.972   4.129   6.477
 6883TIP3    H220593   5.025   4.196   6.601
 6884TIP3   OH220594   5.162   0.822   6.360
 6884TIP3    H120595   5.145   0.746   6.416
 6884TIP3    H220596   5.207   0.787   6.284
 6885TIP3   OH220597   7.396   1.527   5.494
 6885TIP3    H120598   7.441   1.606   5.466
 6885TIP3    H220599   7.462   1.477   5.542
 6886TIP3   OH220600   6.822   2.935   4.648
 6886TIP3    H120601   6.840   2.990   4.725
 6886TIP3    H220602   6.907   2.900   4.623
 6887TIP3   OH220603   4.433   5.339   6.216
 6887TIP3    H120604   4.462   5.277   6.282
 6887TIP3    H220605   4.354   5.379   6.252
 6888TIP3   OH220606   5.253   6.329   1.128
 6888TIP3    H120607   5.182   6.374   1.083
 6888TIP3    H220608   5.300   6.283   1.059
 6889TIP3   OH220609   3.884   4.292   3.415
 6889TIP3    H120610   3.962   4.266   3.364
 6889TIP3    H220611   3.810   4.256   3.366
 6890TIP3   OH220612   5.570   6.304   2.361
 6890TIP3    H120613   5.585   6.308   2.455
 6890TIP3    H220614   5.634   6.365   2.324
 6891TIP3   OH220615   1.129   5.721   5.103
 6891TIP3    H120616   1.117   5.796   5.161
 6891TIP3    H220617   1.101   5.645   5.155
 6892TIP3   OH220618   7.348   2.120   3.934
 6892TIP3    H120619   7.389   2.059   3.874
 6892TIP3    H220620   7.405   2.197   3.934
 6893TIP3   OH220621   0.243   4.260   2.920
 6893TIP3    H120622   0.315   4.254   2.982
 6893TIP3    H220623   0.170   4.217   2.965
 6894TIP3   OH220624   8.142   0.039   2.925
 6894TIP3    H120625   8.087   0.065   2.850
 6894TIP3    H220626   8.092   0.066   3.002
 6895TIP3   OH220627   3.778   2.809   3.503
 6895TIP3    H120628   3.803   2.772   3.419
 6895TIP3    H220629   3.812   2.747   3.568
 6896TIP3   OH220630   1.168   7.429   6.789
 6896TIP3    H120631   1.258   7.415   6.819
 6896TIP3    H220632   1.162   7.523   6.774
 6897TIP3   OH220633   6.004   7.046   0.146
 6897TIP3    H120634   6.031   7.017   0.059
 6897TIP3    H220635   5.922   6.999   0.162
 6898TIP3   OH220636   6.615   2.689   6.095
 6898TIP3    H120637   6.578   2.771   6.126
 6898TIP3    H220638   6.673   2.660   6.165
 6899TIP3   OH220639   6.807   0.622   2.141
 6899TIP3    H120640   6.785   0.663   2.225
 6899TIP3    H220641   6.876   0.678   2.105
 6900TIP3   OH220642   4.733   1.513   6.321
 6900TIP3    H120643   4.719   1.523   6.226
 6900TIP3    H220644   4.667   1.448   6.347
 6901TIP3   OH220645   5.265   6.286   0.488
 6901TIP3    H120646   5.316   6.223   0.539
 6901TIP3    H220647   5.184   6.298   0.538
 6902TIP3   OH220648   0.825   5.287   2.650
 6902TIP3    H120649   0.775   5.224   2.597
 6902TIP3    H220650   0.872   5.340   2.586
 6903TIP3   OH220651   2.722   5.953   2.496
 6903TIP3    H120652   2.675   5.890   2.550
 6903TIP3    H220653   2.657   6.018   2.472
 6904TIP3   OH220654   0.083   5.336  -0.017
 6904TIP3    H120655   0.050   5.256  -0.059
 6904TIP3    H220656   0.168   5.311   0.018
 6905TIP3   OH220657   5.312   3.431   0.762
 6905TIP3    H120658   5.346   3.516   0.792
 6905TIP3    H220659   5.241   3.410   0.823
 6906TIP3   OH220660   0.561   0.312   3.107
 6906TIP3    H120661   0.541   0.386   3.164
 6906TIP3    H220662   0.514   0.238   3.146
 6907TIP3   OH220663   7.392   3.261   0.610
 6907TIP3    H120664   7.486   3.242   0.600
 6907TIP3    H220665   7.389   3.328   0.678
 6908TIP3   OH220666   0.117   5.111   0.787
 6908TIP3    H120667   0.094   5.166   0.861
 6908TIP3    H220668   0.079   5.154   0.711
 6909TIP3   OH220669   7.988   4.592   1.484
 6909TIP3    H120670   8.032   4.508   1.495
 6909TIP3    H220671   7.966   4.596   1.391
 6910TIP3   OH220672   5.667   5.445   2.285
 6910TIP3    H120673   5.656   5.539   2.296
 6910TIP3    H220674   5.596   5.407   2.338
 6911TIP3   OH220675   7.760   3.005   1.461
 6911TIP3    H120676   7.782   3.050   1.542
 6911TIP3    H220677   7.795   2.916   1.472
 6912TIP3   OH220678   3.523   3.700   3.741
 6912TIP3    H120679   3.505   3.607   3.758
 6912TIP3    H220680   3.618   3.705   3.737
 6913TIP3   OH220681   6.735   5.663   6.566
 6913TIP3    H120682   6.678   5.598   6.523
 6913TIP3    H220683   6.804   5.611   6.607
 6914TIP3   OH220684   4.828   4.025   0.265
 6914TIP3    H120685   4.760   3.994   0.326
 6914TIP3    H220686   4.789   4.014   0.178
 6915TIP3   OH220687   4.698   6.500   3.782
 6915TIP3    H120688   4.709   6.466   3.871
 6915TIP3    H220689   4.613   6.464   3.754
 6916TIP3   OH220690   6.233   3.325   2.152
 6916TIP3    H120691   6.225   3.372   2.235
 6916TIP3    H220692   6.298   3.374   2.102
 6917TIP3   OH220693   7.401   3.711   3.750
 6917TIP3    H120694   7.430   3.770   3.681
 6917TIP3    H220695   7.469   3.718   3.818
 6918TIP3   OH220696   2.205   2.149   5.148
 6918TIP3    H120697   2.206   2.073   5.207
 6918TIP3    H220698   2.219   2.111   5.061
 6919TIP3   OH220699   5.960   4.274   5.989
 6919TIP3    H120700   5.901   4.294   5.916
 6919TIP3    H220701   5.912   4.301   6.067
 6920TIP3   OH220702   0.633   7.156   0.946
 6920TIP3    H120703   0.598   7.092   1.007
 6920TIP3    H220704   0.719   7.121   0.920
 6921TIP3   OH220705   1.368   3.585   2.628
 6921TIP3    H120706   1.415   3.611   2.707
 6921TIP3    H220707   1.277   3.607   2.646
 6922TIP3   OH220708   7.881   7.732   3.477
 6922TIP3    H120709   7.793   7.732   3.514
 6922TIP3    H220710   7.893   7.642   3.444
 6923TIP3   OH220711   2.051   3.543   1.892
 6923TIP3    H120712   1.987   3.585   1.834
 6923TIP3    H220713   2.136   3.571   1.858
 6924TIP3   OH220714   1.096   0.502   2.049
 6924TIP3    H120715   1.114   0.558   2.125
 6924TIP3    H220716   1.173   0.512   1.993
 6925TIP3   OH220717   0.662   5.187   3.080
 6925TIP3    H120718   0.600   5.185   3.152
 6925TIP3    H220719   0.611   5.213   3.004
 6926TIP3   OH220720   2.432   7.135   2.251
 6926TIP3    H120721   2.366   7.201   2.230
 6926TIP3    H220722   2.493   7.179   2.310
 6927TIP3   OH220723   1.464   2.721   0.150
 6927TIP3    H120724   1.531   2.664   0.188
 6927TIP3    H220725   1.461   2.797   0.208
 6928TIP3   OH220726   5.843   1.329   3.515
 6928TIP3    H120727   5.854   1.301   3.606
 6928TIP3    H220728   5.850   1.424   3.518
 6929TIP3   OH220729   4.424   2.613   2.916
 6929TIP3    H120730   4.395   2.611   3.007
 6929TIP3    H220731   4.467   2.698   2.907
 6930TIP3   OH220732   3.970   2.282   6.233
 6930TIP3    H120733   3.929   2.197   6.218
 6930TIP3    H220734   3.989   2.315   6.145
 6931TIP3   OH220735   0.142   5.934   4.448
 6931TIP3    H120736   0.071   5.884   4.490
 6931TIP3    H220737   0.111   5.949   4.359
 6932TIP3   OH220738   2.721   6.315   1.948
 6932TIP3    H120739   2.761   6.402   1.943
 6932TIP3    H220740   2.627   6.332   1.948
 6933TIP3   OH220741   7.297   0.098   4.715
 6933TIP3    H120742   7.328   0.141   4.795
 6933TIP3    H220743   7.256   0.169   4.665
 6934TIP3   OH220744   4.372   0.582   0.680
 6934TIP3    H120745   4.387   0.535   0.598
 6934TIP3    H220746   4.459   0.590   0.719
 6935TIP3   OH220747   3.746   6.178   2.748
 6935TIP3    H120748   3.777   6.103   2.699
 6935TIP3    H220749   3.715   6.142   2.831
 6936TIP3   OH220750   4.415   6.685   3.993
 6936TIP3    H120751   4.505   6.653   3.991
 6936TIP3    H220752   4.361   6.606   3.993
 6937TIP3   OH220753   5.596   7.083   0.676
 6937TIP3    H120754   5.613   6.990   0.664
 6937TIP3    H220755   5.680   7.120   0.704
 6938TIP3   OH220756   2.191   0.851   5.294
 6938TIP3    H120757   2.256   0.919   5.279
 6938TIP3    H220758   2.130   0.860   5.221
 6939TIP3   OH220759   4.084   6.442   6.084
 6939TIP3    H120760   4.128   6.396   6.155
 6939TIP3    H220761   4.115   6.399   6.005
 6940TIP3   OH220762   7.724   2.493   4.187
 6940TIP3    H120763   7.779   2.548   4.132
 6940TIP3    H220764   7.662   2.452   4.126
 6941TIP3   OH220765   1.442   0.507   2.167
 6941TIP3    H120766   1.392   0.559   2.230
 6941TIP3    H220767   1.487   0.572   2.113
 6942TIP3   OH220768   3.515   6.807   6.711
 6942TIP3    H120769   3.553   6.893   6.692
 6942TIP3    H220770   3.564   6.746   6.655
 6943TIP3   OH220771   6.748   2.369   5.688
 6943TIP3    H120772   6.767   2.448   5.738
 6943TIP3    H220773   6.753   2.396   5.597
 6944TIP3   OH220774   0.217   7.501   2.710
 6944TIP3    H120775   0.222   7.522   2.803
 6944TIP3    H220776   0.254   7.577   2.665
 6945TIP3   OH220777   2.994   4.192   2.749
 6945TIP3    H120778   2.956   4.275   2.721
 6945TIP3    H220779   2.974   4.131   2.678
 6946TIP3   OH220780   3.544   6.725   4.962
 6946TIP3    H120781   3.624   6.722   4.909
 6946TIP3    H220782   3.517   6.817   4.961
 6947TIP3   OH220783   6.236   0.173   5.397
 6947TIP3    H120784   6.204   0.177   5.487
 6947TIP3    H220785   6.332   0.172   5.405
 6948TIP3   OH220786   5.623   5.376   2.026
 6948TIP3    H120787   5.636   5.460   1.983
 6948TIP3    H220788   5.634   5.395   2.119
 6949TIP3   OH220789   2.853   3.989   2.150
 6949TIP3    H120790   2.941   4.015   2.122
 6949TIP3    H220791   2.859   3.895   2.167
 6950TIP3   OH220792   5.587   3.005   5.219
 6950TIP3    H120793   5.515   2.950   5.248
 6950TIP3    H220794   5.651   2.944   5.182
 6951TIP3   OH220795   3.413   6.302   2.269
 6951TIP3    H120796   3.412   6.276   2.361
 6951TIP3    H220797   3.500   6.337   2.255
 6952TIP3   OH220798   1.505   7.753   3.496
 6952TIP3    H120799   1.588   7.744   3.448
 6952TIP3    H220800   1.511   7.837   3.540
 6953TIP3   OH220801   2.187   4.643   5.629
 6953TIP3    H120802   2.197   4.732   5.663
 6953TIP3    H220803   2.189   4.587   5.706
 6954TIP3   OH220804   3.073   5.391   4.189
 6954TIP3    H120805   3.021   5.468   4.207
 6954TIP3    H220806   3.159   5.410   4.227
 6955TIP3   OH220807   4.557   4.655   0.494
 6955TIP3    H120808   4.596   4.742   0.480
 6955TIP3    H220809   4.500   4.642   0.418
 6956TIP3   OH220810   0.966   3.400   6.216
 6956TIP3    H120811   0.995   3.485   6.183
 6956TIP3    H220812   1.003   3.336   6.155
 6957TIP3   OH220813   5.909   5.797   1.938
 6957TIP3    H120814   5.894   5.860   2.009
 6957TIP3    H220815   6.001   5.772   1.948
 6958TIP3   OH220816   6.039   1.692   4.680
 6958TIP3    H120817   5.959   1.709   4.630
 6958TIP3    H220818   6.094   1.641   4.621
 6959TIP3   OH220819   6.836   6.621   4.690
 6959TIP3    H120820   6.780   6.611   4.613
 6959TIP3    H220821   6.816   6.544   4.744
 6960TIP3   OH220822   6.568   4.090   1.713
 6960TIP3    H120823   6.539   4.181   1.709
 6960TIP3    H220824   6.654   4.094   1.756
 6961TIP3   OH220825   7.283   0.041   2.483
 6961TIP3    H120826   7.298   0.059   2.576
 6961TIP3    H220827   7.254  -0.050   2.481
 6962TIP3   OH220828   5.262   1.678   4.425
 6962TIP3    H120829   5.196   1.612   4.445
 6962TIP3    H220830   5.334   1.659   4.486
 6963TIP3   OH220831   4.445   3.018   0.368
 6963TIP3    H120832   4.405   3.008   0.281
 6963TIP3    H220833   4.477   2.930   0.389
 6964TIP3   OH220834   1.616   7.825   1.008
 6964TIP3    H120835   1.652   7.840   1.096
 6964TIP3    H220836   1.690   7.793   0.957
 6965TIP3   OH220837   7.735   6.797   1.615
 6965TIP3    H120838   7.800   6.773   1.680
 6965TIP3    H220839   7.777   6.865   1.562
 6966TIP3   OH220840   4.051   7.617   5.827
 6966TIP3    H120841   4.021   7.530   5.801
 6966TIP3    H220842   4.089   7.605   5.914
 6967TIP3   OH220843   6.136   5.507   0.191
 6967TIP3    H120844   6.058   5.457   0.214
 6967TIP3    H220845   6.126   5.589   0.239
 6968TIP3   OH220846   3.729   5.154   0.437
 6968TIP3    H120847   3.774   5.076   0.469
 6968TIP3    H220848   3.715   5.136   0.344
 6969TIP3   OH220849   3.613   2.631   6.705
 6969TIP3    H120850   3.651   2.544   6.693
 6969TIP3    H220851   3.657   2.685   6.640
 6970TIP3   OH220852   7.758   5.747   0.252
 6970TIP3    H120853   7.666   5.748   0.227
 6970TIP3    H220854   7.783   5.840   0.256
 6971TIP3   OH220855   7.687   6.954   3.717
 6971TIP3    H120856   7.661   6.977   3.628
 6971TIP3    H220857   7.781   6.975   3.720
 6972TIP3   OH220858   2.946   0.440   0.628
 6972TIP3    H120859   2.887   0.431   0.554
 6972TIP3    H220860   3.018   0.494   0.595
 6973TIP3   OH220861   1.013   1.353   4.911
 6973TIP3    H120862   1.080   1.407   4.868
 6973TIP3    H220863   0.996   1.398   4.994
 6974TIP3   OH220864   0.858   0.315   2.423
 6974TIP3    H120865   0.842   0.375   2.496
 6974TIP3    H220866   0.861   0.228   2.465
 6975TIP3   OH220867   7.687   6.245   3.162
 6975TIP3    H120868   7.704   6.194   3.241
 6975TIP3    H220869   7.773   6.276   3.134
 6976TIP3   OH220870   2.614   2.745   5.166
 6976TIP3    H120871   2.699   2.739   5.210
 6976TIP3    H220872   2.550   2.754   5.236
 6977TIP3   OH220873   3.690   3.467   4.512
 6977TIP3    H120874   3.605   3.463   4.467
 6977TIP3    H220875   3.755   3.455   4.442
 6978TIP3   OH220876   0.508   6.370   5.314
 6978TIP3    H120877   0.590   6.394   5.357
 6978TIP3    H220878   0.454   6.449   5.320
 6979TIP3   OH220879   7.264   1.510   5.763
 6979TIP3    H120880   7.331   1.543   5.823
 6979TIP3    H220881   7.287   1.548   5.678
 6980TIP3   OH220882   6.942   7.696   0.803
 6980TIP3    H120883   6.946   7.610   0.846
 6980TIP3    H220884   6.852   7.701   0.769
 6981TIP3   OH220885   4.012   6.776   3.739
 6981TIP3    H120886   4.106   6.790   3.749
 6981TIP3    H220887   3.992   6.707   3.802
 6982TIP3   OH220888   0.951   1.074   0.338
 6982TIP3    H120889   0.901   0.997   0.312
 6982TIP3    H220890   1.020   1.040   0.396
 6983TIP3   OH220891   5.261   4.265  -0.040
 6983TIP3    H120892   5.280   4.305   0.045
 6983TIP3    H220893   5.346   4.239  -0.074
 6984TIP3   OH220894   6.262   0.631   1.963
 6984TIP3    H120895   6.340   0.578   1.949
 6984TIP3    H220896   6.295   0.721   1.963
 6985TIP3   OH220897   6.871   0.998   1.072
 6985TIP3    H120898   6.891   1.087   1.100
 6985TIP3    H220899   6.850   1.005   0.979
 6986TIP3   OH220900   0.813   2.764   6.120
 6986TIP3    H120901   0.881   2.830   6.135
 6986TIP3    H220902   0.733   2.805   6.151
 6987TIP3   OH220903   8.220   4.024   2.530
 6987TIP3    H120904   8.266   4.030   2.447
 6987TIP3    H220905   8.287   4.041   2.596
 6988TIP3   OH220906   3.771   3.275   5.751
 6988TIP3    H120907   3.817   3.262   5.834
 6988TIP3    H220908   3.721   3.356   5.764
 6989TIP3   OH220909   2.646   3.085   3.778
 6989TIP3    H120910   2.671   2.993   3.769
 6989TIP3    H220911   2.596   3.104   3.698
 6990TIP3   OH220912   0.112   4.088   0.119
 6990TIP3    H120913   0.134   4.039   0.198
 6990TIP3    H220914   0.028   4.128   0.139
 6991TIP3   OH220915   5.382   2.561   2.324
 6991TIP3    H120916   5.320   2.630   2.301
 6991TIP3    H220917   5.385   2.563   2.419
 6992TIP3   OH220918   6.573   6.105   5.776
 6992TIP3    H120919   6.655   6.091   5.824
 6992TIP3    H220920   6.510   6.049   5.821
 6993TIP3   OH220921   1.922   2.502   6.510
 6993TIP3    H120922   1.998   2.522   6.565
 6993TIP3    H220923   1.876   2.433   6.556
 6994TIP3   OH220924   1.077   5.432   4.269
 6994TIP3    H120925   1.024   5.428   4.190
 6994TIP3    H220926   1.145   5.366   4.256
 6995TIP3   OH220927   5.688   7.563   4.457
 6995TIP3    H120928   5.720   7.473   4.451
 6995TIP3    H220929   5.593   7.555   4.460
 6996TIP3   OH220930   7.263   1.271   2.324
 6996TIP3    H120931   7.207   1.196   2.345
 6996TIP3    H220932   7.205   1.347   2.335
 6997TIP3   OH220933   7.381   1.455   3.968
 6997TIP3    H120934   7.434   1.393   4.018
 6997TIP3    H220935   7.342   1.512   4.034
 6998TIP3   OH220936   7.971   0.720   1.877
 6998TIP3    H120937   7.959   0.681   1.964
 6998TIP3    H220938   8.061   0.701   1.853
 6999TIP3   OH220939   5.584   0.398   5.061
 6999TIP3    H120940   5.544   0.325   5.014
 6999TIP3    H220941   5.543   0.396   5.147
 7000TIP3   OH220942   7.683   2.241   1.485
 7000TIP3    H120943   7.634   2.188   1.423
 7000TIP3    H220944   7.650   2.330   1.472
 7001TIP3   OH220945   1.791   0.236   1.756
 7001TIP3    H120946   1.813   0.305   1.818
 7001TIP3    H220947   1.815   0.155   1.799
 7002TIP3   OH220948   2.225   0.909   4.334
 7002TIP3    H120949   2.293   0.962   4.376
 7002TIP3    H220950   2.270   0.828   4.310
 7003TIP3   OH220951   0.032   4.572   0.383
 7003TIP3    H120952   0.005   4.607   0.468
 7003TIP3    H220953   0.108   4.626   0.358
 7004TIP3   OH220954   4.068   0.367   6.742
 7004TIP3    H120955   4.084   0.303   6.811
 7004TIP3    H220956   4.153   0.378   6.699
 7005TIP3   OH220957   6.564   5.484   6.361
 7005TIP3    H120958   6.644   5.441   6.331
 7005TIP3    H220959   6.508   5.413   6.392
 7006TIP3   OH220960   4.819   2.684   4.849
 7006TIP3    H120961   4.846   2.670   4.940
 7006TIP3    H220962   4.724   2.682   4.852
 7007TIP3   OH220963   7.356   6.532   5.260
 7007TIP3    H120964   7.290   6.497   5.200
 7007TIP3    H220965   7.305   6.574   5.329
 7008TIP3   OH220966   6.875   1.075   5.205
 7008TIP3    H120967   6.913   1.122   5.131
 7008TIP3    H220968   6.871   1.139   5.276
 7009TIP3   OH220969   2.326   5.530   0.428
 7009TIP3    H120970   2.305   5.447   0.472
 7009TIP3    H220971   2.351   5.504   0.339
 7010TIP3   OH220972   4.262   0.661   4.144
 7010TIP3    H120973   4.317   0.623   4.075
 7010TIP3    H220974   4.323   0.679   4.215
 7011TIP3   OH220975   4.165   7.732   3.611
 7011TIP3    H120976   4.122   7.647   3.615
 7011TIP3    H220977   4.134   7.772   3.530
 7012TIP3   OH220978   0.300   4.621   6.164
 7012TIP3    H120979   0.338   4.695   6.117
 7012TIP3    H220980   0.358   4.547   6.143
 7013TIP3   OH220981   7.912   5.242   0.629
 7013TIP3    H120982   7.861   5.275   0.702
 7013TIP3    H220983   7.973   5.312   0.608
 7014TIP3   OH220984   2.482   7.418   3.375
 7014TIP3    H120985   2.414   7.471   3.333
 7014TIP3    H220986   2.564   7.453   3.340
 7015TIP3   OH220987   1.853   5.074   3.179
 7015TIP3    H120988   1.816   5.144   3.125
 7015TIP3    H220989   1.845   5.106   3.269
 7016TIP3   OH220990   1.157   0.177   2.736
 7016TIP3    H120991   1.224   0.243   2.751
 7016TIP3    H220992   1.203   0.093   2.740
 7017TIP3   OH220993   7.401   5.649   4.284
 7017TIP3    H120994   7.370   5.568   4.243
 7017TIP3    H220995   7.323   5.688   4.322
 7018TIP3   OH220996   5.928   6.369   5.643
 7018TIP3    H120997   5.899   6.310   5.574
 7018TIP3    H220998   6.020   6.348   5.657
 7019TIP3   OH220999   0.269   6.924   0.780
 7019TIP3    H121000   0.267   6.920   0.875
 7019TIP3    H221001   0.356   6.957   0.759
 7020TIP3   OH221002   1.556   5.854   1.091
 7020TIP3    H121003   1.639   5.823   1.128
 7020TIP3    H221004   1.582   5.920   1.027
 7021TIP3   OH221005   2.699   0.880   3.565
 7021TIP3    H121006   2.710   0.971   3.538
 7021TIP3    H221007   2.659   0.837   3.489
 7022TIP3   OH221008   6.911   5.134   6.740
 7022TIP3    H121009   6.952   5.102   6.820
 7022TIP3    H221010   6.977   5.191   6.701
 7023TIP3   OH221011   3.022   7.783   1.409
 7023TIP3    H121012   3.108   7.808   1.443
 7023TIP3    H221013   2.999   7.852   1.347
 7024TIP3   OH221014   7.378   5.498   1.017
 7024TIP3    H121015   7.473   5.486   1.024
 7024TIP3    H221016   7.364   5.534   0.930
 7025TIP3   OH221017   2.085   0.882   3.898
 7025TIP3    H121018   2.088   0.930   3.981
 7025TIP3    H221019   2.120   0.795   3.919
 7026TIP3   OH221020   7.293   6.305   3.744
 7026TIP3    H121021   7.259   6.360   3.815
 7026TIP3    H221022   7.303   6.364   3.670
 7027TIP3   OH221023   5.367   4.504   1.197
 7027TIP3    H121024   5.300   4.495   1.265
 7027TIP3    H221025   5.332   4.572   1.138
 7028TIP3   OH221026   5.914   4.261   2.933
 7028TIP3    H121027   5.941   4.209   2.857
 7028TIP3    H221028   5.915   4.199   3.006
 7029TIP3   OH221029   0.883   7.272   0.105
 7029TIP3    H121030   0.810   7.230   0.059
 7029TIP3    H221031   0.848   7.356   0.134
 7030TIP3   OH221032   2.834   5.747   1.274
 7030TIP3    H121033   2.819   5.836   1.307
 7030TIP3    H221034   2.765   5.733   1.209
 7031TIP3   OH221035   2.105   5.998   6.550
 7031TIP3    H121036   2.125   6.071   6.609
 7031TIP3    H221037   2.189   5.957   6.533
 7032TIP3   OH221038   3.323   2.168   0.436
 7032TIP3    H121039   3.252   2.111   0.405
 7032TIP3    H221040   3.393   2.109   0.462
 7033TIP3   OH221041   6.648   0.930   5.199
 7033TIP3    H121042   6.681   0.873   5.268
 7033TIP3    H221043   6.715   0.998   5.190
 7034TIP3   OH221044   3.257   0.048   5.771
 7034TIP3    H121045   3.272  -0.035   5.725
 7034TIP3    H221046   3.344   0.078   5.795
 7035TIP3   OH221047   4.007   0.265   1.046
 7035TIP3    H121048   4.007   0.272   1.141
 7035TIP3    H221049   4.051   0.183   1.028
 7036TIP3   OH221050   4.582   6.298   0.011
 7036TIP3    H121051   4.676   6.288   0.026
 7036TIP3    H221052   4.541   6.261   0.089
 7037TIP3   OH221053   1.986   6.113   3.727
 7037TIP3    H121054   2.016   6.184   3.670
 7037TIP3    H221055   1.893   6.105   3.709
 7038TIP3   OH221056   6.102   0.317   4.346
 7038TIP3    H121057   6.176   0.273   4.304
 7038TIP3    H221058   6.131   0.331   4.436
 7039TIP3   OH221059   0.740   2.881   1.485
 7039TIP3    H121060   0.698   2.967   1.478
 7039TIP3    H221061   0.738   2.861   1.579
 7040TIP3   OH221062   0.423   2.131   2.723
 7040TIP3    H121063   0.397   2.198   2.660
 7040TIP3    H221064   0.489   2.173   2.777
 7041TIP3   OH221065   5.691   4.642   5.981
 7041TIP3    H121066   5.767   4.687   5.945
 7041TIP3    H221067   5.697   4.656   6.075
 7042TIP3   OH221068   1.239   4.484   1.688
 7042TIP3    H121069   1.248   4.559   1.747
 7042TIP3    H221070   1.158   4.442   1.715
 7043TIP3   OH221071   1.023   2.310   4.165
 7043TIP3    H121072   1.038   2.384   4.106
 7043TIP3    H221073   0.932   2.285   4.149
 7044TIP3   OH221074   4.308   2.907   4.413
 7044TIP3    H121075   4.264   2.980   4.370
 7044TIP3    H221076   4.293   2.832   4.355
 7045TIP3   OH221077   3.829   6.380   1.174
 7045TIP3    H121078   3.923   6.379   1.190
 7045TIP3    H221079   3.819   6.404   1.082
 7046TIP3   OH221080   3.298   3.732   4.211
 7046TIP3    H121081   3.217   3.716   4.259
 7046TIP3    H221082   3.302   3.662   4.146
 7047TIP3   OH221083   4.416   7.646   3.495
 7047TIP3    H121084   4.321   7.646   3.510
 7047TIP3    H221085   4.427   7.602   3.410
 7048TIP3   OH221086   4.299   1.895   5.545
 7048TIP3    H121087   4.227   1.921   5.601
 7048TIP3    H221088   4.305   1.800   5.555
 7049TIP3   OH221089   6.390   3.074   2.114
 7049TIP3    H121090   6.342   3.132   2.172
 7049TIP3    H221091   6.473   3.057   2.158
 7050TIP3   OH221092   7.897   2.424   4.654
 7050TIP3    H121093   7.855   2.384   4.730
 7050TIP3    H221094   7.866   2.514   4.653
 7051TIP3   OH221095   0.482   4.182   3.600
 7051TIP3    H121096   0.458   4.218   3.685
 7051TIP3    H221097   0.416   4.215   3.539
 7052TIP3   OH221098   2.292   5.875   2.541
 7052TIP3    H121099   2.251   5.939   2.600
 7052TIP3    H221100   2.223   5.854   2.477
 7053TIP3   OH221101   3.550   7.674   4.900
 7053TIP3    H121102   3.603   7.617   4.956
 7053TIP3    H221103   3.465   7.678   4.944
 7054TIP3   OH221104   7.764   1.436   1.357
 7054TIP3    H121105   7.706   1.435   1.433
 7054TIP3    H221106   7.720   1.491   1.293
 7055TIP3   OH221107   7.833   2.615   6.624
 7055TIP3    H121108   7.824   2.698   6.670
 7055TIP3    H221109   7.796   2.550   6.684
 7056TIP3   OH221110   6.864   1.200   3.401
 7056TIP3    H121111   6.939   1.220   3.344
 7056TIP3    H221112   6.834   1.285   3.432
 7057TIP3   OH221113   4.571   6.542   1.029
 7057TIP3    H121114   4.530   6.596   0.961
 7057TIP3    H221115   4.644   6.596   1.061
 7058TIP3   OH221116   5.955   6.209   6.550
 7058TIP3    H121117   5.988   6.251   6.630
 7058TIP3    H221118   5.934   6.282   6.492
 7059TIP3   OH221119   7.960   4.966   0.645
 7059TIP3    H121120   8.055   4.977   0.640
 7059TIP3    H221121   7.925   5.047   0.608
 7060TIP3   OH221122   2.983   2.495   6.383
 7060TIP3    H121123   3.074   2.497   6.355
 7060TIP3    H221124   2.976   2.566   6.446
 7061TIP3   OH221125   2.789   1.860   5.990
 7061TIP3    H121126   2.804   1.895   6.078
 7061TIP3    H221127   2.861   1.896   5.938
 7062TIP3   OH221128   2.910   1.140   6.496
 7062TIP3    H121129   2.853   1.118   6.422
 7062TIP3    H221130   2.968   1.064   6.506
 7063TIP3   OH221131   4.554   4.674   2.258
 7063TIP3    H121132   4.548   4.769   2.250
 7063TIP3    H221133   4.648   4.656   2.257
 7064TIP3   OH221134   3.500   0.506   3.535
 7064TIP3    H121135   3.557   0.564   3.485
 7064TIP3    H221136   3.449   0.565   3.590
 7065TIP3   OH221137   0.478   2.528   6.351
 7065TIP3    H121138   0.389   2.553   6.378
 7065TIP3    H221139   0.514   2.607   6.311
 7066TIP3   OH221140   4.987   1.056   5.290
 7066TIP3    H121141   4.976   1.133   5.345
 7066TIP3    H221142   5.076   1.025   5.309
 7067TIP3   OH221143   5.568   2.282   5.581
 7067TIP3    H121144   5.499   2.223   5.550
 7067TIP3    H221145   5.614   2.232   5.648
 7068TIP3   OH221146   6.322   2.418   5.117
 7068TIP3    H121147   6.230   2.396   5.132
 7068TIP3    H221148   6.360   2.423   5.205
 7069TIP3   OH221149   5.098   2.666   1.043
 7069TIP3    H121150   5.084   2.612   1.121
 7069TIP3    H221151   5.177   2.716   1.062
 7070TIP3   OH221152   3.089   3.167   3.808
 7070TIP3    H121153   3.128   3.089   3.845
 7070TIP3    H221154   3.104   3.159   3.714
 7071TIP3   OH221155   8.101   2.429   1.458
 7071TIP3    H121156   8.082   2.407   1.549
 7071TIP3    H221157   8.193   2.403   1.445
 7072TIP3   OH221158   5.402   1.765   0.032
 7072TIP3    H121159   5.337   1.769   0.103
 7072TIP3    H221160   5.486   1.761   0.077
 7073TIP3   OH221161   7.393   1.850   3.214
 7073TIP3    H121162   7.309   1.867   3.172
 7073TIP3    H221163   7.374   1.857   3.308
 7074TIP3   OH221164   8.100   1.659   5.908
 7074TIP3    H121165   8.193   1.648   5.929
 7074TIP3    H221166   8.065   1.570   5.907
 7075TIP3   OH221167   0.679   3.842   4.638
 7075TIP3    H121168   0.742   3.856   4.567
 7075TIP3    H221169   0.730   3.800   4.707
 7076TIP3   OH221170   3.547   0.275   6.613
 7076TIP3    H121171   3.641   0.288   6.601
 7076TIP3    H221172   3.520   0.348   6.668
 7077TIP3   OH221173   3.139   7.270   5.675
 7077TIP3    H121174   3.094   7.346   5.639
 7077TIP3    H221175   3.177   7.225   5.600
 7078TIP3   OH221176   0.708   1.679   5.823
 7078TIP3    H121177   0.633   1.630   5.790
 7078TIP3    H221178   0.672   1.736   5.891
 7079TIP3   OH221179   5.417   0.082   0.914
 7079TIP3    H121180   5.456   0.165   0.943
 7079TIP3    H221181   5.400   0.034   0.995
 7080TIP3   OH221182   2.720   7.534   3.287
 7080TIP3    H121183   2.782   7.567   3.352
 7080TIP3    H221184   2.712   7.605   3.222
 7081TIP3   OH221185   5.811   6.208   5.447
 7081TIP3    H121186   5.728   6.174   5.479
 7081TIP3    H221187   5.833   6.152   5.373
 7082TIP3   OH221188   1.602   0.714   1.990
 7082TIP3    H121189   1.627   0.687   1.901
 7082TIP3    H221190   1.653   0.794   2.005
 7083TIP3   OH221191   6.082   6.382   1.864
 7083TIP3    H121192   6.086   6.457   1.923
 7083TIP3    H221193   6.031   6.316   1.912
 7084TIP3   OH221194   2.014   6.445   5.021
 7084TIP3    H121195   2.065   6.496   4.959
 7084TIP3    H221196   2.078   6.412   5.084
 7085TIP3   OH221197   0.295   2.339   3.715
 7085TIP3    H121198   0.365   2.273   3.713
 7085TIP3    H221199   0.339   2.419   3.742
 7086TIP3   OH221200   4.470   1.472   2.130
 7086TIP3    H121201   4.450   1.378   2.132
 7086TIP3    H221202   4.542   1.482   2.191
 7087TIP3   OH221203   2.270   7.174   5.954
 7087TIP3    H121204   2.348   7.168   5.897
 7087TIP3    H221205   2.290   7.117   6.028
 7088TIP3   OH221206   7.154   0.373   5.716
 7088TIP3    H121207   7.247   0.361   5.699
 7088TIP3    H221208   7.128   0.297   5.768
 7089TIP3   OH221209   6.928   5.320   4.019
 7089TIP3    H121210   6.996   5.252   4.020
 7089TIP3    H221211   6.945   5.371   3.940
 7090TIP3   OH221212   8.224   1.455   0.652
 7090TIP3    H121213   8.233   1.408   0.569
 7090TIP3    H221214   8.159   1.405   0.701
 7091TIP3   OH221215   2.084   7.737   1.643
 7091TIP3    H121216   1.990   7.743   1.659
 7091TIP3    H221217   2.097   7.775   1.557
 7092TIP3   OH221218   1.430   5.660   0.448
 7092TIP3    H121219   1.407   5.744   0.407
 7092TIP3    H221220   1.381   5.595   0.398
 7093TIP3   OH221221   1.980   5.579   0.360
 7093TIP3    H121222   1.983   5.502   0.416
 7093TIP3    H221223   1.972   5.545   0.271
 7094TIP3   OH221224   3.565   2.797   0.177
 7094TIP3    H121225   3.542   2.842   0.258
 7094TIP3    H221226   3.485   2.749   0.153
 7095TIP3   OH221227   1.955   2.177   2.181
 7095TIP3    H121228   1.878   2.233   2.183
 7095TIP3    H221229   2.020   2.229   2.134
 7096TIP3   OH221230   1.124   3.765   5.203
 7096TIP3    H121231   1.090   3.834   5.146
 7096TIP3    H221232   1.158   3.699   5.143
 7097TIP3   OH221233   0.067   7.153   5.871
 7097TIP3    H121234   0.015   7.175   5.793
 7097TIP3    H221235   0.145   7.207   5.863
 7098TIP3   OH221236   5.650   6.678   2.237
 7098TIP3    H121237   5.645   6.728   2.156
 7098TIP3    H221238   5.628   6.741   2.306
 7099TIP3   OH221239   4.294   6.877   1.320
 7099TIP3    H121240   4.262   6.832   1.242
 7099TIP3    H221241   4.260   6.966   1.312
 7100TIP3   OH221242   4.153   6.893   4.054
 7100TIP3    H121243   4.178   6.841   4.130
 7100TIP3    H221244   4.208   6.861   3.983
 7101TIP3   OH221245   2.925   6.813   3.484
 7101TIP3    H121246   2.900   6.782   3.570
 7101TIP3    H221247   3.020   6.816   3.486
 7102TIP3   OH221248   2.247   5.559   0.008
 7102TIP3    H121249   2.288   5.503   0.074
 7102TIP3    H221250   2.155   5.564   0.034
 7103TIP3   OH221251   2.044   2.094   2.795
 7103TIP3    H121252   1.983   2.038   2.746
 7103TIP3    H221253   2.014   2.183   2.777
 7104TIP3   OH221254   6.115   1.779   0.169
 7104TIP3    H121255   6.022   1.775   0.192
 7104TIP3    H221256   6.141   1.688   0.158
 7105TIP3   OH221257   1.797   1.652   3.852
 7105TIP3    H121258   1.768   1.670   3.941
 7105TIP3    H221259   1.844   1.731   3.825
 7106TIP3   OH221260   1.970   6.503   3.852
 7106TIP3    H121261   1.952   6.588   3.812
 7106TIP3    H221262   1.968   6.441   3.778
 7107TIP3   OH221263   7.945   3.538   1.424
 7107TIP3    H121264   7.867   3.494   1.458
 7107TIP3    H221265   7.932   3.630   1.444
 7108TIP3   OH221266   0.622   6.226   6.408
 7108TIP3    H121267   0.698   6.184   6.448
 7108TIP3    H221268   0.583   6.277   6.480
 7109TIP3   OH221269   1.958   3.361   3.426
 7109TIP3    H121270   1.906   3.430   3.385
 7109TIP3    H221271   2.010   3.325   3.355
 7110TIP3   OH221272   2.823   6.919   1.050
 7110TIP3    H121273   2.799   6.829   1.027
 7110TIP3    H221274   2.782   6.933   1.135
 7111TIP3   OH221275   2.650   4.294   1.843
 7111TIP3    H121276   2.654   4.213   1.893
 7111TIP3    H221277   2.739   4.306   1.810
 7112TIP3   OH221278   4.259   7.158   5.797
 7112TIP3    H121279   4.285   7.079   5.748
 7112TIP3    H221280   4.181   7.189   5.751
 7113TIP3   OH221281   0.857   6.796   3.985
 7113TIP3    H121282   0.912   6.814   4.061
 7113TIP3    H221283   0.843   6.701   3.989
 7114TIP3   OH221284   0.383   2.804   0.558
 7114TIP3    H121285   0.321   2.796   0.485
 7114TIP3    H221286   0.401   2.713   0.582
 7115TIP3   OH221287   4.149   7.146   4.356
 7115TIP3    H121288   4.093   7.073   4.381
 7115TIP3    H221289   4.150   7.204   4.432
 7116TIP3   OH221290   0.743   5.099   0.794
 7116TIP3    H121291   0.808   5.029   0.794
 7116TIP3    H221292   0.659   5.053   0.797
 7117TIP3   OH221293   7.932   5.594   6.299
 7117TIP3    H121294   7.921   5.673   6.351
 7117TIP3    H221295   8.006   5.549   6.339
 7118TIP3   OH221296   8.066   7.365   1.612
 7118TIP3    H121297   8.144   7.418   1.622
 7118TIP3    H221298   8.093   7.292   1.556
 7119TIP3   OH221299   0.383   4.158   0.084
 7119TIP3    H121300   0.302   4.112   0.106
 7119TIP3    H221301   0.446   4.129   0.150
 7120TIP3   OH221302   4.390   0.785   6.575
 7120TIP3    H121303   4.312   0.732   6.555
 7120TIP3    H221304   4.463   0.735   6.537
 7121TIP3   OH221305   5.939   2.975   2.323
 7121TIP3    H121306   5.884   2.904   2.289
 7121TIP3    H221307   5.910   3.052   2.275
 7122TIP3   OH221308   6.525   2.963   5.368
 7122TIP3    H121309   6.519   2.870   5.346
 7122TIP3    H221310   6.540   3.006   5.283
 7123TIP3   OH221311   5.076   6.473   1.661
 7123TIP3    H121312   5.026   6.533   1.716
 7123TIP3    H221313   5.021   6.460   1.584
 7124TIP3   OH221314   0.322   5.014   0.464
 7124TIP3    H121315   0.394   5.000   0.402
 7124TIP3    H221316   0.244   5.019   0.409
 7125TIP3   OH221317   4.252   2.008   0.157
 7125TIP3    H121318   4.308   2.051   0.221
 7125TIP3    H221319   4.266   2.057   0.076
 7126TIP3   OH221320   7.887   1.103   2.923
 7126TIP3    H121321   7.935   1.025   2.894
 7126TIP3    H221322   7.956   1.169   2.937
 7127TIP3   OH221323   4.253   4.967   2.672
 7127TIP3    H121324   4.295   4.891   2.632
 7127TIP3    H221325   4.161   4.942   2.679
 7128TIP3   OH221326   3.054   1.603   3.026
 7128TIP3    H121327   3.130   1.590   3.082
 7128TIP3    H221328   3.088   1.647   2.948
 7129TIP3   OH221329   4.989   5.590   3.773
 7129TIP3    H121330   4.946   5.519   3.820
 7129TIP3    H221331   5.021   5.649   3.841
 7130TIP3   OH221332   3.519   0.692   1.418
 7130TIP3    H121333   3.567   0.740   1.351
 7130TIP3    H221334   3.427   0.715   1.402
 7131TIP3   OH221335   5.097   1.563   3.633
 7131TIP3    H121336   5.003   1.578   3.649
 7131TIP3    H221337   5.136   1.565   3.720
 7132TIP3   OH221338   3.282   7.127   0.248
 7132TIP3    H121339   3.328   7.137   0.331
 7132TIP3    H221340   3.352   7.126   0.182
 7133TIP3   OH221341   4.157   2.594   1.961
 7133TIP3    H121342   4.239   2.635   1.935
 7133TIP3    H221343   4.147   2.520   1.901
 7134TIP3   OH221344   2.753   3.469   6.226
 7134TIP3    H121345   2.826   3.476   6.165
 7134TIP3    H221346   2.697   3.401   6.188
 7135TIP3   OH221347   2.027   1.934   2.358
 7135TIP3    H121348   2.048   1.966   2.446
 7135TIP3    H221349   1.993   2.010   2.312
 7136TIP3   OH221350   1.798   3.730   2.156
 7136TIP3    H121351   1.866   3.674   2.193
 7136TIP3    H221352   1.846   3.803   2.117
 7137TIP3   OH221353   6.500   0.105   2.841
 7137TIP3    H121354   6.578   0.059   2.809
 7137TIP3    H221355   6.535   0.175   2.896
 7138TIP3   OH221356   8.022   5.622   2.057
 7138TIP3    H121357   8.043   5.550   2.116
 7138TIP3    H221358   7.928   5.614   2.041
 7139TIP3   OH221359   3.559   6.639   0.352
 7139TIP3    H121360   3.623   6.612   0.418
 7139TIP3    H221361   3.543   6.561   0.300
 7140TIP3   OH221362   6.976   1.259   6.342
 7140TIP3    H121363   7.028   1.322   6.293
 7140TIP3    H221364   6.924   1.214   6.276
 7141TIP3   OH221365   2.409   7.767   0.841
 7141TIP3    H121366   2.376   7.762   0.930
 7141TIP3    H221367   2.480   7.831   0.844
 7142TIP3   OH221368   0.128   1.194   2.716
 7142TIP3    H121369   0.122   1.119   2.775
 7142TIP3    H221370   0.222   1.211   2.709
 7143TIP3   OH221371   1.347   5.943   5.197
 7143TIP3    H121372   1.252   5.939   5.208
 7143TIP3    H221373   1.363   6.032   5.163
 7144TIP3   OH221374   0.918   5.804   2.771
 7144TIP3    H121375   0.988   5.850   2.725
 7144TIP3    H221376   0.962   5.735   2.820
 7145TIP3   OH221377   4.508   3.143   4.450
 7145TIP3    H121378   4.499   3.141   4.545
 7145TIP3    H221379   4.494   3.052   4.423
 7146TIP3   OH221380   2.738   5.644   2.132
 7146TIP3    H121381   2.665   5.582   2.124
 7146TIP3    H221382   2.733   5.696   2.052
 7147TIP3   OH221383   6.576   7.505   6.252
 7147TIP3    H121384   6.546   7.471   6.168
 7147TIP3    H221385   6.499   7.548   6.290
 7148TIP3   OH221386   7.434   3.853   4.501
 7148TIP3    H121387   7.407   3.935   4.458
 7148TIP3    H221388   7.353   3.802   4.507
 7149TIP3   OH221389  -0.017   4.509   5.057
 7149TIP3    H121390   0.052   4.527   4.993
 7149TIP3    H221391   0.030   4.472   5.132
 7150TIP3   OH221392   8.047   3.692   1.885
 7150TIP3    H121393   8.139   3.718   1.887
 7150TIP3    H221394   8.017   3.704   1.975
 7151TIP3   OH221395   7.008   2.377   2.203
 7151TIP3    H121396   6.913   2.378   2.219
 7151TIP3    H221397   7.030   2.469   2.191
 7152TIP3   OH221398   4.412   0.891   5.926
 7152TIP3    H121399   4.460   0.885   6.008
 7152TIP3    H221400   4.476   0.870   5.858
 7153TIP3   OH221401   1.568   2.448   2.527
 7153TIP3    H121402   1.536   2.371   2.480
 7153TIP3    H221403   1.555   2.427   2.619
 7154TIP3   OH221404   5.750   2.832   4.873
 7154TIP3    H121405   5.725   2.906   4.929
 7154TIP3    H221406   5.839   2.855   4.843
 7155TIP3   OH221407   6.416   2.375   4.866
 7155TIP3    H121408   6.368   2.367   4.948
 7155TIP3    H221409   6.391   2.297   4.816
 7156TIP3   OH221410   0.220   3.598   3.652
 7156TIP3    H121411   0.183   3.511   3.665
 7156TIP3    H221412   0.232   3.605   3.557
 7157TIP3   OH221413   5.595   1.750   2.289
 7157TIP3    H121414   5.512   1.717   2.255
 7157TIP3    H221415   5.598   1.841   2.260
 7158TIP3   OH221416   3.711   1.198   2.501
 7158TIP3    H121417   3.788   1.155   2.537
 7158TIP3    H221418   3.676   1.136   2.436
 7159TIP3   OH221419   3.188   0.057   0.090
 7159TIP3    H121420   3.123   0.125   0.108
 7159TIP3    H221421   3.270   0.105   0.076
 7160TIP3   OH221422   3.349   6.626   5.267
 7160TIP3    H121423   3.255   6.605   5.267
 7160TIP3    H221424   3.352   6.720   5.248
 7161TIP3   OH221425   7.173   2.816   2.553
 7161TIP3    H121426   7.155   2.727   2.585
 7161TIP3    H221427   7.176   2.869   2.632
 7162TIP3   OH221428   6.285   0.410   0.999
 7162TIP3    H121429   6.237   0.327   0.998
 7162TIP3    H221430   6.373   0.387   1.029
 7163TIP3   OH221431   4.812   6.405   0.336
 7163TIP3    H121432   4.806   6.361   0.252
 7163TIP3    H221433   4.824   6.497   0.314
 7164TIP3   OH221434   8.192   1.476   4.839
 7164TIP3    H121435   8.169   1.519   4.757
 7164TIP3    H221436   8.117   1.491   4.897
 7165TIP3   OH221437   7.162   0.719   1.550
 7165TIP3    H121438   7.169   0.666   1.471
 7165TIP3    H221439   7.184   0.659   1.621
 7166TIP3   OH221440   4.641   5.204   2.266
 7166TIP3    H121441   4.610   5.203   2.176
 7166TIP3    H221442   4.635   5.296   2.293
 7167TIP3   OH221443   7.448   7.219   0.338
 7167TIP3    H121444   7.426   7.129   0.362
 7167TIP3    H221445   7.521   7.210   0.276
 7168TIP3   OH221446   0.556   3.911   3.456
 7168TIP3    H121447   0.506   3.966   3.516
 7168TIP3    H221448   0.626   3.968   3.424
 7169TIP3   OH221449   3.969   1.341   1.449
 7169TIP3    H121450   3.961   1.329   1.354
 7169TIP3    H221451   3.898   1.401   1.471
 7170TIP3   OH221452   0.047   6.253   6.643
 7170TIP3    H121453   0.062   6.232   6.735
 7170TIP3    H221454   0.135   6.260   6.606
 7171TIP3   OH221455   5.828   6.709   3.732
 7171TIP3    H121456   5.923   6.704   3.726
 7171TIP3    H221457   5.805   6.657   3.809
 7172TIP3   OH221458   8.163   1.837   2.796
 7172TIP3    H121459   8.102   1.817   2.868
 7172TIP3    H221460   8.172   1.754   2.750
 7173TIP3   OH221461   3.785   7.403   1.845
 7173TIP3    H121462   3.880   7.391   1.837
 7173TIP3    H221463   3.749   7.352   1.773
 7174TIP3   OH221464   0.246   2.114   6.799
 7174TIP3    H121465   0.251   2.155   6.712
 7174TIP3    H221466   0.337   2.109   6.828
 7175TIP3   OH221467   0.194   4.888   2.048
 7175TIP3    H121468   0.212   4.952   1.979
 7175TIP3    H221469   0.100   4.897   2.065
 7176TIP3   OH221470   2.476   5.506   1.599
 7176TIP3    H121471   2.551   5.450   1.619
 7176TIP3    H221472   2.492   5.537   1.510
 7177TIP3   OH221473   3.513   3.447   0.886
 7177TIP3    H121474   3.557   3.521   0.844
 7177TIP3    H221475   3.583   3.389   0.913
 7178TIP3   OH221476   1.705   0.582   1.308
 7178TIP3    H121477   1.642   0.563   1.377
 7178TIP3    H221478   1.667   0.544   1.229
 7179TIP3   OH221479   2.325   0.167   0.681
 7179TIP3    H121480   2.397   0.214   0.640
 7179TIP3    H221481   2.257   0.162   0.613
 7180TIP3   OH221482   7.304   5.971   3.546
 7180TIP3    H121483   7.211   5.993   3.542
 7180TIP3    H221484   7.343   6.013   3.470
 7181TIP3   OH221485   0.204   2.077   1.746
 7181TIP3    H121486   0.269   2.086   1.676
 7181TIP3    H221487   0.242   2.122   1.821
 7182TIP3   OH221488   2.122   2.466   2.358
 7182TIP3    H121489   2.150   2.374   2.366
 7182TIP3    H221490   2.121   2.482   2.264
 7183TIP3   OH221491   6.151   2.550   1.368
 7183TIP3    H121492   6.152   2.619   1.434
 7183TIP3    H221493   6.224   2.571   1.310
 7184TIP3   OH221494   5.622   2.909   1.596
 7184TIP3    H121495   5.690   2.918   1.663
 7184TIP3    H221496   5.583   2.823   1.613
 7185TIP3   OH221497   0.418   6.229   1.206
 7185TIP3    H121498   0.351   6.293   1.185
 7185TIP3    H221499   0.494   6.257   1.155
 7186TIP3   OH221500   1.997   4.319   1.963
 7186TIP3    H121501   2.056   4.294   1.892
 7186TIP3    H221502   1.969   4.407   1.940
 7187TIP3   OH221503   2.430   6.897   4.932
 7187TIP3    H121504   2.453   6.805   4.939
 7187TIP3    H221505   2.478   6.939   5.003
 7188TIP3   OH221506   2.633   7.525   0.296
 7188TIP3    H121507   2.702   7.480   0.247
 7188TIP3    H221508   2.670   7.611   0.316
 7189TIP3   OH221509   3.081   7.474   2.823
 7189TIP3    H121510   3.064   7.562   2.858
 7189TIP3    H221511   3.020   7.465   2.750
 7190TIP3   OH221512   4.469   5.914   6.346
 7190TIP3    H121513   4.512   5.995   6.315
 7190TIP3    H221514   4.482   5.915   6.440
 7191TIP3   OH221515   4.721   2.706   3.097
 7191TIP3    H121516   4.752   2.725   3.186
 7191TIP3    H221517   4.629   2.733   3.097
 7192TIP3   OH221518   1.528   6.857   0.364
 7192TIP3    H121519   1.458   6.800   0.333
 7192TIP3    H221520   1.517   6.938   0.313
 7193TIP3   OH221521   1.398   2.113   4.544
 7193TIP3    H121522   1.365   2.112   4.634
 7193TIP3    H221523   1.319   2.122   4.490
 7194TIP3   OH221524   7.514   0.033   2.309
 7194TIP3    H121525   7.437   0.047   2.365
 7194TIP3    H221526   7.557   0.119   2.307
 7195TIP3   OH221527   7.329   6.925   5.095
 7195TIP3    H121528   7.304   6.960   5.181
 7195TIP3    H221529   7.302   6.992   5.033
 7196TIP3   OH221530   5.495   0.723   6.518
 7196TIP3    H121531   5.515   0.642   6.565
 7196TIP3    H221532   5.545   0.717   6.437
 7197TIP3   OH221533   7.081   3.534   0.981
 7197TIP3    H121534   7.063   3.515   1.073
 7197TIP3    H221535   7.067   3.628   0.973
 7198TIP3   OH221536   7.515   7.468   1.504
 7198TIP3    H121537   7.479   7.379   1.507
 7198TIP3    H221538   7.584   7.468   1.570
 7199TIP3   OH221539   4.497   4.757   5.322
 7199TIP3    H121540   4.471   4.747   5.230
 7199TIP3    H221541   4.558   4.685   5.338
 7200TIP3   OH221542   6.815   2.055   6.536
 7200TIP3    H121543   6.768   2.031   6.616
 7200TIP3    H221544   6.906   2.029   6.553
 7201TIP3   OH221545   5.636   6.741   4.409
 7201TIP3    H121546   5.591   6.659   4.391
 7201TIP3    H221547   5.578   6.808   4.373
 7202TIP3   OH221548   3.219   5.423   2.960
 7202TIP3    H121549   3.308   5.451   2.979
 7202TIP3    H221550   3.165   5.468   3.026
 7203TIP3   OH221551   3.266   3.218   6.645
 7203TIP3    H121552   3.360   3.205   6.635
 7203TIP3    H221553   3.227   3.168   6.573
 7204TIP3   OH221554   6.317   2.568   4.286
 7204TIP3    H121555   6.308   2.473   4.285
 7204TIP3    H221556   6.410   2.585   4.270
 7205TIP3   OH221557   6.748   2.423   5.415
 7205TIP3    H121558   6.771   2.505   5.371
 7205TIP3    H221559   6.655   2.412   5.397
 7206TIP3   OH221560   6.983   5.252   4.520
 7206TIP3    H121561   6.895   5.282   4.497
 7206TIP3    H221562   6.974   5.218   4.609
 7207TIP3   OH221563   6.184   2.594   1.033
 7207TIP3    H121564   6.209   2.546   0.954
 7207TIP3    H221565   6.193   2.686   1.010
 7208TIP3   OH221566   4.039   4.846   1.450
 7208TIP3    H121567   4.121   4.895   1.445
 7208TIP3    H221568   3.989   4.875   1.374
 7209TIP3   OH221569   7.459   1.551   2.564
 7209TIP3    H121570   7.525   1.556   2.633
 7209TIP3    H221571   7.383   1.598   2.599
 7210TIP3   OH221572   1.873   5.187   5.300
 7210TIP3    H121573   1.897   5.132   5.225
 7210TIP3    H221574   1.797   5.237   5.268
 7211TIP3   OH221575   1.140   2.058   4.626
 7211TIP3    H121576   1.179   1.979   4.662
 7211TIP3    H221577   1.081   2.027   4.557
 7212TIP3   OH221578   4.032   1.781   1.655
 7212TIP3    H121579   4.090   1.712   1.686
 7212TIP3    H221580   3.981   1.806   1.733
 7213TIP3   OH221581   6.241   3.531   6.698
 7213TIP3    H121582   6.229   3.529   6.603
 7213TIP3    H221583   6.184   3.601   6.729
 7214TIP3   OH221584   3.046   5.152   5.272
 7214TIP3    H121585   3.014   5.220   5.331
 7214TIP3    H221586   3.019   5.181   5.185
 7215TIP3   OH221587   2.049   5.333   1.698
 7215TIP3    H121588   2.125   5.284   1.666
 7215TIP3    H221589   2.086   5.402   1.753
 7216TIP3   OH221590   5.208   2.276   0.950
 7216TIP3    H121591   5.275   2.336   0.918
 7216TIP3    H221592   5.241   2.248   1.035
 7217TIP3   OH221593   5.628   2.469   0.820
 7217TIP3    H121594   5.687   2.504   0.753
 7217TIP3    H221595   5.682   2.406   0.868
 7218TIP3   OH221596   4.018   7.178   5.039
 7218TIP3    H121597   4.021   7.103   4.980
 7218TIP3    H221598   3.970   7.245   4.990
 7219TIP3   OH221599   1.561   1.844   5.754
 7219TIP3    H121600   1.548   1.939   5.761
 7219TIP3    H221601   1.473   1.809   5.739
 7220TIP3   OH221602   6.002   2.909   3.291
 7220TIP3    H121603   6.086   2.892   3.249
 7220TIP3    H221604   6.006   2.860   3.373
 7221TIP3   OH221605   0.346   1.183   3.382
 7221TIP3    H121606   0.289   1.168   3.307
 7221TIP3    H221607   0.380   1.096   3.405
 7222TIP3   OH221608   1.222   1.157   0.229
 7222TIP3    H121609   1.279   1.084   0.252
 7222TIP3    H221610   1.133   1.122   0.238
 7223TIP3   OH221611   4.637   5.533   0.495
 7223TIP3    H121612   4.586   5.490   0.564
 7223TIP3    H221613   4.618   5.482   0.416
 7224TIP3   OH221614   3.473   6.187   4.573
 7224TIP3    H121615   3.417   6.180   4.651
 7224TIP3    H221616   3.488   6.097   4.546
 7225TIP3   OH221617   2.087   4.984   1.509
 7225TIP3    H121618   2.121   5.002   1.422
 7225TIP3    H221619   2.046   4.898   1.502
 7226TIP3   OH221620   7.807   5.353   6.309
 7226TIP3    H121621   7.724   5.364   6.263
 7226TIP3    H221622   7.841   5.442   6.320
 7227TIP3   OH221623   3.862   3.031   5.980
 7227TIP3    H121624   3.878   3.125   5.969
 7227TIP3    H221625   3.884   3.013   6.072
 7228TIP3   OH221626   4.330   2.786   1.449
 7228TIP3    H121627   4.263   2.804   1.515
 7228TIP3    H221628   4.373   2.870   1.435
 7229TIP3   OH221629   5.256   2.605   1.943
 7229TIP3    H121630   5.340   2.569   1.915
 7229TIP3    H221631   5.191   2.541   1.912
 7230TIP3   OH221632   1.251   2.141   1.753
 7230TIP3    H121633   1.297   2.142   1.837
 7230TIP3    H221634   1.214   2.053   1.747
 7231TIP3   OH221635   6.930   1.498   4.432
 7231TIP3    H121636   6.849   1.449   4.423
 7231TIP3    H221637   7.000   1.433   4.427
 7232TIP3   OH221638   4.570   0.098   2.542
 7232TIP3    H121639   4.543   0.010   2.567
 7232TIP3    H221640   4.653   0.086   2.496
 7233TIP3   OH221641   2.304   2.092   4.843
 7233TIP3    H121642   2.396   2.072   4.825
 7233TIP3    H221643   2.297   2.187   4.830
 7234TIP3   OH221644   5.312   5.968   6.757
 7234TIP3    H121645   5.274   6.009   6.679
 7234TIP3    H221646   5.381   6.028   6.784
 7235TIP3   OH221647   7.008   4.925   2.275
 7235TIP3    H121648   6.952   4.995   2.306
 7235TIP3    H221649   6.975   4.903   2.188
 7236TIP3   OH221650   2.440   7.870   4.159
 7236TIP3    H121651   2.442   7.868   4.255
 7236TIP3    H221652   2.532   7.868   4.133
 7237TIP3   OH221653   7.206   3.745   2.721
 7237TIP3    H121654   7.194   3.839   2.708
 7237TIP3    H221655   7.292   3.738   2.763
 7238TIP3   OH221656   6.214   2.271   5.688
 7238TIP3    H121657   6.292   2.217   5.677
 7238TIP3    H221658   6.194   2.267   5.782
 7239TIP3   OH221659   6.699   1.614   5.398
 7239TIP3    H121660   6.659   1.609   5.311
 7239TIP3    H221661   6.710   1.707   5.414
 7240TIP3   OH221662   2.945   4.604   4.496
 7240TIP3    H121663   2.909   4.667   4.559
 7240TIP3    H221664   3.040   4.612   4.506
 7241TIP3   OH221665   5.723   6.603   5.768
 7241TIP3    H121666   5.765   6.562   5.844
 7241TIP3    H221667   5.676   6.531   5.725
 7242TIP3   OH221668   8.289   5.682   0.862
 7242TIP3    H121669   8.264   5.593   0.840
 7242TIP3    H221670   8.206   5.727   0.880
 7243TIP3   OH221671   1.838   4.257   0.948
 7243TIP3    H121672   1.887   4.177   0.966
 7243TIP3    H221673   1.802   4.244   0.861
 7244TIP3   OH221674   6.645   6.472   0.870
 7244TIP3    H121675   6.702   6.408   0.827
 7244TIP3    H221676   6.607   6.424   0.944
 7245TIP3   OH221677   3.931   2.886   4.357
 7245TIP3    H121678   3.880   2.966   4.368
 7245TIP3    H221679   3.881   2.819   4.403
 7246TIP3   OH221680   6.792   5.560   0.054
 7246TIP3    H121681   6.696   5.563   0.062
 7246TIP3    H221682   6.813   5.467   0.065
 7247TIP3   OH221683   1.908   7.726   0.385
 7247TIP3    H121684   1.890   7.642   0.344
 7247TIP3    H221685   1.822   7.754   0.419
 7248TIP3   OH221686   0.150   5.552   5.629
 7248TIP3    H121687   0.163   5.570   5.722
 7248TIP3    H221688   0.062   5.514   5.624
 7249TIP3   OH221689   0.138   5.206   3.750
 7249TIP3    H121690   0.147   5.280   3.690
 7249TIP3    H221691   0.228   5.177   3.764
 7250TIP3   OH221692   7.212   2.126   6.650
 7250TIP3    H121693   7.273   2.152   6.581
 7250TIP3    H221694   7.268   2.098   6.722
 7251TIP3   OH221695   2.629   2.416   5.088
 7251TIP3    H121696   2.675   2.336   5.112
 7251TIP3    H221697   2.694   2.485   5.098
 7252TIP3   OH221698   3.624   0.528   2.713
 7252TIP3    H121699   3.532   0.500   2.716
 7252TIP3    H221700   3.631   0.593   2.784
 7253TIP3   OH221701   4.282   6.348   4.625
 7253TIP3    H121702   4.286   6.352   4.721
 7253TIP3    H221703   4.353   6.288   4.601
 7254TIP3   OH221704   4.818   1.099   6.501
 7254TIP3    H121705   4.872   1.112   6.422
 7254TIP3    H221706   4.776   1.014   6.488
 7255TIP3   OH221707   0.862   7.509   5.609
 7255TIP3    H121708   0.778   7.465   5.592
 7255TIP3    H221709   0.841   7.578   5.672
 7256TIP3   OH221710   5.292   6.243   5.582
 7256TIP3    H121711   5.230   6.204   5.519
 7256TIP3    H221712   5.317   6.326   5.542
 7257TIP3   OH221713   0.296   5.500   4.789
 7257TIP3    H121714   0.225   5.437   4.805
 7257TIP3    H221715   0.376   5.448   4.798
 7258TIP3   OH221716   3.527   6.489   0.856
 7258TIP3    H121717   3.529   6.431   0.932
 7258TIP3    H221718   3.504   6.432   0.782
 7259TIP3   OH221719   1.242   7.493   4.492
 7259TIP3    H121720   1.264   7.543   4.414
 7259TIP3    H221721   1.193   7.554   4.547
 7260TIP3   OH221722   1.689   2.115   5.468
 7260TIP3    H121723   1.740   2.193   5.450
 7260TIP3    H221724   1.653   2.089   5.383
 7261TIP3   OH221725   3.106   5.753   1.199
 7261TIP3    H121726   3.144   5.719   1.280
 7261TIP3    H221727   3.011   5.746   1.212
 7262TIP3   OH221728   2.699   2.976   1.069
 7262TIP3    H121729   2.613   2.969   1.027
 7262TIP3    H221730   2.696   2.909   1.138
 7263TIP3   OH221731   6.337   6.518   4.652
 7263TIP3    H121732   6.241   6.517   4.654
 7263TIP3    H221733   6.359   6.487   4.564
 7264TIP3   OH221734   2.848   7.662   4.639
 7264TIP3    H121735   2.889   7.741   4.603
 7264TIP3    H221736   2.771   7.695   4.686
 7265TIP3   OH221737   2.777   5.179   2.222
 7265TIP3    H121738   2.737   5.163   2.308
 7265TIP3    H221739   2.806   5.270   2.226
 7266TIP3   OH221740   1.115   7.002   3.428
 7266TIP3    H121741   1.171   7.079   3.440
 7266TIP3    H221742   1.057   7.003   3.504
 7267TIP3   OH221743   8.100   7.232   5.395
 7267TIP3    H121744   8.037   7.209   5.463
 7267TIP3    H221745   8.064   7.311   5.354
 7268TIP3   OH221746   1.912   1.214   3.654
 7268TIP3    H121747   1.943   1.304   3.666
 7268TIP3    H221748   1.921   1.198   3.560
 7269TIP3   OH221749   0.729   4.167   3.724
 7269TIP3    H121750   0.724   4.100   3.792
 7269TIP3    H221751   0.660   4.145   3.662
 7270TIP3   OH221752   5.090   1.409   6.664
 7270TIP3    H121753   5.053   1.452   6.586
 7270TIP3    H221754   5.107   1.481   6.725
 7271TIP3   OH221755   5.355   0.653   1.785
 7271TIP3    H121756   5.317   0.676   1.870
 7271TIP3    H221757   5.351   0.734   1.734
 7272TIP3   OH221758   6.623   2.188   5.150
 7272TIP3    H121759   6.541   2.237   5.153
 7272TIP3    H221760   6.596   2.097   5.162
 7273TIP3   OH221761   7.371   4.710   1.214
 7273TIP3    H121762   7.302   4.644   1.210
 7273TIP3    H221763   7.341   4.781   1.158
 7274TIP3   OH221764   1.834   2.776   2.394
 7274TIP3    H121765   1.769   2.831   2.349
 7274TIP3    H221766   1.892   2.745   2.324
 7275TIP3   OH221767   5.090   2.064   6.101
 7275TIP3    H121768   5.037   1.987   6.082
 7275TIP3    H221769   5.178   2.029   6.116
 7276TIP3   OH221770   5.821   7.803   1.506
 7276TIP3    H121771   5.902   7.785   1.457
 7276TIP3    H221772   5.799   7.893   1.483
 7277TIP3   OH221773   1.237   6.951   5.264
 7277TIP3    H121774   1.316   6.914   5.303
 7277TIP3    H221775   1.182   6.974   5.339
 7278TIP3   OH221776   2.096   4.080   1.586
 7278TIP3    H121777   2.187   4.092   1.562
 7278TIP3    H221778   2.099   4.037   1.672
 7279TIP3   OH221779   0.663   3.440   0.721
 7279TIP3    H121780   0.722   3.384   0.669
 7279TIP3    H221781   0.587   3.453   0.664
 7280TIP3   OH221782   2.756   0.048   3.518
 7280TIP3    H121783   2.804  -0.016   3.570
 7280TIP3    H221784   2.806   0.129   3.529
 7281TIP3   OH221785   0.981   3.128   4.731
 7281TIP3    H121786   1.074   3.139   4.749
 7281TIP3    H221787   0.978   3.065   4.659
 7282TIP3   OH221788   1.260   6.921   4.349
 7282TIP3    H121789   1.291   6.864   4.278
 7282TIP3    H221790   1.278   7.010   4.318
 7283TIP3   OH221791   3.790   5.811   4.440
 7283TIP3    H121792   3.792   5.716   4.427
 7283TIP3    H221793   3.832   5.824   4.525
 7284TIP3   OH221794   6.880   2.259   0.485
 7284TIP3    H121795   6.931   2.332   0.451
 7284TIP3    H221796   6.797   2.298   0.512
 7285TIP3   OH221797   8.289   4.252   4.851
 7285TIP3    H121798   8.265   4.286   4.765
 7285TIP3    H221799   8.375   4.211   4.838
 7286TIP3   OH221800   5.879   5.308   0.534
 7286TIP3    H121801   5.928   5.331   0.613
 7286TIP3    H221802   5.850   5.392   0.499
 7287TIP3   OH221803   1.539   4.426   4.206
 7287TIP3    H121804   1.543   4.409   4.112
 7287TIP3    H221805   1.628   4.410   4.238
 7288TIP3   OH221806   1.614   2.980   1.822
 7288TIP3    H121807   1.520   2.990   1.808
 7288TIP3    H221808   1.638   3.055   1.877
 7289TIP3   OH221809   4.335   1.186   0.533
 7289TIP3    H121810   4.429   1.187   0.550
 7289TIP3    H221811   4.304   1.104   0.572
 7290TIP3   OH221812   4.448   2.237   2.533
 7290TIP3    H121813   4.420   2.149   2.559
 7290TIP3    H221814   4.446   2.288   2.614
 7291TIP3   OH221815   1.281   5.697   4.694
 7291TIP3    H121816   1.329   5.696   4.777
 7291TIP3    H221817   1.333   5.642   4.636
 7292TIP3   OH221818   1.641   4.095   4.032
 7292TIP3    H121819   1.722   4.146   4.033
 7292TIP3    H221820   1.597   4.121   3.952
 7293TIP3   OH221821   5.228   0.817   3.210
 7293TIP3    H121822   5.156   0.837   3.270
 7293TIP3    H221823   5.224   0.722   3.199
 7294TIP3   OH221824   5.837   5.010   0.557
 7294TIP3    H121825   5.818   5.093   0.602
 7294TIP3    H221826   5.757   4.990   0.510
 7295TIP3   OH221827   3.859   6.134   6.688
 7295TIP3    H121828   3.868   6.063   6.751
 7295TIP3    H221829   3.809   6.202   6.735
 7296TIP3   OH221830   0.137   1.388   3.642
 7296TIP3    H121831   0.197   1.442   3.590
 7296TIP3    H221832   0.092   1.449   3.699
 7297TIP3   OH221833   4.600   2.217   6.130
 7297TIP3    H121834   4.635   2.270   6.201
 7297TIP3    H221835   4.555   2.280   6.073
 7298TIP3   OH221836   5.658   1.473   3.734
 7298TIP3    H121837   5.605   1.548   3.708
 7298TIP3    H221838   5.600   1.421   3.790
 7299TIP3   OH221839   6.327   7.076   0.611
 7299TIP3    H121840   6.315   7.063   0.705
 7299TIP3    H221841   6.345   7.169   0.601
 7300TIP3   OH221842   7.386   7.226   4.258
 7300TIP3    H121843   7.338   7.306   4.239
 7300TIP3    H221844   7.349   7.194   4.340
 7301TIP3   OH221845   3.238   2.424   3.643
 7301TIP3    H121846   3.272   2.494   3.588
 7301TIP3    H221847   3.231   2.349   3.585
 7302TIP3   OH221848   0.187   4.630   1.129
 7302TIP3    H121849   0.133   4.708   1.119
 7302TIP3    H221850   0.179   4.585   1.044
 7303TIP3   OH221851   6.937   6.455   2.161
 7303TIP3    H121852   6.971   6.401   2.232
 7303TIP3    H221853   6.843   6.436   2.159
 7304TIP3   OH221854   4.968   5.251   4.522
 7304TIP3    H121855   5.011   5.171   4.490
 7304TIP3    H221856   5.002   5.320   4.465
 7305TIP3   OH221857   7.284   7.374   5.276
 7305TIP3    H121858   7.203   7.357   5.230
 7305TIP3    H221859   7.334   7.431   5.217
 7306TIP3   OH221860   1.627   7.560   0.701
 7306TIP3    H121861   1.652   7.619   0.629
 7306TIP3    H221862   1.709   7.532   0.739
 7307TIP3   OH221863   0.127   2.567   6.231
 7307TIP3    H121864   0.136   2.596   6.141
 7307TIP3    H221865   0.188   2.623   6.280
 7308TIP3   OH221866   4.716   7.638   5.706
 7308TIP3    H121867   4.719   7.706   5.772
 7308TIP3    H221868   4.750   7.680   5.627
 7309TIP3   OH221869   0.852   0.445   6.617
 7309TIP3    H121870   0.783   0.414   6.558
 7309TIP3    H221871   0.832   0.537   6.631
 7310TIP3   OH221872   3.364   0.414   2.762
 7310TIP3    H121873   3.315   0.481   2.714
 7310TIP3    H221874   3.327   0.415   2.850
 7311TIP3   OH221875  -0.014   7.056   5.291
 7311TIP3    H121876  -0.069   7.132   5.308
 7311TIP3    H221877   0.034   7.041   5.372
 7312TIP3   OH221878   2.735   3.951   1.206
 7312TIP3    H121879   2.709   3.860   1.189
 7312TIP3    H221880   2.678   3.979   1.278
 7313TIP3   OH221881   2.262   6.688   5.913
 7313TIP3    H121882   2.350   6.663   5.943
 7313TIP3    H221883   2.278   6.741   5.835
 7314TIP3   OH221884   1.094   5.601   2.944
 7314TIP3    H121885   1.043   5.521   2.957
 7314TIP3    H221886   1.171   5.590   2.998
 7315TIP3   OH221887   4.075   2.230   4.550
 7315TIP3    H121888   4.162   2.227   4.590
 7315TIP3    H221889   4.092   2.232   4.456
 7316TIP3   OH221890   6.810   6.377   0.483
 7316TIP3    H121891   6.837   6.449   0.426
 7316TIP3    H221892   6.887   6.322   0.491
 7317TIP3   OH221893   3.112   6.980   4.515
 7317TIP3    H121894   3.113   7.004   4.608
 7317TIP3    H221895   3.146   7.057   4.470
 7318TIP3   OH221896   2.002   7.159   5.987
 7318TIP3    H121897   1.959   7.242   5.965
 7318TIP3    H221898   2.096   7.178   5.978
 7319TIP3   OH221899   5.940   0.592   6.435
 7319TIP3    H121900   5.942   0.677   6.478
 7319TIP3    H221901   5.851   0.585   6.400
 7320TIP3   OH221902   4.595   1.018   5.168
 7320TIP3    H121903   4.524   1.082   5.162
 7320TIP3    H221904   4.613   1.010   5.262
 7321TIP3   OH221905   4.281   1.895   2.091
 7321TIP3    H121906   4.197   1.848   2.093
 7321TIP3    H221907   4.341   1.835   2.046
 7322TIP3   OH221908   1.486   2.309   3.118
 7322TIP3    H121909   1.521   2.259   3.191
 7322TIP3    H221910   1.405   2.348   3.152
 7323TIP3   OH221911   2.849   2.040   4.068
 7323TIP3    H121912   2.845   1.947   4.090
 7323TIP3    H221913   2.771   2.055   4.015
 7324TIP3   OH221914   7.092   2.246   1.933
 7324TIP3    H121915   7.076   2.205   2.018
 7324TIP3    H221916   7.022   2.213   1.877
 7325TIP3   OH221917   1.417   2.241   1.573
 7325TIP3    H121918   1.500   2.275   1.606
 7325TIP3    H221919   1.372   2.207   1.651
 7326TIP3   OH221920   0.930   0.631   5.909
 7326TIP3    H121921   0.935   0.628   5.814
 7326TIP3    H221922   0.879   0.553   5.933
 7327TIP3   OH221923   2.292   6.360   2.623
 7327TIP3    H121924   2.384   6.335   2.616
 7327TIP3    H221925   2.294   6.449   2.657
 7328TIP3   OH221926   5.245   2.773   4.749
 7328TIP3    H121927   5.241   2.694   4.803
 7328TIP3    H221928   5.297   2.748   4.673
 7329TIP3   OH221929   0.079   2.789   1.991
 7329TIP3    H121930   0.041   2.703   1.973
 7329TIP3    H221931   0.126   2.778   2.074
 7330TIP3   OH221932   3.800   0.634   3.747
 7330TIP3    H121933   3.742   0.710   3.737
 7330TIP3    H221934   3.878   0.658   3.697
 7331TIP3   OH221935   0.700   0.737   4.053
 7331TIP3    H121936   0.669   0.668   4.112
 7331TIP3    H221937   0.761   0.788   4.106
 7332TIP3   OH221938   1.784   4.697   1.182
 7332TIP3    H121939   1.737   4.778   1.199
 7332TIP3    H221940   1.813   4.667   1.269
 7333TIP3   OH221941   3.767   2.210   5.053
 7333TIP3    H121942   3.698   2.234   5.114
 7333TIP3    H221943   3.821   2.147   5.101
 7334TIP3   OH221944   5.007   2.077   0.887
 7334TIP3    H121945   4.934   2.125   0.848
 7334TIP3    H221946   5.071   2.144   0.908
 7335TIP3   OH221947   0.501   2.518   3.451
 7335TIP3    H121948   0.444   2.567   3.510
 7335TIP3    H221949   0.538   2.584   3.392
 7336TIP3   OH221950   5.926   7.328   0.068
 7336TIP3    H121951   5.854   7.341   0.006
 7336TIP3    H221952   5.956   7.239   0.050
 7337TIP3   OH221953   0.296   6.461   4.611
 7337TIP3    H121954   0.283   6.389   4.673
 7337TIP3    H221955   0.213   6.510   4.614
 7338TIP3   OH221956   5.869   5.978   2.591
 7338TIP3    H121957   5.891   6.060   2.637
 7338TIP3    H221958   5.805   6.005   2.525
 7339TIP3   OH221959   5.969   2.761   2.841
 7339TIP3    H121960   5.888   2.778   2.889
 7339TIP3    H221961   6.026   2.717   2.905
 7340TIP3   OH221962   6.967   5.912   0.177
 7340TIP3    H121963   6.881   5.879   0.151
 7340TIP3    H221964   6.963   5.919   0.272
 7341TIP3   OH221965   2.802   2.156   4.764
 7341TIP3    H121966   2.737   2.219   4.795
 7341TIP3    H221967   2.884   2.206   4.761
 7342TIP3   OH221968   6.222   1.991   6.653
 7342TIP3    H121969   6.203   2.011   6.745
 7342TIP3    H221970   6.297   1.933   6.656
 7343TIP3   OH221971   5.158   4.514   0.620
 7343TIP3    H121972   5.120   4.427   0.606
 7343TIP3    H221973   5.160   4.524   0.715
 7344TIP3   OH221974   2.695   7.392   5.908
 7344TIP3    H121975   2.661   7.316   5.860
 7344TIP3    H221976   2.774   7.417   5.859
 7345TIP3   OH221977   3.006   4.174   6.684
 7345TIP3    H121978   3.095   4.153   6.654
 7345TIP3    H221979   3.004   4.269   6.688
 7346TIP3   OH221980   6.667   0.687   0.985
 7346TIP3    H121981   6.589   0.652   1.029
 7346TIP3    H221982   6.646   0.683   0.892
 7347TIP3   OH221983   4.060   1.334   1.816
 7347TIP3    H121984   3.969   1.304   1.823
 7347TIP3    H221985   4.103   1.298   1.893
 7348TIP3   OH221986   1.546   3.572   1.745
 7348TIP3    H121987   1.479   3.634   1.719
 7348TIP3    H221988   1.513   3.486   1.717
 7349TIP3   OH221989   5.887   7.766   4.064
 7349TIP3    H121990   5.928   7.712   3.996
 7349TIP3    H221991   5.799   7.783   4.030
 7350TIP3   OH221992   0.818   3.101   0.660
 7350TIP3    H121993   0.780   3.032   0.606
 7350TIP3    H221994   0.761   3.104   0.738
 7351TIP3   OH221995   7.476   0.634   6.059
 7351TIP3    H121996   7.502   0.704   6.119
 7351TIP3    H221997   7.389   0.608   6.089
 7352TIP3   OH221998   6.384   1.868   1.968
 7352TIP3    H121999   6.421   1.779   1.967
 7352TIP3    H222000   6.382   1.894   1.875
 7353TIP3   OH222001   7.758   4.480   5.591
 7353TIP3    H122002   7.727   4.391   5.575
 7353TIP3    H222003   7.831   4.469   5.653
 7354TIP3   OH222004   2.405   6.531   5.291
 7354TIP3    H122005   2.451   6.448   5.280
 7354TIP3    H222006   2.312   6.508   5.289
 7355TIP3   OH222007   0.615   0.839   0.258
 7355TIP3    H122008   0.686   0.839   0.194
 7355TIP3    H222009   0.659   0.827   0.342
 7356TIP3   OH222010   1.043   7.648   4.906
 7356TIP3    H122011   1.033   7.680   4.996
 7356TIP3    H222012   1.137   7.648   4.891
 7357TIP3   OH222013   4.148   4.183   3.949
 7357TIP3    H122014   4.192   4.194   3.864
 7357TIP3    H222015   4.188   4.250   4.005
 7358TIP3   OH222016   5.933   1.048   1.196
 7358TIP3    H122017   5.969   0.961   1.181
 7358TIP3    H222018   5.915   1.051   1.290
 7359TIP3   OH222019   5.864   5.013   6.191
 7359TIP3    H122020   5.905   5.011   6.278
 7359TIP3    H222021   5.840   5.105   6.178
 7360TIP3   OH222022   3.836   0.315   6.601
 7360TIP3    H122023   3.820   0.225   6.628
 7360TIP3    H222024   3.920   0.337   6.641
 7361TIP3   OH222025   5.779   1.197   0.248
 7361TIP3    H122026   5.738   1.283   0.254
 7361TIP3    H222027   5.766   1.171   0.157
 7362TIP3   OH222028   0.255   7.101   5.069
 7362TIP3    H122029   0.257   7.013   5.031
 7362TIP3    H222030   0.173   7.104   5.119
 7363TIP3   OH222031   0.079   2.558   5.102
 7363TIP3    H122032   0.137   2.483   5.116
 7363TIP3    H222033   0.124   2.612   5.036
 7364TIP3   OH222034   3.533   6.139   6.378
 7364TIP3    H122035   3.574   6.213   6.423
 7364TIP3    H222036   3.594   6.066   6.392
 7365TIP3   OH222037   0.188   1.874   4.728
 7365TIP3    H122038   0.212   1.905   4.640
 7365TIP3    H222039   0.098   1.845   4.719
 7366TIP3   OH222040   4.348   5.601   0.720
 7366TIP3    H122041   4.340   5.611   0.815
 7366TIP3    H222042   4.403   5.523   0.709
 7367TIP3   OH222043   0.713   1.548   6.139
 7367TIP3    H122044   0.708   1.611   6.067
 7367TIP3    H222045   0.773   1.588   6.202
 7368TIP3   OH222046   3.140   5.042   4.323
 7368TIP3    H122047   3.225   5.080   4.301
 7368TIP3    H222048   3.082   5.117   4.332
 7369TIP3   OH222049   1.301   1.706   5.741
 7369TIP3    H122050   1.234   1.648   5.777
 7369TIP3    H222051   1.255   1.756   5.673
 7370TIP3   OH222052   5.260   0.589   4.366
 7370TIP3    H122053   5.227   0.678   4.353
 7370TIP3    H222054   5.292   0.589   4.457
 7371TIP3   OH222055   3.871   6.852   4.067
 7371TIP3    H122056   3.811   6.922   4.041
 7371TIP3    H222057   3.956   6.879   4.034
 7372TIP3   OH222058   3.291   1.227   3.759
 7372TIP3    H122059   3.364   1.202   3.703
 7372TIP3    H222060   3.304   1.321   3.774
 7373TIP3   OH222061   4.908   1.254   1.495
 7373TIP3    H122062   4.883   1.302   1.416
 7373TIP3    H222063   4.975   1.192   1.465
 7374TIP3   OH222064   7.414   4.784   2.236
 7374TIP3    H122065   7.490   4.759   2.182
 7374TIP3    H222066   7.423   4.730   2.315
 7375TIP3   OH222067   3.888   7.727   1.702
 7375TIP3    H122068   3.944   7.675   1.644
 7375TIP3    H222069   3.843   7.662   1.756
 7376TIP3   OH222070   4.790   7.739   5.239
 7376TIP3    H122071   4.700   7.738   5.271
 7376TIP3    H222072   4.839   7.691   5.306
 7377TIP3   OH222073   4.058   5.165   2.952
 7377TIP3    H122074   3.985   5.107   2.976
 7377TIP3    H222075   4.133   5.107   2.943
 7378TIP3   OH222076   4.439   2.710   0.075
 7378TIP3    H122077   4.362   2.733   0.023
 7378TIP3    H222078   4.474   2.794   0.104
 7379TIP3   OH222079   0.722   6.414   5.517
 7379TIP3    H122080   0.693   6.504   5.533
 7379TIP3    H222081   0.747   6.381   5.603
 7380TIP3   OH222082   5.018   2.162   5.860
 7380TIP3    H122083   5.049   2.145   5.949
 7380TIP3    H222084   4.923   2.159   5.866
 7381TIP3   OH222085   7.686   0.318   6.819
 7381TIP3    H122086   7.700   0.365   6.737
 7381TIP3    H222087   7.672   0.227   6.793
 7382TIP3   OH222088   3.009   5.984   3.185
 7382TIP3    H122089   2.986   5.952   3.099
 7382TIP3    H222090   3.105   5.984   3.186
 7383TIP3   OH222091   1.464   6.838   5.460
 7383TIP3    H122092   1.491   6.775   5.394
 7383TIP3    H222093   1.434   6.784   5.534
 7384TIP3   OH222094   5.851   7.245   2.295
 7384TIP3    H122095   5.777   7.284   2.342
 7384TIP3    H222096   5.929   7.286   2.332
 7385TIP3   OH222097   4.524   4.772   3.514
 7385TIP3    H122098   4.475   4.696   3.544
 7385TIP3    H222099   4.590   4.787   3.582
 7386TIP3   OH222100   0.615   4.794   0.592
 7386TIP3    H122101   0.592   4.705   0.620
 7386TIP3    H222102   0.560   4.851   0.646
 7387TIP3   OH222103   7.521   5.220   5.827
 7387TIP3    H122104   7.467   5.287   5.868
 7387TIP3    H222105   7.491   5.138   5.866
 7388TIP3   OH222106   1.198   7.149   1.977
 7388TIP3    H122107   1.106   7.171   1.967
 7388TIP3    H222108   1.234   7.154   1.888
 7389TIP3   OH222109   7.492   1.049   5.745
 7389TIP3    H122110   7.405   1.036   5.781
 7389TIP3    H222111   7.483   1.032   5.651
 7390TIP3   OH222112   7.475   5.993   5.124
 7390TIP3    H122113   7.452   6.054   5.054
 7390TIP3    H222114   7.391   5.954   5.150
 7391TIP3   OH222115   3.047   2.305   5.992
 7391TIP3    H122116   2.999   2.361   6.053
 7391TIP3    H222117   3.047   2.219   6.034
 7392TIP3   OH222118   5.142   3.854   4.076
 7392TIP3    H122119   5.117   3.777   4.128
 7392TIP3    H222120   5.072   3.865   4.013
 7393TIP3   OH222121   0.766   3.385   5.581
 7393TIP3    H122122   0.768   3.383   5.486
 7393TIP3    H222123   0.816   3.308   5.608
 7394TIP3   OH222124   2.130   6.231   1.042
 7394TIP3    H122125   2.185   6.235   1.119
 7394TIP3    H222126   2.149   6.312   0.994
 7395TIP3   OH222127   6.415   4.325   0.895
 7395TIP3    H122128   6.380   4.244   0.859
 7395TIP3    H222129   6.398   4.319   0.989
 7396TIP3   OH222130   3.579   1.091   6.685
 7396TIP3    H122131   3.505   1.041   6.651
 7396TIP3    H222132   3.656   1.040   6.660
 7397TIP3   OH222133   7.346   5.063   4.018
 7397TIP3    H122134   7.371   5.009   4.093
 7397TIP3    H222135   7.414   5.130   4.013
 7398TIP3   OH222136   2.880   7.543   3.848
 7398TIP3    H122137   2.908   7.635   3.854
 7398TIP3    H222138   2.917   7.502   3.926
 7399TIP3   OH222139   3.280   0.614   0.116
 7399TIP3    H122140   3.303   0.554   0.045
 7399TIP3    H222141   3.217   0.674   0.077
 7400TIP3   OH222142   6.666   0.367   5.136
 7400TIP3    H122143   6.713   0.442   5.171
 7400TIP3    H222144   6.702   0.292   5.182
 7401TIP3   OH222145   5.455   4.395   6.164
 7401TIP3    H122146   5.378   4.446   6.190
 7401TIP3    H222147   5.529   4.441   6.205
 7402TIP3   OH222148   4.135   6.009   4.597
 7402TIP3    H122149   4.090   6.093   4.609
 7402TIP3    H222150   4.170   5.989   4.684
 7403TIP3   OH222151   4.447   6.906   3.174
 7403TIP3    H122152   4.379   6.954   3.220
 7403TIP3    H222153   4.526   6.958   3.187
 7404TIP3   OH222154   2.060   3.633   6.241
 7404TIP3    H122155   1.980   3.597   6.201
 7404TIP3    H222156   2.123   3.635   6.169
 7405TIP3   OH222157   3.154   6.778   4.263
 7405TIP3    H122158   3.192   6.864   4.280
 7405TIP3    H222159   3.075   6.775   4.318
 7406TIP3   OH222160   0.224   0.696   3.341
 7406TIP3    H122161   0.190   0.648   3.266
 7406TIP3    H222162   0.256   0.629   3.401
 7407TIP3   OH222163   4.864   1.645   2.142
 7407TIP3    H122164   4.776   1.637   2.105
 7407TIP3    H222165   4.923   1.642   2.066
 7408TIP3   OH222166   4.716   2.508   0.801
 7408TIP3    H122167   4.809   2.505   0.823
 7408TIP3    H222168   4.682   2.582   0.852
 7409TIP3   OH222169   1.674   0.102   6.526
 7409TIP3    H122170   1.591   0.065   6.555
 7409TIP3    H222171   1.690   0.175   6.585
 7410TIP3   OH222172   0.138   7.776   6.307
 7410TIP3    H122173   0.060   7.725   6.329
 7410TIP3    H222174   0.164   7.816   6.390
 7411TIP3   OH222175   7.359   2.494   0.665
 7411TIP3    H122176   7.417   2.534   0.601
 7411TIP3    H222177   7.271   2.509   0.630
 7412TIP3   OH222178   6.600   6.503   1.972
 7412TIP3    H122179   6.530   6.466   2.026
 7412TIP3    H222180   6.667   6.434   1.969
 7413TIP3   OH222181   3.876   7.819   5.709
 7413TIP3    H122182   3.822   7.754   5.664
 7413TIP3    H222183   3.929   7.768   5.770
 7414TIP3   OH222184   7.954   5.200   3.525
 7414TIP3    H122185   7.993   5.248   3.452
 7414TIP3    H222186   8.003   5.229   3.602
 7415TIP3   OH222187   1.070   5.281   3.567
 7415TIP3    H122188   1.080   5.238   3.482
 7415TIP3    H222189   1.055   5.373   3.546
 7416TIP3   OH222190   2.275   4.428   6.539
 7416TIP3    H122191   2.288   4.334   6.525
 7416TIP3    H222192   2.316   4.446   6.624
 7417TIP3   OH222193   7.531   5.718   0.484
 7417TIP3    H122194   7.513   5.729   0.391
 7417TIP3    H222195   7.558   5.626   0.493
 7418TIP3   OH222196   8.271   2.021   5.189
 7418TIP3    H122197   8.250   2.069   5.109
 7418TIP3    H222198   8.196   2.035   5.246
 7419TIP3   OH222199   4.232   5.760   6.394
 7419TIP3    H122200   4.173   5.800   6.331
 7419TIP3    H222201   4.312   5.813   6.389
 7420TIP3   OH222202   1.155   2.629   6.385
 7420TIP3    H122203   1.210   2.682   6.443
 7420TIP3    H222204   1.204   2.622   6.304
 7421TIP3   OH222205   0.075   5.902   5.008
 7421TIP3    H122206   0.112   5.846   4.940
 7421TIP3    H222207   0.037   5.975   4.960
 7422TIP3   OH222208   5.838   5.259   0.994
 7422TIP3    H122209   5.809   5.325   0.930
 7422TIP3    H222210   5.795   5.285   1.076
 7423TIP3   OH222211   1.795   3.949   6.697
 7423TIP3    H122212   1.770   3.999   6.774
 7423TIP3    H222213   1.780   4.008   6.623
 7424TIP3   OH222214   0.366   4.982   1.743
 7424TIP3    H122215   0.400   4.947   1.660
 7424TIP3    H222216   0.271   4.969   1.736
 7425TIP3   OH222217   5.098   1.879   1.043
 7425TIP3    H122218   5.072   1.959   0.999
 7425TIP3    H222219   5.194   1.882   1.043
 7426TIP3   OH222220   4.754   7.181   6.796
 7426TIP3    H122221   4.844   7.213   6.792
 7426TIP3    H222222   4.727   7.173   6.705
 7427TIP3   OH222223   3.291   5.145   0.885
 7427TIP3    H122224   3.225   5.129   0.818
 7427TIP3    H222225   3.367   5.095   0.855
 7428TIP3   OH222226   7.639   4.760   2.995
 7428TIP3    H122227   7.684   4.836   2.957
 7428TIP3    H222228   7.664   4.760   3.087
 7429TIP3   OH222229   5.595   5.674   6.515
 7429TIP3    H122230   5.564   5.584   6.514
 7429TIP3    H222231   5.582   5.703   6.606
 7430TIP3   OH222232   7.039   4.863   5.952
 7430TIP3    H122233   7.088   4.783   5.936
 7430TIP3    H222234   6.966   4.860   5.891
 7431TIP3   OH222235   3.458   7.090   0.013
 7431TIP3    H122236   3.492   7.174  -0.020
 7431TIP3    H222237   3.437   7.041  -0.067
 7432TIP3   OH222238   2.627   7.388   1.881
 7432TIP3    H122239   2.706   7.341   1.908
 7432TIP3    H222240   2.631   7.389   1.785
 7433TIP3   OH222241   6.768   5.775   4.039
 7433TIP3    H122242   6.717   5.696   4.050
 7433TIP3    H222243   6.720   5.826   3.974
 7434TIP3   OH222244   4.391   1.392   0.232
 7434TIP3    H122245   4.457   1.376   0.299
 7434TIP3    H222246   4.402   1.320   0.170
 7435TIP3   OH222247   5.220   2.892   4.417
 7435TIP3    H122248   5.143   2.949   4.416
 7435TIP3    H222249   5.253   2.896   4.507
 7436TIP3   OH222250   3.515   7.714   4.520
 7436TIP3    H122251   3.594   7.741   4.566
 7436TIP3    H222252   3.543   7.703   4.429
 7437TIP3   OH222253   6.438   0.015   5.114
 7437TIP3    H122254   6.391   0.088   5.074
 7437TIP3    H222255   6.427  -0.057   5.052
 7438TIP3   OH222256   7.939   6.057   2.851
 7438TIP3    H122257   7.989   6.016   2.921
 7438TIP3    H222258   7.905   6.138   2.889
 7439TIP3   OH222259   8.040   0.820   6.178
 7439TIP3    H122260   8.088   0.865   6.247
 7439TIP3    H222261   8.030   0.885   6.109
 7440TIP3   OH222262   5.427   7.188   4.325
 7440TIP3    H122263   5.460   7.171   4.414
 7440TIP3    H222264   5.494   7.151   4.268
 7441TIP3   OH222265   1.494   2.558   1.173
 7441TIP3    H122266   1.496   2.473   1.218
 7441TIP3    H222267   1.586   2.581   1.160
 7442TIP3   OH222268   5.137   7.323   3.263
 7442TIP3    H122269   5.215   7.281   3.225
 7442TIP3    H222270   5.134   7.409   3.222
 7443TIP3   OH222271   4.340   6.965   0.682
 7443TIP3    H122272   4.277   6.934   0.617
 7443TIP3    H222273   4.391   7.032   0.636
 7444TIP3   OH222274   4.201   6.073   0.867
 7444TIP3    H122275   4.277   6.100   0.918
 7444TIP3    H222276   4.153   6.155   0.851
 7445TIP3   OH222277   3.133   2.701   3.058
 7445TIP3    H122278   3.165   2.764   3.122
 7445TIP3    H222279   3.194   2.709   2.984
 7446TIP3   OH222280   7.714   7.224   6.353
 7446TIP3    H122281   7.704   7.318   6.369
 7446TIP3    H222282   7.685   7.183   6.434
 7447TIP3   OH222283   3.384   7.027   2.973
 7447TIP3    H122284   3.448   7.095   2.951
 7447TIP3    H222285   3.426   6.974   3.041
 7448TIP3   OH222286   6.230   5.584   2.562
 7448TIP3    H122287   6.147   5.545   2.588
 7448TIP3    H222288   6.296   5.521   2.588
 7449TIP3   OH222289   6.448   7.646   1.897
 7449TIP3    H122290   6.366   7.606   1.926
 7449TIP3    H222291   6.496   7.663   1.977
 7450TIP3   OH222292   8.025   5.894   5.085
 7450TIP3    H122293   8.023   5.887   5.181
 7450TIP3    H222294   8.024   5.988   5.068
 7451TIP3   OH222295   7.015   3.624   2.547
 7451TIP3    H122296   6.975   3.665   2.470
 7451TIP3    H222297   7.075   3.690   2.582
 7452TIP3   OH222298   3.157   4.736   0.456
 7452TIP3    H122299   3.187   4.699   0.373
 7452TIP3    H222300   3.064   4.714   0.461
 7453TIP3   OH222301   0.522   5.662  -0.010
 7453TIP3    H122302   0.501   5.755   0.000
 7453TIP3    H222303   0.470   5.619   0.057
 7454TIP3   OH222304   6.404   7.687   5.633
 7454TIP3    H122305   6.429   7.604   5.593
 7454TIP3    H222306   6.364   7.737   5.562
 7455TIP3   OH222307   3.931   3.511   1.953
 7455TIP3    H122308   3.973   3.429   1.979
 7455TIP3    H222309   3.948   3.519   1.860
 7456TIP3   OH222310   8.006   1.613   6.649
 7456TIP3    H122311   7.937   1.656   6.699
 7456TIP3    H222312   8.067   1.579   6.715
 7457TIP3   OH222313   0.187   1.022   5.300
 7457TIP3    H122314   0.100   0.984   5.314
 7457TIP3    H222315   0.246   0.968   5.354
 7458TIP3   OH222316   5.099   3.690   6.205
 7458TIP3    H122317   5.189   3.659   6.192
 7458TIP3    H222318   5.102   3.784   6.188
 7459TIP3   OH222319   5.945   4.403   6.281
 7459TIP3    H122320   5.944   4.314   6.318
 7459TIP3    H222321   6.012   4.449   6.332
 7460TIP3   OH222322   3.137   0.873   5.044
 7460TIP3    H122323   3.081   0.838   5.113
 7460TIP3    H222324   3.116   0.821   4.967
 7461TIP3   OH222325   2.436   5.834   3.078
 7461TIP3    H122326   2.437   5.747   3.039
 7461TIP3    H222327   2.379   5.826   3.155
 7462TIP3   OH222328   2.122   2.566   3.906
 7462TIP3    H122329   2.062   2.640   3.898
 7462TIP3    H222330   2.167   2.580   3.989
 7463TIP3   OH222331   2.237   4.395   0.677
 7463TIP3    H122332   2.310   4.334   0.684
 7463TIP3    H222333   2.237   4.422   0.585
 7464TIP3   OH222334   6.307   7.582   0.839
 7464TIP3    H122335   6.370   7.576   0.910
 7464TIP3    H222336   6.350   7.637   0.773
 7465TIP3   OH222337   0.102   2.756   4.652
 7465TIP3    H122338   0.019   2.777   4.609
 7465TIP3    H222339   0.153   2.710   4.585
 7466TIP3   OH222340   5.605   1.943   0.770
 7466TIP3    H122341   5.683   1.937   0.825
 7466TIP3    H222342   5.567   2.028   0.792
 7467TIP3   OH222343   5.322   3.214   4.895
 7467TIP3    H122344   5.258   3.273   4.855
 7467TIP3    H222345   5.311   3.228   4.989
 7468TIP3   OH222346   6.519   1.588   3.590
 7468TIP3    H122347   6.484   1.516   3.643
 7468TIP3    H222348   6.442   1.635   3.560
 7469TIP3   OH222349   3.127   0.764   2.788
 7469TIP3    H122350   3.204   0.711   2.766
 7469TIP3    H222351   3.142   0.847   2.743
 7470TIP3   OH222352   4.481   5.909   4.876
 7470TIP3    H122353   4.558   5.928   4.822
 7470TIP3    H222354   4.513   5.915   4.966
 7471TIP3   OH222355   3.187   7.020   0.737
 7471TIP3    H122356   3.219   6.965   0.665
 7471TIP3    H222357   3.104   6.980   0.763
 7472TIP3   OH222358   1.514   7.438   1.029
 7472TIP3    H122359   1.520   7.344   1.042
 7472TIP3    H222360   1.487   7.448   0.938
 7473TIP3   OH222361   3.517   0.274   3.700
 7473TIP3    H122362   3.519   0.358   3.654
 7473TIP3    H222363   3.499   0.209   3.632
 7474TIP3   OH222364   2.575   5.440   3.145
 7474TIP3    H122365   2.635   5.506   3.179
 7474TIP3    H222366   2.562   5.465   3.053
 7475TIP3   OH222367   6.829   5.774   2.580
 7475TIP3    H122368   6.919   5.806   2.587
 7475TIP3    H222369   6.786   5.806   2.660
 7476TIP3   OH222370   3.598   4.795   0.392
 7476TIP3    H122371   3.532   4.807   0.461
 7476TIP3    H222372   3.676   4.839   0.427
 7477TIP3   OH222373   2.714   4.312   3.576
 7477TIP3    H122374   2.658   4.356   3.512
 7477TIP3    H222375   2.660   4.240   3.609
 7478TIP3   OH222376   8.134   1.186   4.826
 7478TIP3    H122377   8.060   1.204   4.884
 7478TIP3    H222378   8.178   1.270   4.816
 7479TIP3   OH222379   2.665   7.577   2.476
 7479TIP3    H122380   2.577   7.586   2.512
 7479TIP3    H222381   2.652   7.554   2.384
 7480TIP3   OH222382   5.804   1.682   6.375
 7480TIP3    H122383   5.798   1.683   6.279
 7480TIP3    H222384   5.742   1.749   6.404
 7481TIP3   OH222385   6.130   5.846   3.197
 7481TIP3    H122386   6.181   5.889   3.265
 7481TIP3    H222387   6.137   5.753   3.218
 7482TIP3   OH222388   4.702   1.552   0.779
 7482TIP3    H122389   4.641   1.480   0.795
 7482TIP3    H222390   4.767   1.545   0.848
 7483TIP3   OH222391   2.460   4.850   1.873
 7483TIP3    H122392   2.435   4.894   1.792
 7483TIP3    H222393   2.515   4.777   1.845
 7484TIP3   OH222394   3.249   1.224   5.284
 7484TIP3    H122395   3.329   1.194   5.327
 7484TIP3    H222396   3.251   1.319   5.294
 7485TIP3   OH222397   1.077   2.543   1.454
 7485TIP3    H122398   1.125   2.484   1.512
 7485TIP3    H222399   1.060   2.620   1.508
 7486TIP3   OH222400   7.568   2.966   1.267
 7486TIP3    H122401   7.600   3.003   1.349
 7486TIP3    H222402   7.635   2.902   1.242
 7487TIP3   OH222403   7.965   2.867   0.858
 7487TIP3    H122404   7.871   2.873   0.878
 7487TIP3    H222405   7.985   2.774   0.861
 7488TIP3   OH222406   6.419   5.693   6.174
 7488TIP3    H122407   6.486   5.640   6.216
 7488TIP3    H222408   6.414   5.659   6.084
 7489TIP3   OH222409   3.727   2.231   1.556
 7489TIP3    H122410   3.747   2.303   1.616
 7489TIP3    H222411   3.717   2.155   1.612
 7490TIP3   OH222412   0.835   3.881   2.921
 7490TIP3    H122413   0.840   3.971   2.888
 7490TIP3    H222414   0.811   3.829   2.845
 7491TIP3   OH222415   0.613   4.567   3.441
 7491TIP3    H122416   0.528   4.594   3.476
 7491TIP3    H222417   0.598   4.558   3.347
 7492TIP3   OH222418   1.736   7.690   3.345
 7492TIP3    H122419   1.817   7.716   3.390
 7492TIP3    H222420   1.745   7.595   3.335
 7493TIP3   OH222421   7.016   7.206   6.599
 7493TIP3    H122422   7.098   7.217   6.647
 7493TIP3    H222423   7.021   7.117   6.563
 7494TIP3   OH222424   8.043   5.493   0.657
 7494TIP3    H122425   8.057   5.416   0.712
 7494TIP3    H222426   7.990   5.552   0.711
 7495TIP3   OH222427   2.581   3.097   2.852
 7495TIP3    H122428   2.658   3.098   2.909
 7495TIP3    H222429   2.600   3.029   2.788
 7496TIP3   OH222430   1.141   5.193   2.712
 7496TIP3    H122431   1.085   5.255   2.757
 7496TIP3    H222432   1.198   5.157   2.781
 7497TIP3   OH222433   4.196   6.382   2.010
 7497TIP3    H122434   4.122   6.363   1.953
 7497TIP3    H222435   4.167   6.455   2.065
 7498TIP3   OH222436   1.845   7.812   5.901
 7498TIP3    H122437   1.756   7.830   5.871
 7498TIP3    H222438   1.835   7.751   5.974
 7499TIP3   OH222439   3.972   3.292   2.954
 7499TIP3    H122440   3.907   3.337   2.900
 7499TIP3    H222441   3.980   3.346   3.032
 7500TIP3   OH222442   4.676   3.243   5.401
 7500TIP3    H122443   4.723   3.229   5.319
 7500TIP3    H222444   4.592   3.199   5.390
 7501TIP3   OH222445   1.167   1.111   3.626
 7501TIP3    H122446   1.149   1.074   3.540
 7501TIP3    H222447   1.248   1.071   3.654
 7502TIP3   OH222448   7.076   1.887   6.563
 7502TIP3    H122449   7.100   1.977   6.539
 7502TIP3    H222450   7.150   1.857   6.617
 7503TIP3   OH222451   4.835   7.375   5.576
 7503TIP3    H122452   4.885   7.337   5.649
 7503TIP3    H222453   4.761   7.418   5.618
 7504TIP3   OH222454   7.418   1.792   1.114
 7504TIP3    H122455   7.442   1.879   1.081
 7504TIP3    H222456   7.344   1.809   1.172
 7505TIP3   OH222457   7.597   5.346   6.073
 7505TIP3    H122458   7.613   5.287   6.000
 7505TIP3    H222459   7.561   5.425   6.032
 7506TIP3   OH222460   3.095   3.483   2.617
 7506TIP3    H122461   3.141   3.502   2.698
 7506TIP3    H222462   3.151   3.519   2.548
 7507TIP3   OH222463   1.962   5.332   0.530
 7507TIP3    H122464   1.919   5.347   0.614
 7507TIP3    H222465   1.914   5.260   0.490
 7508TIP3   OH222466   3.654   4.432   6.166
 7508TIP3    H122467   3.572   4.387   6.186
 7508TIP3    H222468   3.715   4.403   6.234
 7509TIP3   OH222469   8.198   5.489   3.631
 7509TIP3    H122470   8.212   5.426   3.561
 7509TIP3    H222471   8.286   5.519   3.655
 7510TIP3   OH222472   7.361   6.509   6.542
 7510TIP3    H122473   7.281   6.506   6.490
 7510TIP3    H222474   7.377   6.602   6.556
 7511TIP3   OH222475   1.635   4.993   3.679
 7511TIP3    H122476   1.571   4.925   3.700
 7511TIP3    H222477   1.693   4.996   3.755
 7512TIP3   OH222478   0.507   6.540   4.117
 7512TIP3    H122479   0.539   6.629   4.134
 7512TIP3    H222480   0.479   6.507   4.202
 7513TIP3   OH222481   2.619   1.034   0.813
 7513TIP3    H122482   2.709   1.002   0.825
 7513TIP3    H222483   2.625   1.096   0.741
 7514TIP3   OH222484   2.233   2.730   0.795
 7514TIP3    H122485   2.210   2.822   0.808
 7514TIP3    H222486   2.256   2.724   0.702
 7515TIP3   OH222487   4.265   6.409   4.193
 7515TIP3    H122488   4.280   6.314   4.185
 7515TIP3    H222489   4.221   6.432   4.111
 7516TIP3   OH222490   7.111   3.154   6.049
 7516TIP3    H122491   7.100   3.246   6.026
 7516TIP3    H222492   7.137   3.155   6.141
 7517TIP3   OH222493   3.105   5.174   2.267
 7517TIP3    H122494   3.026   5.204   2.312
 7517TIP3    H222495   3.131   5.248   2.212
 7518TIP3   OH222496   7.775   5.337   2.212
 7518TIP3    H122497   7.789   5.243   2.199
 7518TIP3    H222498   7.744   5.368   2.127
 7519TIP3   OH222499   3.451   5.979   2.108
 7519TIP3    H122500   3.434   6.046   2.042
 7519TIP3    H222501   3.415   5.899   2.070
 7520TIP3   OH222502   7.201   3.928   3.972
 7520TIP3    H122503   7.252   3.949   4.050
 7520TIP3    H222504   7.255   3.956   3.898
 7521TIP3   OH222505   5.479   5.435   5.782
 7521TIP3    H122506   5.390   5.401   5.793
 7521TIP3    H222507   5.475   5.487   5.702
 7522TIP3   OH222508   4.757   7.637   3.187
 7522TIP3    H122509   4.746   7.612   3.095
 7522TIP3    H222510   4.673   7.675   3.212
 7523TIP3   OH222511   0.079   3.484   1.737
 7523TIP3    H122512   0.083   3.569   1.694
 7523TIP3    H222513   0.053   3.424   1.667
 7524TIP3   OH222514   3.354   1.048   3.279
 7524TIP3    H122515   3.423   0.986   3.304
 7524TIP3    H222516   3.288   1.039   3.348
 7525TIP3   OH222517   1.260   0.793   1.374
 7525TIP3    H122518   1.175   0.771   1.337
 7525TIP3    H222519   1.323   0.745   1.320
 7526TIP3   OH222520   3.402   1.312   0.126
 7526TIP3    H122521   3.345   1.324   0.202
 7526TIP3    H222522   3.490   1.328   0.159
 7527TIP3   OH222523   7.573   4.552   3.442
 7527TIP3    H122524   7.532   4.470   3.415
 7527TIP3    H222525   7.571   4.550   3.538
 7528TIP3   OH222526   6.369   5.413   5.630
 7528TIP3    H122527   6.429   5.355   5.583
 7528TIP3    H222528   6.352   5.368   5.713
 7529TIP3   OH222529   5.026   0.604   6.057
 7529TIP3    H122530   5.091   0.590   6.125
 7529TIP3    H222531   5.036   0.528   5.999
 7530TIP3   OH222532   5.078   5.508   1.735
 7530TIP3    H122533   5.138   5.566   1.782
 7530TIP3    H222534   5.000   5.504   1.790
 7531TIP3   OH222535   2.452   5.785   1.387
 7531TIP3    H122536   2.518   5.726   1.424
 7531TIP3    H222537   2.392   5.728   1.339
 7532TIP3   OH222538   3.600   0.432   0.475
 7532TIP3    H122539   3.635   0.418   0.387
 7532TIP3    H222540   3.573   0.523   0.476
 7533TIP3   OH222541   6.503   5.908   2.363
 7533TIP3    H122542   6.417   5.892   2.325
 7533TIP3    H222543   6.538   5.821   2.382
 7534TIP3   OH222544   7.618   2.639   0.386
 7534TIP3    H122545   7.561   2.701   0.431
 7534TIP3    H222546   7.642   2.575   0.454
 7535TIP3   OH222547   5.191   4.093   5.896
 7535TIP3    H122548   5.115   4.149   5.880
 7535TIP3    H222549   5.188   4.027   5.826
 7536TIP3   OH222550   2.581   5.155   5.809
 7536TIP3    H122551   2.628   5.201   5.739
 7536TIP3    H222552   2.556   5.225   5.870
 7537TIP3   OH222553   6.400   3.055   1.097
 7537TIP3    H122554   6.371   3.051   1.188
 7537TIP3    H222555   6.481   3.003   1.096
 7538TIP3   OH222556   1.198   6.806   2.715
 7538TIP3    H122557   1.261   6.792   2.786
 7538TIP3    H222558   1.159   6.720   2.700
 7539TIP3   OH222559   2.987   6.297   4.614
 7539TIP3    H122560   3.071   6.342   4.619
 7539TIP3    H222561   2.993   6.243   4.534
 7540TIP3   OH222562   3.516   4.497   4.730
 7540TIP3    H122563   3.520   4.561   4.658
 7540TIP3    H222564   3.542   4.547   4.807
 7541TIP3   OH222565   3.117   5.965   5.632
 7541TIP3    H122566   3.132   5.873   5.652
 7541TIP3    H222567   3.197   6.009   5.662
 7542TIP3   OH222568   7.145   5.046   3.815
 7542TIP3    H122569   7.222   5.039   3.872
 7542TIP3    H222570   7.114   4.956   3.806
 7543TIP3   OH222571   2.451   6.723   1.103
 7543TIP3    H122572   2.509   6.651   1.129
 7543TIP3    H222573   2.422   6.699   1.015
 7544TIP3   OH222574   7.580   6.329   4.250
 7544TIP3    H122575   7.517   6.396   4.226
 7544TIP3    H222576   7.568   6.260   4.185
 7545TIP3   OH222577   0.450   3.121   0.609
 7545TIP3    H122578   0.411   3.047   0.656
 7545TIP3    H222579   0.461   3.189   0.675
 7546TIP3   OH222580   6.721   3.911   6.528
 7546TIP3    H122581   6.658   3.888   6.596
 7546TIP3    H222582   6.668   3.921   6.449
 7547TIP3   OH222583   6.761   7.802   5.496
 7547TIP3    H122584   6.756   7.879   5.440
 7547TIP3    H222585   6.734   7.834   5.582
 7548TIP3   OH222586   3.267   7.412   6.447
 7548TIP3    H122587   3.360   7.387   6.448
 7548TIP3    H222588   3.267   7.506   6.464
 7549TIP3   OH222589   1.324   4.891   3.241
 7549TIP3    H122590   1.242   4.861   3.201
 7549TIP3    H222591   1.368   4.940   3.172
 7550TIP3   OH222592   5.925   5.782   4.198
 7550TIP3    H122593   5.926   5.733   4.280
 7550TIP3    H222594   5.869   5.858   4.216
 7551TIP3   OH222595   0.559   1.712   6.703
 7551TIP3    H122596   0.512   1.631   6.722
 7551TIP3    H222597   0.540   1.731   6.611
 7552TIP3   OH222598   0.426   7.481   0.388
 7552TIP3    H122599   0.453   7.493   0.479
 7552TIP3    H222600   0.505   7.450   0.343
 7553TIP3   OH222601   3.032   5.832   5.197
 7553TIP3    H122602   3.081   5.907   5.231
 7553TIP3    H222603   3.092   5.792   5.134
 7554TIP3   OH222604   2.790   0.528   4.010
 7554TIP3    H122605   2.720   0.491   3.956
 7554TIP3    H222606   2.745   0.563   4.087
 7555TIP3   OH222607   6.480   6.345   6.352
 7555TIP3    H122608   6.432   6.423   6.377
 7555TIP3    H222609   6.412   6.281   6.330
 7556TIP3   OH222610   0.248   2.045   5.898
 7556TIP3    H122611   0.234   2.127   5.946
 7556TIP3    H222612   0.343   2.035   5.896
 7557TIP3   OH222613   1.347   5.818   0.212
 7557TIP3    H122614   1.420   5.879   0.222
 7557TIP3    H222615   1.338   5.807   0.117
 7558TIP3   OH222616   2.816   1.941   6.234
 7558TIP3    H122617   2.776   2.006   6.292
 7558TIP3    H222618   2.823   1.862   6.287
 7559TIP3   OH222619   4.698   4.867   1.557
 7559TIP3    H122620   4.625   4.891   1.614
 7559TIP3    H222621   4.740   4.793   1.600
 7560TIP3   OH222622   1.997   2.737   2.706
 7560TIP3    H122623   2.077   2.687   2.685
 7560TIP3    H222624   1.931   2.700   2.647
 7561TIP3   OH222625   5.117   4.779   1.629
 7561TIP3    H122626   5.053   4.818   1.569
 7561TIP3    H222627   5.159   4.710   1.577
 7562TIP3   OH222628   6.612   5.112   1.984
 7562TIP3    H122629   6.617   5.081   2.075
 7562TIP3    H222630   6.696   5.157   1.970
 7563TIP3   OH222631   3.137   6.309   5.842
 7563TIP3    H122632   3.150   6.375   5.909
 7563TIP3    H222633   3.071   6.249   5.879
 7564TIP3   OH222634   2.422   4.387   5.017
 7564TIP3    H122635   2.327   4.379   5.017
 7564TIP3    H222636   2.440   4.457   4.953
 7565TIP3   OH222637   4.874   3.483   3.017
 7565TIP3    H122638   4.889   3.460   3.108
 7565TIP3    H222639   4.779   3.490   3.009
 7566TIP3   OH222640   6.529   6.225   3.347
 7566TIP3    H122641   6.508   6.181   3.265
 7566TIP3    H222642   6.594   6.292   3.323
 7567TIP3   OH222643   7.086   7.573   6.059
 7567TIP3    H122644   7.163   7.518   6.045
 7567TIP3    H222645   7.095   7.604   6.150
 7568TIP3   OH222646   4.272   3.070   1.228
 7568TIP3    H122647   4.208   3.030   1.287
 7568TIP3    H222648   4.356   3.061   1.274
 7569TIP3   OH222649   4.899   3.148   0.782
 7569TIP3    H122650   4.880   3.194   0.699
 7569TIP3    H222651   4.816   3.149   0.829
 7570TIP3   OH222652   4.340   7.428   5.915
 7570TIP3    H122653   4.313   7.498   5.855
 7570TIP3    H222654   4.314   7.347   5.871
 7571TIP3   OH222655   4.777   6.338   3.249
 7571TIP3    H122656   4.845   6.278   3.281
 7571TIP3    H222657   4.716   6.347   3.323
 7572TIP3   OH222658   2.716   5.929   5.293
 7572TIP3    H122659   2.705   5.834   5.298
 7572TIP3    H222660   2.769   5.951   5.369
 7573TIP3   OH222661   4.758   1.955   6.549
 7573TIP3    H122662   4.769   1.953   6.454
 7573TIP3    H222663   4.773   2.046   6.573
 7574TIP3   OH222664   1.524   1.313   0.047
 7574TIP3    H122665   1.459   1.383   0.051
 7574TIP3    H222666   1.558   1.317  -0.042
 7575TIP3   OH222667   0.136   4.903   6.487
 7575TIP3    H122668   0.135   4.925   6.394
 7575TIP3    H222669   0.097   4.816   6.492
 7576TIP3   OH222670   0.077   5.565   1.676
 7576TIP3    H122671   0.010   5.582   1.609
 7576TIP3    H222672   0.132   5.644   1.675
 7577TIP3   OH222673   1.236   5.985   4.718
 7577TIP3    H122674   1.320   6.029   4.703
 7577TIP3    H222675   1.257   5.891   4.713
 7578TIP3   OH222676   3.457   4.575   1.614
 7578TIP3    H122677   3.526   4.573   1.680
 7578TIP3    H222678   3.398   4.645   1.643
 7579TIP3   OH222679   6.797   0.231   5.735
 7579TIP3    H122680   6.827   0.269   5.653
 7579TIP3    H222681   6.741   0.158   5.709
 7580TIP3   OH222682   5.165   6.877   6.508
 7580TIP3    H122683   5.082   6.904   6.468
 7580TIP3    H222684   5.229   6.882   6.437
 7581TIP3   OH222685   2.186   3.317   0.849
 7581TIP3    H122686   2.106   3.301   0.900
 7581TIP3    H222687   2.166   3.397   0.799
 7582TIP3   OH222688   6.219   1.218   0.944
 7582TIP3    H122689   6.224   1.127   0.916
 7582TIP3    H222690   6.297   1.231   0.999
 7583TIP3   OH222691   0.260   1.428   3.226
 7583TIP3    H122692   0.308   1.451   3.147
 7583TIP3    H222693   0.236   1.336   3.214
 7584TIP3   OH222694   4.093   2.561   3.748
 7584TIP3    H122695   4.182   2.548   3.713
 7584TIP3    H222696   4.106   2.607   3.830
 7585TIP3   OH222697   0.580   1.901   1.621
 7585TIP3    H122698   0.579   1.809   1.595
 7585TIP3    H222699   0.659   1.936   1.580
 7586TIP3   OH222700   2.982   7.509   0.533
 7586TIP3    H122701   2.988   7.513   0.437
 7586TIP3    H222702   2.996   7.417   0.554
 7587TIP3   OH222703   8.089   1.976   0.502
 7587TIP3    H122704   8.050   1.893   0.531
 7587TIP3    H222705   8.015   2.035   0.493
 7588TIP3   OH222706   5.687   1.008   1.787
 7588TIP3    H122707   5.668   0.992   1.880
 7588TIP3    H222708   5.641   1.089   1.767
 7589TIP3   OH222709   7.582   0.129   0.077
 7589TIP3    H122710   7.509   0.072   0.052
 7589TIP3    H222711   7.597   0.109   0.169
 7590TIP3   OH222712   7.702   0.202   1.285
 7590TIP3    H122713   7.690   0.272   1.349
 7590TIP3    H222714   7.633   0.217   1.220
 7591TIP3   OH222715   3.638   3.478   1.244
 7591TIP3    H122716   3.632   3.398   1.192
 7591TIP3    H222717   3.597   3.545   1.189
 7592TIP3   OH222718   2.214   4.604   2.107
 7592TIP3    H122719   2.184   4.581   2.019
 7592TIP3    H222720   2.193   4.697   2.115
 7593TIP3   OH222721   6.643   2.345   0.145
 7593TIP3    H122722   6.685   2.332   0.060
 7593TIP3    H222723   6.596   2.264   0.162
 7594TIP3   OH222724   3.179   0.614   5.280
 7594TIP3    H122725   3.110   0.595   5.215
 7594TIP3    H222726   3.137   0.672   5.343
 7595TIP3   OH222727   8.155   0.444   2.456
 7595TIP3    H122728   8.061   0.432   2.443
 7595TIP3    H222729   8.192   0.356   2.452
 7596TIP3   OH222730   1.821   5.101   0.502
 7596TIP3    H122731   1.728   5.087   0.521
 7596TIP3    H222732   1.835   5.056   0.419
 7597TIP3   OH222733   1.823   3.459   2.072
 7597TIP3    H122734   1.868   3.521   2.015
 7597TIP3    H222735   1.735   3.496   2.082
 7598TIP3   OH222736   6.144   1.148   1.947
 7598TIP3    H122737   6.147   1.166   2.041
 7598TIP3    H222738   6.236   1.150   1.920
 7599TIP3   OH222739   2.460   1.477   5.100
 7599TIP3    H122740   2.377   1.519   5.077
 7599TIP3    H222741   2.435   1.392   5.136
 7600TIP3   OH222742   6.990   6.930   1.174
 7600TIP3    H122743   7.013   6.958   1.262
 7600TIP3    H222744   6.947   6.845   1.185
 7601TIP3   OH222745   1.856   0.218   1.466
 7601TIP3    H122746   1.826   0.304   1.496
 7601TIP3    H222747   1.881   0.172   1.546
 7602TIP3   OH222748   4.708   3.134   2.664
 7602TIP3    H122749   4.627   3.120   2.713
 7602TIP3    H222750   4.692   3.090   2.580
 7603TIP3   OH222751   3.605   2.554   2.262
 7603TIP3    H122752   3.646   2.640   2.272
 7603TIP3    H222753   3.595   2.522   2.351
 7604TIP3   OH222754   5.687   0.497   1.960
 7604TIP3    H122755   5.735   0.439   2.018
 7604TIP3    H222756   5.720   0.585   1.980
 7605TIP3   OH222757   7.997   1.439   2.100
 7605TIP3    H122758   8.004   1.499   2.025
 7605TIP3    H222759   8.081   1.445   2.144
 7606TIP3   OH222760   6.746   0.716   2.392
 7606TIP3    H122761   6.697   0.783   2.439
 7606TIP3    H222762   6.836   0.726   2.423
 7607TIP3   OH222763   2.167   2.465   3.416
 7607TIP3    H122764   2.238   2.479   3.353
 7607TIP3    H222765   2.207   2.412   3.485
 7608TIP3   OH222766   4.426   5.202   4.964
 7608TIP3    H122767   4.463   5.275   5.013
 7608TIP3    H222768   4.384   5.243   4.888
 7609TIP3   OH222769   2.533   5.783   6.269
 7609TIP3    H122770   2.557   5.783   6.362
 7609TIP3    H222771   2.453   5.730   6.265
 7610TIP3   OH222772   3.015   1.143   6.159
 7610TIP3    H122773   3.012   1.155   6.065
 7610TIP3    H222774   3.049   1.226   6.193
 7611TIP3   OH222775   6.782   7.255   6.088
 7611TIP3    H122776   6.703   7.300   6.058
 7611TIP3    H222777   6.770   7.164   6.058
 7612TIP3   OH222778   0.213   0.920   0.801
 7612TIP3    H122779   0.295   0.927   0.850
 7612TIP3    H222780   0.198   0.826   0.793
 7613TIP3   OH222781   3.268   1.008   6.625
 7613TIP3    H122782   3.320   0.928   6.635
 7613TIP3    H222783   3.191   0.993   6.680
 7614TIP3   OH222784   7.345   6.137   5.428
 7614TIP3    H122785   7.334   6.054   5.475
 7614TIP3    H222786   7.430   6.170   5.459
 7615TIP3   OH222787   0.758   4.968   5.667
 7615TIP3    H122788   0.791   5.028   5.601
 7615TIP3    H222789   0.783   4.881   5.636
 7616TIP3   OH222790   0.414   2.110   1.567
 7616TIP3    H122791   0.423   2.097   1.473
 7616TIP3    H222792   0.459   2.036   1.606
 7617TIP3   OH222793   5.781   4.141   6.662
 7617TIP3    H122794   5.731   4.072   6.620
 7617TIP3    H222795   5.849   4.164   6.599
 7618TIP3   OH222796   4.694   6.084   3.922
 7618TIP3    H122797   4.787   6.095   3.902
 7618TIP3    H222798   4.674   6.153   3.985
 7619TIP3   OH222799   2.992   5.478   0.321
 7619TIP3    H122800   2.945   5.395   0.312
 7619TIP3    H222801   2.982   5.521   0.236
 7620TIP3   OH222802   6.647   3.529   0.717
 7620TIP3    H122803   6.616   3.543   0.628
 7620TIP3    H222804   6.568   3.535   0.771
 7621TIP3   OH222805   7.981   2.164   4.574
 7621TIP3    H122806   7.958   2.255   4.593
 7621TIP3    H222807   7.901   2.126   4.536
 7622TIP3   OH222808   7.928   3.839   4.486
 7622TIP3    H122809   7.833   3.839   4.474
 7622TIP3    H222810   7.957   3.755   4.449
 7623TIP3   OH222811   2.397   0.203   1.488
 7623TIP3    H122812   2.422   0.191   1.580
 7623TIP3    H222813   2.315   0.154   1.480
 7624TIP3   OH222814   8.098   4.264   4.137
 7624TIP3    H122815   8.121   4.176   4.167
 7624TIP3    H222816   8.147   4.275   4.056
 7625TIP3   OH222817   0.602   1.967   0.076
 7625TIP3    H122818   0.515   2.004   0.094
 7625TIP3    H222819   0.639   2.025   0.010
 7626TIP3   OH222820   6.454   4.136   2.486
 7626TIP3    H122821   6.377   4.085   2.514
 7626TIP3    H222822   6.495   4.082   2.418
 7627TIP3   OH222823   7.798   1.798   1.652
 7627TIP3    H122824   7.891   1.802   1.633
 7627TIP3    H222825   7.765   1.886   1.632
 7628TIP3   OH222826   5.734   6.132   5.069
 7628TIP3    H122827   5.813   6.170   5.107
 7628TIP3    H222828   5.682   6.207   5.040
 7629TIP3   OH222829   0.436   7.615   5.676
 7629TIP3    H122830   0.483   7.534   5.653
 7629TIP3    H222831   0.381   7.590   5.750
 7630TIP3   OH222832   1.745   3.082   5.134
 7630TIP3    H122833   1.679   3.013   5.141
 7630TIP3    H222834   1.823   3.045   5.176
 7631TIP3   OH222835   5.219   5.942   3.947
 7631TIP3    H122836   5.171   6.015   3.907
 7631TIP3    H222837   5.274   5.908   3.877
 7632TIP3   OH222838   4.098   6.529   0.651
 7632TIP3    H122839   4.152   6.585   0.596
 7632TIP3    H222840   4.026   6.501   0.595
 7633TIP3   OH222841   2.187   2.789   1.474
 7633TIP3    H122842   2.225   2.873   1.447
 7633TIP3    H222843   2.163   2.746   1.392
 7634TIP3   OH222844   0.362   0.941   5.634
 7634TIP3    H122845   0.364   0.876   5.704
 7634TIP3    H222846   0.388   1.023   5.676
 7635TIP3   OH222847   5.877   0.500   0.519
 7635TIP3    H122848   5.960   0.498   0.471
 7635TIP3    H222849   5.850   0.409   0.525
 7636TIP3   OH222850   1.704   2.469   3.378
 7636TIP3    H122851   1.699   2.504   3.289
 7636TIP3    H222852   1.686   2.375   3.368
 7637TIP3   OH222853   1.255   7.306   5.363
 7637TIP3    H122854   1.259   7.372   5.294
 7637TIP3    H222855   1.161   7.292   5.377
 7638TIP3   OH222856   0.871   1.545   1.621
 7638TIP3    H122857   0.886   1.592   1.704
 7638TIP3    H222858   0.806   1.598   1.575
 7639TIP3   OH222859   2.191   4.458   0.429
 7639TIP3    H122860   2.245   4.395   0.380
 7639TIP3    H222861   2.112   4.467   0.376
 7640TIP3   OH222862   3.870   2.258   3.250
 7640TIP3    H122863   3.868   2.238   3.344
 7640TIP3    H222864   3.796   2.316   3.236
 7641TIP3   OH222865   0.210   0.609   4.533
 7641TIP3    H122866   0.141   0.603   4.599
 7641TIP3    H222867   0.195   0.534   4.476
 7642TIP3   OH222868   5.955   1.006   3.501
 7642TIP3    H122869   5.944   1.031   3.592
 7642TIP3    H222870   5.972   0.912   3.504
 7643TIP3   OH222871   1.477   5.078   2.361
 7643TIP3    H122872   1.412   5.144   2.385
 7643TIP3    H222873   1.526   5.061   2.441
 7644TIP3   OH222874   0.272   2.764   6.388
 7644TIP3    H122875   0.226   2.792   6.467
 7644TIP3    H222876   0.365   2.781   6.406
 7645TIP3   OH222877   4.749   0.439   6.503
 7645TIP3    H122878   4.663   0.479   6.493
 7645TIP3    H222879   4.739   0.352   6.463
 7646TIP3   OH222880   3.525   4.255   3.737
 7646TIP3    H122881   3.573   4.201   3.675
 7646TIP3    H222882   3.590   4.277   3.805
 7647TIP3   OH222883   7.751  -0.012   1.815
 7647TIP3    H122884   7.710  -0.097   1.805
 7647TIP3    H222885   7.706   0.045   1.753
 7648TIP3   OH222886   4.161   0.345   2.714
 7648TIP3    H122887   4.251   0.336   2.747
 7648TIP3    H222888   4.143   0.262   2.671
 7649TIP3   OH222889   0.631   1.957   5.661
 7649TIP3    H122890   0.583   1.982   5.740
 7649TIP3    H222891   0.719   1.938   5.692
 7650TIP3   OH222892   1.955   7.228   4.907
 7650TIP3    H122893   1.922   7.184   4.986
 7650TIP3    H222894   2.050   7.232   4.920
 7651TIP3   OH222895  -0.008   6.773   3.819
 7651TIP3    H122896   0.011   6.715   3.745
 7651TIP3    H222897   0.067   6.762   3.878
 7652TIP3   OH222898   5.818   6.083   1.865
 7652TIP3    H122899   5.731   6.048   1.848
 7652TIP3    H222900   5.863   6.078   1.780
 7653TIP3   OH222901   1.293   3.919   5.685
 7653TIP3    H122902   1.202   3.888   5.681
 7653TIP3    H222903   1.285   4.014   5.683
 7654TIP3   OH222904   0.467   5.073   5.269
 7654TIP3    H122905   0.543   5.120   5.301
 7654TIP3    H222906   0.420   5.136   5.213
 7655TIP3   OH222907   6.903   0.182   6.517
 7655TIP3    H122908   6.992   0.183   6.551
 7655TIP3    H222909   6.885   0.273   6.494
 7656TIP3   OH222910   1.800   7.777   1.961
 7656TIP3    H122911   1.788   7.749   2.052
 7656TIP3    H222912   1.719   7.823   1.939
 7657TIP3   OH222913   8.208   0.982   5.301
 7657TIP3    H122914   8.205   1.061   5.354
 7657TIP3    H222915   8.219   1.013   5.211
 7658TIP3   OH222916   7.531   1.630   3.139
 7658TIP3    H122917   7.473   1.703   3.159
 7658TIP3    H222918   7.531   1.577   3.218
 7659TIP3   OH222919   5.119   6.931   1.236
 7659TIP3    H122920   5.095   6.894   1.151
 7659TIP3    H222921   5.214   6.934   1.235
 7660TIP3   OH222922   6.108   5.659   4.922
 7660TIP3    H122923   6.134   5.723   4.855
 7660TIP3    H222924   6.176   5.666   4.989
 7661TIP3   OH222925   2.708   5.463   0.041
 7661TIP3    H122926   2.743   5.414   0.115
 7661TIP3    H222927   2.748   5.550   0.049
 7662TIP3   OH222928   0.549   4.016   2.761
 7662TIP3    H122929   0.515   4.026   2.850
 7662TIP3    H222930   0.519   3.929   2.734
 7663TIP3   OH222931   0.484   6.003   2.536
 7663TIP3    H122932   0.398   6.017   2.575
 7663TIP3    H222933   0.479   5.916   2.497
 7664TIP3   OH222934   5.365   2.824   5.068
 7664TIP3    H122935   5.280   2.867   5.082
 7664TIP3    H222936   5.372   2.761   5.140
 7665TIP3   OH222937   0.199   0.714   6.496
 7665TIP3    H122938   0.137   0.662   6.445
 7665TIP3    H222939   0.260   0.650   6.532
 7666TIP3   OH222940   7.400   3.481   4.669
 7666TIP3    H122941   7.403   3.552   4.605
 7666TIP3    H222942   7.312   3.445   4.662
 7667TIP3   OH222943   5.033   0.034   2.983
 7667TIP3    H122944   4.986  -0.043   2.951
 7667TIP3    H222945   5.034   0.094   2.909
 7668TIP3   OH222946   2.752   3.129   1.772
 7668TIP3    H122947   2.771   3.216   1.806
 7668TIP3    H222948   2.779   3.070   1.843
 7669TIP3   OH222949   4.559   7.591   0.854
 7669TIP3    H122950   4.574   7.571   0.946
 7669TIP3    H222951   4.536   7.684   0.853
 7670TIP3   OH222952   5.690   5.961   2.982
 7670TIP3    H122953   5.656   5.900   3.048
 7670TIP3    H222954   5.760   5.913   2.938
 7671TIP3   OH222955   0.373   5.901   1.884
 7671TIP3    H122956   0.462   5.922   1.912
 7671TIP3    H222957   0.362   5.809   1.909
 7672TIP3   OH222958   2.445   6.930   3.268
 7672TIP3    H122959   2.509   6.872   3.308
 7672TIP3    H222960   2.495   6.980   3.203
 7673TIP3   OH222961   3.960   0.298   4.673
 7673TIP3    H122962   3.974   0.204   4.662
 7673TIP3    H222963   4.016   0.322   4.747
 7674TIP3   OH222964   0.054   3.988   2.247
 7674TIP3    H122965   0.093   3.920   2.302
 7674TIP3    H222966   0.056   3.952   2.159
 7675TIP3   OH222967   7.279   2.206   5.764
 7675TIP3    H122968   7.262   2.146   5.691
 7675TIP3    H222969   7.342   2.160   5.819
 7676TIP3   OH222970   3.479   4.766   6.552
 7676TIP3    H122971   3.403   4.817   6.580
 7676TIP3    H222972   3.554   4.823   6.571
 7677TIP3   OH222973   5.318   5.790   2.962
 7677TIP3    H122974   5.261   5.724   2.923
 7677TIP3    H222975   5.259   5.848   3.010
 7678TIP3   OH222976   8.314   4.743   4.546
 7678TIP3    H122977   8.284   4.750   4.637
 7678TIP3    H222978   8.272   4.815   4.501
 7679TIP3   OH222979   4.039   2.419   5.271
 7679TIP3    H122980   4.035   2.376   5.186
 7679TIP3    H222981   3.962   2.385   5.318
 7680TIP3   OH222982   8.207   4.732   3.991
 7680TIP3    H122983   8.154   4.760   3.916
 7680TIP3    H222984   8.144   4.719   4.062
 7681TIP3   OH222985   6.813   0.430   0.568
 7681TIP3    H122986   6.784   0.448   0.479
 7681TIP3    H222987   6.745   0.468   0.624
 7682TIP3   OH222988   0.967   4.441   2.981
 7682TIP3    H122989   0.952   4.442   2.887
 7682TIP3    H222990   1.010   4.357   2.998
 7683TIP3   OH222991   0.999   1.282   3.742
 7683TIP3    H122992   1.048   1.226   3.681
 7683TIP3    H222993   1.049   1.362   3.748
 7684TIP3   OH222994   7.983   0.204   1.257
 7684TIP3    H122995   7.997   0.262   1.182
 7684TIP3    H222996   7.889   0.186   1.256
 7685TIP3   OH222997   5.525   3.804   4.107
 7685TIP3    H122998   5.571   3.868   4.161
 7685TIP3    H222999   5.568   3.721   4.126
 7686TIP3   OH223000   3.906   4.329   2.584
 7686TIP3    H123001   3.841   4.295   2.522
 7686TIP3    H223002   3.916   4.421   2.561
 7687TIP3   OH223003   7.901   7.762   4.567
 7687TIP3    H123004   7.902   7.827   4.637
 7687TIP3    H223005   7.968   7.698   4.591
 7688TIP3   OH223006   3.501   4.700   2.877
 7688TIP3    H123007   3.483   4.620   2.927
 7688TIP3    H223008   3.450   4.768   2.920
 7689TIP3   OH223009   5.937   4.555   1.684
 7689TIP3    H123010   5.879   4.481   1.669
 7689TIP3    H223011   5.979   4.537   1.768
 7690TIP3   OH223012   3.688   6.649   4.088
 7690TIP3    H123013   3.611   6.690   4.048
 7690TIP3    H223014   3.748   6.721   4.104
 7691TIP3   OH223015   6.325   2.449   6.490
 7691TIP3    H123016   6.382   2.484   6.559
 7691TIP3    H223017   6.244   2.501   6.497
 7692TIP3   OH223018   2.987   7.163   5.886
 7692TIP3    H123019   3.036   7.176   5.805
 7692TIP3    H223020   2.895   7.169   5.860
 7693TIP3   OH223021   3.336   2.630   2.424
 7693TIP3    H123022   3.361   2.712   2.380
 7693TIP3    H223023   3.281   2.584   2.360
 7694TIP3   OH223024   2.524   1.158   6.771
 7694TIP3    H123025   2.620   1.165   6.773
 7694TIP3    H223026   2.507   1.085   6.712
 7695TIP3   OH223027   4.395   7.641   6.280
 7695TIP3    H123028   4.474   7.588   6.266
 7695TIP3    H223029   4.323   7.580   6.270
 7696TIP3   OH223030   2.197   0.366   1.957
 7696TIP3    H123031   2.135   0.407   1.897
 7696TIP3    H223032   2.251   0.439   1.989
 7697TIP3   OH223033   6.571   2.990   6.115
 7697TIP3    H123034   6.616   2.990   6.031
 7697TIP3    H223035   6.479   3.004   6.092
 7698TIP3   OH223036   4.764   5.868   4.245
 7698TIP3    H123037   4.778   5.903   4.157
 7698TIP3    H223038   4.675   5.896   4.268
 7699TIP3   OH223039   6.836   6.474   4.045
 7699TIP3    H123040   6.899   6.496   3.975
 7699TIP3    H223041   6.890   6.466   4.124
 7700TIP3   OH223042   0.353   1.200   2.329
 7700TIP3    H123043   0.370   1.254   2.252
 7700TIP3    H223044   0.326   1.262   2.397
 7701TIP3   OH223045   8.185   7.092   4.712
 7701TIP3    H123046   8.258   7.031   4.722
 7701TIP3    H223047   8.115   7.040   4.672
 7702TIP3   OH223048   1.637   6.721   4.545
 7702TIP3    H123049   1.550   6.696   4.515
 7702TIP3    H223050   1.621   6.785   4.615
 7703TIP3   OH223051   0.524   3.021   0.975
 7703TIP3    H123052   0.527   3.007   1.070
 7703TIP3    H223053   0.460   3.090   0.963
 7704TIP3   OH223054   7.660   6.935   4.611
 7704TIP3    H123055   7.635   6.896   4.527
 7704TIP3    H223056   7.629   6.874   4.677
 7705TIP3   OH223057   7.108   1.864   3.555
 7705TIP3    H123058   7.032   1.922   3.549
 7705TIP3    H223059   7.114   1.842   3.648
 7706TIP3   OH223060   0.367   4.081   2.107
 7706TIP3    H123061   0.355   4.156   2.048
 7706TIP3    H223062   0.449   4.100   2.152
 7707TIP3   OH223063   3.118   6.273   2.162
 7707TIP3    H123064   3.106   6.184   2.129
 7707TIP3    H223065   3.180   6.264   2.234
 7708TIP3   OH223066   2.857   3.623   1.464
 7708TIP3    H123067   2.920   3.694   1.448
 7708TIP3    H223068   2.781   3.667   1.502
 7709TIP3   OH223069   5.803   5.492   4.749
 7709TIP3    H123070   5.898   5.477   4.752
 7709TIP3    H223071   5.769   5.440   4.822
 7710TIP3   OH223072   7.306   7.410   0.224
 7710TIP3    H123073   7.223   7.379   0.259
 7710TIP3    H223074   7.372   7.355   0.266
 7711TIP3   OH223075   8.032   4.716   3.241
 7711TIP3    H123076   8.041   4.794   3.295
 7711TIP3    H223077   7.952   4.673   3.273
 7712TIP3   OH223078   3.995   5.448   3.300
 7712TIP3    H123079   3.929   5.403   3.352
 7712TIP3    H223080   4.077   5.434   3.348
 7713TIP3   OH223081   4.862   6.100   6.191
 7713TIP3    H123082   4.772   6.127   6.207
 7713TIP3    H223083   4.861   6.063   6.103
 7714TIP3   OH223084   7.919   0.284   2.692
 7714TIP3    H123085   7.889   0.346   2.625
 7714TIP3    H223086   8.013   0.276   2.677
 7715TIP3   OH223087   8.253   3.118   5.318
 7715TIP3    H123088   8.265   3.212   5.302
 7715TIP3    H223089   8.328   3.076   5.275
 7716TIP3   OH223090   1.676   7.713   3.762
 7716TIP3    H123091   1.657   7.800   3.798
 7716TIP3    H223092   1.740   7.729   3.693
 7717TIP3   OH223093   6.278   3.336   4.178
 7717TIP3    H123094   6.230   3.256   4.196
 7717TIP3    H223095   6.212   3.398   4.146
 7718TIP3   OH223096   2.281   7.499   4.338
 7718TIP3    H123097   2.262   7.446   4.416
 7718TIP3    H223098   2.200   7.547   4.322
 7719TIP3   OH223099   2.380   5.073   6.686
 7719TIP3    H123100   2.327   5.067   6.607
 7719TIP3    H223101   2.469   5.087   6.655
 7720TIP3   OH223102   6.801   0.173   4.044
 7720TIP3    H123103   6.832   0.087   4.016
 7720TIP3    H223104   6.867   0.234   4.012
 7721TIP3   OH223105   7.333   6.155   2.039
 7721TIP3    H123106   7.331   6.204   1.957
 7721TIP3    H223107   7.407   6.096   2.031
 7722TIP3   OH223108   6.432   7.734   1.145
 7722TIP3    H123109   6.393   7.810   1.101
 7722TIP3    H223110   6.380   7.725   1.225
 7723TIP3   OH223111   2.569   4.051   0.879
 7723TIP3    H123112   2.551   3.965   0.916
 7723TIP3    H223113   2.544   4.043   0.787
 7724TIP3   OH223114   1.869   3.830   3.985
 7724TIP3    H123115   1.778   3.803   4.000
 7724TIP3    H223116   1.864   3.892   3.912
 7725TIP3   OH223117   1.250   6.087   2.856
 7725TIP3    H123118   1.201   6.046   2.784
 7725TIP3    H223119   1.227   6.036   2.933
 7726TIP3   OH223120   7.695   3.758   4.397
 7726TIP3    H123121   7.601   3.769   4.415
 7726TIP3    H223122   7.702   3.771   4.302
 7727TIP3   OH223123   4.267   2.799   6.176
 7727TIP3    H123124   4.312   2.842   6.104
 7727TIP3    H223125   4.284   2.705   6.162
 7728TIP3   OH223126   5.227   6.229   2.870
 7728TIP3    H123127   5.241   6.316   2.906
 7728TIP3    H223128   5.313   6.187   2.872
 7729TIP3   OH223129   0.547   4.970   2.213
 7729TIP3    H123130   0.610   5.019   2.160
 7729TIP3    H223131   0.473   4.955   2.154
 7730TIP3   OH223132   2.141   6.202   6.758
 7730TIP3    H123133   2.086   6.278   6.776
 7730TIP3    H223134   2.230   6.234   6.769
 7731TIP3   OH223135   0.873   4.701   3.464
 7731TIP3    H123136   0.880   4.714   3.370
 7731TIP3    H223137   0.783   4.672   3.478
 7732TIP3   OH223138   0.860   3.772   1.542
 7732TIP3    H123139   0.813   3.779   1.459
 7732TIP3    H223140   0.803   3.721   1.599
 7733TIP3   OH223141   2.153   2.497   4.520
 7733TIP3    H123142   2.222   2.436   4.494
 7733TIP3    H223143   2.098   2.505   4.442
 7734TIP3   OH223144   8.136   4.349   3.871
 7734TIP3    H123145   8.229   4.369   3.872
 7734TIP3    H223146   8.125   4.292   3.794
 7735TIP3   OH223147   8.034   0.426   1.107
 7735TIP3    H123148   8.070   0.398   1.023
 7735TIP3    H223149   8.104   0.477   1.148
 7736TIP3   OH223150   5.154   6.345   1.390
 7736TIP3    H123151   5.187   6.432   1.410
 7736TIP3    H223152   5.197   6.321   1.308
 7737TIP3   OH223153   0.870   4.258   1.277
 7737TIP3    H123154   0.831   4.345   1.279
 7737TIP3    H223155   0.834   4.217   1.199
 7738TIP3   OH223156   0.018   5.622   6.585
 7738TIP3    H123157   0.071   5.699   6.564
 7738TIP3    H223158  -0.033   5.648   6.662
 7739TIP3   OH223159   5.931   7.411   5.103
 7739TIP3    H123160   5.981   7.332   5.087
 7739TIP3    H223161   5.916   7.448   5.016
 7740TIP3   OH223162   1.812   3.535   0.293
 7740TIP3    H123163   1.849   3.621   0.312
 7740TIP3    H223164   1.732   3.554   0.244
 7741TIP3   OH223165   3.238   4.349   3.928
 7741TIP3    H123166   3.294   4.405   3.874
 7741TIP3    H223167   3.154   4.395   3.931
 7742TIP3   OH223168   0.500   3.718   2.931
 7742TIP3    H123169   0.575   3.663   2.955
 7742TIP3    H223170   0.482   3.695   2.840
 7743TIP3   OH223171   5.740   0.136   4.814
 7743TIP3    H123172   5.714   0.114   4.724
 7743TIP3    H223173   5.674   0.095   4.869
 7744TIP3   OH223174   5.881   2.306   6.233
 7744TIP3    H123175   5.898   2.367   6.305
 7744TIP3    H223176   5.955   2.245   6.235
 7745TIP3   OH223177   4.853   0.092   2.457
 7745TIP3    H123178   4.876   0.111   2.366
 7745TIP3    H223179   4.930   0.047   2.492
 7746TIP3   OH223180   0.116   6.906   2.851
 7746TIP3    H123181   0.118   7.002   2.849
 7746TIP3    H223182   0.067   6.882   2.772
 7747TIP3   OH223183   3.284   7.650   3.976
 7747TIP3    H123184   3.362   7.699   3.950
 7747TIP3    H223185   3.261   7.684   4.062
 7748TIP3   OH223186   1.801   2.528   6.255
 7748TIP3    H123187   1.848   2.603   6.217
 7748TIP3    H223188   1.838   2.518   6.342
 7749TIP3   OH223189   1.658   5.588   3.617
 7749TIP3    H123190   1.721   5.655   3.592
 7749TIP3    H223191   1.661   5.586   3.713
 7750TIP3   OH223192   3.841   0.144   6.060
 7750TIP3    H123193   3.933   0.146   6.036
 7750TIP3    H223194   3.830   0.219   6.120
 7751TIP3   OH223195   3.420   6.219   2.793
 7751TIP3    H123196   3.385   6.247   2.878
 7751TIP3    H223197   3.495   6.165   2.815
 7752TIP3   OH223198   2.883   6.100   2.008
 7752TIP3    H123199   2.871   6.092   2.103
 7752TIP3    H223200   2.896   6.194   1.994
 7753TIP3   OH223201   5.813   3.384   4.359
 7753TIP3    H123202   5.859   3.330   4.295
 7753TIP3    H223203   5.734   3.333   4.380
 7754TIP3   OH223204   3.730   1.732   6.060
 7754TIP3    H123205   3.651   1.717   6.110
 7754TIP3    H223206   3.801   1.704   6.118
 7755TIP3   OH223207   4.790   6.928   4.977
 7755TIP3    H123208   4.723   6.990   4.947
 7755TIP3    H223209   4.873   6.967   4.948
 7756TIP3   OH223210   3.610   6.589   4.550
 7756TIP3    H123211   3.690   6.594   4.498
 7756TIP3    H223212   3.641   6.591   4.641
 7757TIP3   OH223213   4.057   7.449   2.501
 7757TIP3    H123214   4.085   7.403   2.580
 7757TIP3    H223215   3.977   7.494   2.527
 7758TIP3   OH223216   1.558   1.389   0.911
 7758TIP3    H123217   1.647   1.367   0.882
 7758TIP3    H223218   1.529   1.312   0.959
 7759TIP3   OH223219   2.325   6.611   0.829
 7759TIP3    H123220   2.246   6.625   0.778
 7759TIP3    H223221   2.381   6.556   0.773
 7760TIP3   OH223222   6.619   6.080   1.403
 7760TIP3    H123223   6.598   6.168   1.432
 7760TIP3    H223224   6.707   6.087   1.365
 7761TIP3   OH223225   0.205   4.872   5.512
 7761TIP3    H123226   0.165   4.946   5.558
 7761TIP3    H223227   0.137   4.841   5.452
 7762TIP3   OH223228   5.580   6.329   3.066
 7762TIP3    H123229   5.512   6.392   3.092
 7762TIP3    H223230   5.557   6.248   3.112
 7763TIP3   OH223231   2.779   1.721   4.617
 7763TIP3    H123232   2.723   1.652   4.582
 7763TIP3    H223233   2.740   1.803   4.586
 7764TIP3   OH223234   1.737   2.857   6.619
 7764TIP3    H123235   1.700   2.770   6.634
 7764TIP3    H223236   1.671   2.903   6.567
 7765TIP3   OH223237   1.420   0.360   4.947
 7765TIP3    H123238   1.417   0.330   4.856
 7765TIP3    H223239   1.339   0.410   4.958
 7766TIP3   OH223240   8.028   3.254   2.050
 7766TIP3    H123241   8.116   3.257   2.013
 7766TIP3    H223242   7.970   3.275   1.977
 7767TIP3   OH223243   3.754   6.545   4.835
 7767TIP3    H123244   3.833   6.536   4.889
 7767TIP3    H223245   3.705   6.465   4.852
 7768TIP3   OH223246   0.197   5.442   0.558
 7768TIP3    H123247   0.268   5.446   0.493
 7768TIP3    H223248   0.240   5.461   0.641
 7769TIP3   OH223249   2.937   2.380   4.096
 7769TIP3    H123250   3.023   2.344   4.114
 7769TIP3    H223251   2.939   2.401   4.002
 7770TIP3   OH223252   7.995   3.804   5.373
 7770TIP3    H123253   8.012   3.898   5.365
 7770TIP3    H223254   7.911   3.791   5.330
 7771TIP3   OH223255   0.370   0.291   4.273
 7771TIP3    H123256   0.291   0.343   4.287
 7771TIP3    H223257   0.396   0.263   4.361
 7772TIP3   OH223258   0.591   2.968   3.303
 7772TIP3    H123259   0.613   2.876   3.321
 7772TIP3    H223260   0.511   2.983   3.353
 7773TIP3   OH223261   7.458   1.917   4.590
 7773TIP3    H123262   7.539   1.866   4.592
 7773TIP3    H223263   7.435   1.921   4.497
 7774TIP3   OH223264   3.111   4.067   4.098
 7774TIP3    H123265   3.049   3.995   4.086
 7774TIP3    H223266   3.185   4.045   4.041
 7775TIP3   OH223267   2.746   1.055   3.145
 7775TIP3    H123268   2.686   1.121   3.109
 7775TIP3    H223269   2.698   0.972   3.138
 7776TIP3   OH223270   3.129   5.393   5.793
 7776TIP3    H123271   3.063   5.334   5.757
 7776TIP3    H223272   3.111   5.394   5.887
 7777TIP3   OH223273   6.254   0.676   4.633
 7777TIP3    H123274   6.257   0.607   4.699
 7777TIP3    H223275   6.221   0.753   4.681
 7778TIP3   OH223276   6.429   4.563   5.183
 7778TIP3    H123277   6.436   4.617   5.262
 7778TIP3    H223278   6.431   4.473   5.216
 7779TIP3   OH223279   5.728   0.131   3.113
 7779TIP3    H123280   5.778   0.055   3.140
 7779TIP3    H223281   5.789   0.204   3.121
 7780TIP3   OH223282   1.245   3.087   3.441
 7780TIP3    H123283   1.307   3.015   3.428
 7780TIP3    H223284   1.165   3.043   3.471
 7781TIP3   OH223285   1.768   6.822   1.047
 7781TIP3    H123286   1.851   6.791   1.012
 7781TIP3    H223287   1.735   6.750   1.100
 7782TIP3   OH223288   7.793   5.741   2.914
 7782TIP3    H123289   7.876   5.782   2.888
 7782TIP3    H223290   7.727   5.806   2.891
 7783TIP3   OH223291   4.333   6.945   1.689
 7783TIP3    H123292   4.276   6.894   1.631
 7783TIP3    H223293   4.420   6.907   1.675
 7784TIP3   OH223294   0.711   2.542   5.829
 7784TIP3    H123295   0.623   2.574   5.852
 7784TIP3    H223296   0.728   2.473   5.893
 7785TIP3   OH223297   2.627   7.817   3.767
 7785TIP3    H123298   2.550   7.855   3.811
 7785TIP3    H223299   2.590   7.755   3.704
 7786TIP3   OH223300   3.525   2.048   4.955
 7786TIP3    H123301   3.609   2.094   4.951
 7786TIP3    H223302   3.546   1.965   4.997
 7787TIP3   OH223303   4.288   5.480   6.393
 7787TIP3    H123304   4.297   5.575   6.400
 7787TIP3    H223305   4.196   5.463   6.414
 7788TIP3   OH223306   4.680   1.775   1.966
 7788TIP3    H123307   4.655   1.700   1.912
 7788TIP3    H223308   4.728   1.832   1.906
 7789TIP3   OH223309   4.135   0.463   5.955
 7789TIP3    H123310   4.204   0.468   5.889
 7789TIP3    H223311   4.127   0.552   5.989
 7790TIP3   OH223312   2.157   3.726   0.108
 7790TIP3    H123313   2.072   3.754   0.074
 7790TIP3    H223314   2.136   3.683   0.191
 7791TIP3   OH223315   7.208   6.560   3.581
 7791TIP3    H123316   7.153   6.615   3.637
 7791TIP3    H223317   7.274   6.619   3.545
 7792TIP3   OH223318   2.695   2.764   4.138
 7792TIP3    H123319   2.786   2.744   4.117
 7792TIP3    H223320   2.677   2.845   4.090
 7793TIP3   OH223321   7.854   7.653   6.266
 7793TIP3    H123322   7.933   7.634   6.215
 7793TIP3    H223323   7.847   7.580   6.328
 7794TIP3   OH223324   2.986   0.852   6.500
 7794TIP3    H123325   2.891   0.840   6.501
 7794TIP3    H223326   3.008   0.872   6.591
 7795TIP3   OH223327   1.938   7.076   1.147
 7795TIP3    H123328   2.003   7.012   1.119
 7795TIP3    H223329   1.862   7.023   1.173
 7796TIP3   OH223330   5.581   3.908   0.175
 7796TIP3    H123331   5.553   3.979   0.234
 7796TIP3    H223332   5.673   3.927   0.158
 7797TIP3   OH223333   5.612   3.041   1.859
 7797TIP3    H123334   5.540   2.981   1.882
 7797TIP3    H223335   5.577   3.093   1.786
 7798TIP3   OH223336   4.170   0.278   1.806
 7798TIP3    H123337   4.238   0.213   1.790
 7798TIP3    H223338   4.209   0.337   1.871
 7799TIP3   OH223339   2.023   2.109   4.880
 7799TIP3    H123340   1.983   2.023   4.874
 7799TIP3    H223341   2.110   2.098   4.840
 7800TIP3   OH223342   0.468   7.229   0.499
 7800TIP3    H123343   0.524   7.234   0.422
 7800TIP3    H223344   0.394   7.287   0.479
 7801TIP3   OH223345   5.473   7.691   1.772
 7801TIP3    H123346   5.500   7.782   1.768
 7801TIP3    H223347   5.535   7.645   1.716
 7802TIP3   OH223348   2.516   6.903   2.651
 7802TIP3    H123349   2.499   6.903   2.557
 7802TIP3    H223350   2.535   6.812   2.672
 7803TIP3   OH223351   0.898   6.050   2.885
 7803TIP3    H123352   0.809   6.086   2.882
 7803TIP3    H223353   0.895   5.975   2.826
 7804TIP3   OH223354   1.125   4.887   5.383
 7804TIP3    H123355   1.078   4.928   5.311
 7804TIP3    H223356   1.138   4.957   5.446
 7805TIP3   OH223357   3.262   1.571   5.649
 7805TIP3    H123358   3.236   1.661   5.668
 7805TIP3    H223359   3.337   1.580   5.590
 7806TIP3   OH223360   8.220   4.875   2.004
 7806TIP3    H123361   8.149   4.845   2.061
 7806TIP3    H223362   8.179   4.936   1.944
 7807TIP3   OH223363   5.189   6.478   4.230
 7807TIP3    H123364   5.149   6.461   4.144
 7807TIP3    H223365   5.158   6.565   4.254
 7808TIP3   OH223366   4.805   4.181   1.799
 7808TIP3    H123367   4.886   4.129   1.794
 7808TIP3    H223368   4.798   4.205   1.892
 7809TIP3   OH223369   3.774   5.133   6.085
 7809TIP3    H123370   3.815   5.121   6.170
 7809TIP3    H223371   3.685   5.099   6.096
 7810TIP3   OH223372   1.168   3.062   0.676
 7810TIP3    H123373   1.123   2.994   0.625
 7810TIP3    H223374   1.148   3.041   0.767
 7811TIP3   OH223375   4.280   7.755   4.741
 7811TIP3    H123376   4.374   7.745   4.727
 7811TIP3    H223377   4.250   7.805   4.665
 7812TIP3   OH223378   4.375   6.816   2.324
 7812TIP3    H123379   4.335   6.831   2.238
 7812TIP3    H223380   4.318   6.752   2.366
 7813TIP3   OH223381   5.806   3.978   2.554
 7813TIP3    H123382   5.831   3.895   2.595
 7813TIP3    H223383   5.853   4.045   2.605
 7814TIP3   OH223384   2.110   3.912   4.118
 7814TIP3    H123385   2.028   3.863   4.109
 7814TIP3    H223386   2.160   3.862   4.183
 7815TIP3   OH223387   1.439   0.599   5.670
 7815TIP3    H123388   1.473   0.631   5.587
 7815TIP3    H223389   1.486   0.518   5.686
 7816TIP3   OH223390   0.178   4.915   3.142
 7816TIP3    H123391   0.191   4.992   3.198
 7816TIP3    H223392   0.173   4.951   3.053
 7817TIP3   OH223393   8.023   2.058   3.587
 7817TIP3    H123394   8.018   2.040   3.681
 7817TIP3    H223395   8.098   2.007   3.557
 7818TIP3   OH223396   8.091   3.006   0.579
 7818TIP3    H123397   8.158   2.938   0.594
 7818TIP3    H223398   8.008   2.957   0.577
 7819TIP3   OH223399   2.320   3.610   1.721
 7819TIP3    H123400   2.304   3.631   1.630
 7819TIP3    H223401   2.326   3.694   1.765
 7820TIP3   OH223402   2.135   0.802   2.168
 7820TIP3    H123403   2.191   0.723   2.170
 7820TIP3    H223404   2.108   0.810   2.076
 7821TIP3   OH223405   4.933   4.532   2.108
 7821TIP3    H123406   4.891   4.571   2.185
 7821TIP3    H223407   4.869   4.468   2.077
 7822TIP3   OH223408   6.354   4.446   5.457
 7822TIP3    H123409   6.444   4.448   5.489
 7822TIP3    H223410   6.302   4.424   5.535
 7823TIP3   OH223411   5.275   5.052   0.259
 7823TIP3    H123412   5.270   4.957   0.258
 7823TIP3    H223413   5.280   5.077   0.167
 7824TIP3   OH223414   6.320   5.698   5.680
 7824TIP3    H123415   6.324   5.607   5.649
 7824TIP3    H223416   6.264   5.694   5.758
 7825TIP3   OH223417   4.548   3.896   4.026
 7825TIP3    H123418   4.488   3.828   4.057
 7825TIP3    H223419   4.576   3.866   3.939
 7826TIP3   OH223420   0.313   5.185   5.871
 7826TIP3    H123421   0.386   5.159   5.815
 7826TIP3    H223422   0.304   5.280   5.857
 7827TIP3   OH223423   6.872   2.891   2.344
 7827TIP3    H123424   6.864   2.825   2.413
 7827TIP3    H223425   6.869   2.975   2.390
 7828TIP3   OH223426   5.968   6.630   5.388
 7828TIP3    H123427   5.961   6.692   5.315
 7828TIP3    H223428   5.925   6.674   5.461
 7829TIP3   OH223429   1.375   1.570   5.479
 7829TIP3    H123430   1.385   1.525   5.563
 7829TIP3    H223431   1.401   1.660   5.497
 7830TIP3   OH223432   4.205   2.726   2.348
 7830TIP3    H123433   4.121   2.755   2.312
 7830TIP3    H223434   4.187   2.639   2.384
 7831TIP3   OH223435   5.225   3.943   2.285
 7831TIP3    H123436   5.298   4.003   2.271
 7831TIP3    H223437   5.227   3.885   2.209
 7832TIP3   OH223438   5.760   6.009   4.272
 7832TIP3    H123439   5.700   5.988   4.344
 7832TIP3    H223440   5.765   6.104   4.271
 7833TIP3   OH223441   2.985   7.514   4.806
 7833TIP3    H123442   2.912   7.472   4.851
 7833TIP3    H223443   2.943   7.566   4.737
 7834TIP3   OH223444   4.857   6.671   0.368
 7834TIP3    H123445   4.883   6.752   0.412
 7834TIP3    H223446   4.906   6.671   0.286
 7835TIP3   OH223447   1.038   0.962   2.307
 7835TIP3    H123448   1.059   0.908   2.231
 7835TIP3    H223449   0.972   1.024   2.274
 7836TIP3   OH223450   6.809   6.129   6.322
 7836TIP3    H123451   6.773   6.042   6.308
 7836TIP3    H223452   6.902   6.114   6.337
 7837TIP3   OH223453   1.519   7.512   2.595
 7837TIP3    H123454   1.535   7.417   2.594
 7837TIP3    H223455   1.555   7.543   2.512
 7838TIP3   OH223456   4.510   7.337   0.781
 7838TIP3    H123457   4.430   7.349   0.731
 7838TIP3    H223458   4.545   7.425   0.792
 7839TIP3   OH223459   1.167   6.058   0.430
 7839TIP3    H123460   1.189   6.087   0.341
 7839TIP3    H223461   1.120   6.132   0.468
 7840TIP3   OH223462   8.048   2.998   0.058
 7840TIP3    H123463   8.064   2.922   0.113
 7840TIP3    H223464   7.975   2.971   0.001
 7841TIP3   OH223465   3.374   2.762   4.082
 7841TIP3    H123466   3.435   2.690   4.069
 7841TIP3    H223467   3.294   2.721   4.114
 7842TIP3   OH223468   7.704   5.355   1.959
 7842TIP3    H123469   7.752   5.366   1.877
 7842TIP3    H223470   7.643   5.429   1.961
 7843TIP3   OH223471   3.571   6.999   4.879
 7843TIP3    H123472   3.606   6.989   4.791
 7843TIP3    H223473   3.492   7.052   4.867
 7844TIP3   OH223474   7.295   7.139   3.998
 7844TIP3    H123475   7.340   7.191   4.064
 7844TIP3    H223476   7.364   7.090   3.953
 7845TIP3   OH223477   6.296   0.392   3.638
 7845TIP3    H123478   6.353   0.464   3.610
 7845TIP3    H223479   6.275   0.413   3.729
 7846TIP3   OH223480   5.781   6.441   2.258
 7846TIP3    H123481   5.740   6.526   2.239
 7846TIP3    H223482   5.817   6.412   2.174
 7847TIP3   OH223483   4.991   7.590   4.716
 7847TIP3    H123484   5.043   7.635   4.650
 7847TIP3    H223485   5.048   7.518   4.745
 7848TIP3   OH223486   2.169   2.650   5.625
 7848TIP3    H123487   2.242   2.601   5.587
 7848TIP3    H223488   2.206   2.736   5.646
 7849TIP3   OH223489   0.288   3.230   2.411
 7849TIP3    H123490   0.295   3.311   2.462
 7849TIP3    H223491   0.360   3.176   2.441
 7850TIP3   OH223492   1.334   3.334   2.826
 7850TIP3    H123493   1.281   3.371   2.897
 7850TIP3    H223494   1.286   3.355   2.746
 7851TIP3   OH223495   5.644   3.530   4.961
 7851TIP3    H123496   5.733   3.565   4.956
 7851TIP3    H223497   5.655   3.436   4.944
 7852TIP3   OH223498   3.500   6.734   3.488
 7852TIP3    H123499   3.448   6.810   3.464
 7852TIP3    H223500   3.437   6.674   3.529
 7853TIP3   OH223501   6.854   1.403   2.886
 7853TIP3    H123502   6.875   1.486   2.930
 7853TIP3    H223503   6.929   1.386   2.829
 7854TIP3   OH223504   7.492   4.240   2.097
 7854TIP3    H123505   7.449   4.154   2.092
 7854TIP3    H223506   7.429   4.300   2.057
 7855TIP3   OH223507   7.217   0.976   1.817
 7855TIP3    H123508   7.160   1.053   1.804
 7855TIP3    H223509   7.287   0.988   1.753
 7856TIP3   OH223510   3.072   7.037   6.487
 7856TIP3    H123511   3.017   7.005   6.416
 7856TIP3    H223512   3.090   6.960   6.540
 7857TIP3   OH223513   2.196   4.631   4.640
 7857TIP3    H123514   2.106   4.600   4.625
 7857TIP3    H223515   2.199   4.651   4.734
 7858TIP3   OH223516   5.733   2.659   6.396
 7858TIP3    H123517   5.765   2.639   6.308
 7858TIP3    H223518   5.742   2.577   6.444
 7859TIP3   OH223519   3.185   3.620   3.747
 7859TIP3    H123520   3.143   3.548   3.700
 7859TIP3    H223521   3.127   3.637   3.821
 7860TIP3   OH223522   5.756   4.791   5.205
 7860TIP3    H123523   5.698   4.848   5.254
 7860TIP3    H223524   5.768   4.714   5.262
 7861TIP3   OH223525   2.859   1.049   4.260
 7861TIP3    H123526   2.843   1.041   4.165
 7861TIP3    H223527   2.807   1.125   4.285
 7862TIP3   OH223528   7.289   6.119   6.191
 7862TIP3    H123529   7.236   6.161   6.124
 7862TIP3    H223530   7.336   6.191   6.233
 7863TIP3   OH223531   1.273   4.949   2.216
 7863TIP3    H123532   1.355   4.992   2.238
 7863TIP3    H223533   1.241   4.996   2.139
 7864TIP3   OH223534   6.719   2.669   2.828
 7864TIP3    H123535   6.670   2.644   2.906
 7864TIP3    H223536   6.652   2.682   2.760
 7865TIP3   OH223537   6.703   5.543   2.509
 7865TIP3    H123538   6.739   5.632   2.509
 7865TIP3    H223539   6.701   5.518   2.601
 7866TIP3   OH223540   7.540   0.075   5.732
 7866TIP3    H123541   7.618   0.087   5.678
 7866TIP3    H223542   7.573   0.048   5.818
 7867TIP3   OH223543   2.170   4.026   3.645
 7867TIP3    H123544   2.151   4.044   3.737
 7867TIP3    H223545   2.113   3.952   3.622
 7868TIP3   OH223546   3.377   1.990  -0.010
 7868TIP3    H123547   3.424   2.013   0.069
 7868TIP3    H223548   3.322   1.916   0.015
 7869TIP3   OH223549   0.463   2.911   1.239
 7869TIP3    H123550   0.395   2.851   1.270
 7869TIP3    H223551   0.544   2.878   1.277
 7870TIP3   OH223552   2.811   4.340   4.652
 7870TIP3    H123553   2.811   4.398   4.576
 7870TIP3    H223554   2.743   4.276   4.634
 7871TIP3   OH223555   2.378   5.222   0.795
 7871TIP3    H123556   2.438   5.292   0.817
 7871TIP3    H223557   2.326   5.256   0.722
 7872TIP3   OH223558   5.522   0.010   2.425
 7872TIP3    H123559   5.442  -0.014   2.377
 7872TIP3    H223560   5.547   0.095   2.390
 7873TIP3   OH223561   8.172   3.800   3.994
 7873TIP3    H123562   8.163   3.835   3.905
 7873TIP3    H223563   8.139   3.869   4.051
 7874TIP3   OH223564   2.646   0.341   4.774
 7874TIP3    H123565   2.634   0.252   4.807
 7874TIP3    H223566   2.584   0.347   4.701
 7875TIP3   OH223567   2.693   2.296   1.437
 7875TIP3    H123568   2.709   2.295   1.531
 7875TIP3    H223569   2.697   2.204   1.411
 7876TIP3   OH223570   1.994   7.634   4.972
 7876TIP3    H123571   1.909   7.628   4.927
 7876TIP3    H223572   1.988   7.568   5.041
 7877TIP3   OH223573   0.951   1.383   1.109
 7877TIP3    H123574   1.023   1.331   1.145
 7877TIP3    H223575   0.904   1.415   1.186
 7878TIP3   OH223576   5.098   0.789   4.236
 7878TIP3    H123577   5.041   0.845   4.289
 7878TIP3    H223578   5.040   0.721   4.202
 7879TIP3   OH223579   3.864   5.616   1.214
 7879TIP3    H123580   3.901   5.577   1.134
 7879TIP3    H223581   3.809   5.547   1.251
 7880TIP3   OH223582   4.758   6.634   5.596
 7880TIP3    H123583   4.812   6.709   5.570
 7880TIP3    H223584   4.821   6.567   5.623
 7881TIP3   OH223585   4.380   1.622   4.569
 7881TIP3    H123586   4.446   1.553   4.556
 7881TIP3    H223587   4.313   1.604   4.504
 7882TIP3   OH223588   6.012   1.542   2.979
 7882TIP3    H123589   5.956   1.498   3.043
 7882TIP3    H223590   5.956   1.553   2.902
 7883TIP3   OH223591   6.824   5.218   4.760
 7883TIP3    H123592   6.812   5.281   4.831
 7883TIP3    H223593   6.878   5.149   4.798
 7884TIP3   OH223594   8.202   2.387   0.599
 7884TIP3    H123595   8.259   2.312   0.613
 7884TIP3    H223596   8.262   2.457   0.573
 7885TIP3   OH223597   7.982   3.795   4.793
 7885TIP3    H123598   7.925   3.818   4.720
 7885TIP3    H223599   8.006   3.704   4.777
 7886TIP3   OH223600   6.340   2.578   4.683
 7886TIP3    H123601   6.388   2.507   4.725
 7886TIP3    H223602   6.288   2.536   4.615
 7887TIP3   OH223603   6.449   0.623   3.221
 7887TIP3    H123604   6.405   0.685   3.163
 7887TIP3    H223605   6.511   0.677   3.271
 7888TIP3   OH223606   6.935   1.755   5.783
 7888TIP3    H123607   6.970   1.732   5.869
 7888TIP3    H223608   6.944   1.851   5.779
 7889TIP3   OH223609   2.678   4.551   6.039
 7889TIP3    H123610   2.700   4.516   5.953
 7889TIP3    H223611   2.669   4.473   6.095
 7890TIP3   OH223612   4.947   7.434   3.954
 7890TIP3    H123613   4.973   7.404   3.867
 7890TIP3    H223614   4.897   7.360   3.990
 7891TIP3   OH223615   2.679   5.321   6.616
 7891TIP3    H123616   2.679   5.226   6.617
 7891TIP3    H223617   2.609   5.346   6.677
 7892TIP3   OH223618   4.345   3.665   4.774
 7892TIP3    H123619   4.329   3.623   4.689
 7892TIP3    H223620   4.275   3.730   4.782
 7893TIP3   OH223621   2.725   7.471   0.632
 7893TIP3    H123622   2.810   7.505   0.602
 7893TIP3    H223623   2.672   7.465   0.553
 7894TIP3   OH223624   3.817   6.675   3.462
 7894TIP3    H123625   3.791   6.642   3.548
 7894TIP3    H223626   3.750   6.740   3.440
 7895TIP3   OH223627   6.288   1.351   2.985
 7895TIP3    H123628   6.286   1.444   3.005
 7895TIP3    H223629   6.361   1.340   2.924
 7896TIP3   OH223630   5.704   3.057   0.208
 7896TIP3    H123631   5.723   3.144   0.172
 7896TIP3    H223632   5.770   3.044   0.276
 7897TIP3   OH223633   3.749   2.618   4.176
 7897TIP3    H123634   3.783   2.579   4.257
 7897TIP3    H223635   3.717   2.704   4.203
 7898TIP3   OH223636   3.676   4.721   4.315
 7898TIP3    H123637   3.739   4.689   4.379
 7898TIP3    H223638   3.728   4.778   4.258
 7899TIP3   OH223639   0.886   5.438   1.530
 7899TIP3    H123640   0.949   5.435   1.457
 7899TIP3    H223641   0.803   5.411   1.490
 7900TIP3   OH223642   2.623   3.527   0.900
 7900TIP3    H123643   2.702   3.513   0.847
 7900TIP3    H223644   2.585   3.440   0.911
 7901TIP3   OH223645   1.612   5.257   3.873
 7901TIP3    H123646   1.614   5.333   3.931
 7901TIP3    H223647   1.572   5.187   3.926
 7902TIP3   OH223648   6.096   3.129   6.145
 7902TIP3    H123649   6.003   3.149   6.153
 7902TIP3    H223650   6.140   3.207   6.180
 7903TIP3   OH223651   7.695   1.810   3.810
 7903TIP3    H123652   7.612   1.813   3.857
 7903TIP3    H223653   7.690   1.881   3.747
 7904TIP3   OH223654   8.011   7.478   1.015
 7904TIP3    H123655   8.043   7.535   0.944
 7904TIP3    H223656   7.946   7.532   1.061
 7905TIP3   OH223657   4.796   4.016   6.383
 7905TIP3    H123658   4.746   3.966   6.318
 7905TIP3    H223659   4.747   4.006   6.464
 7906TIP3   OH223660   1.612   7.286   1.867
 7906TIP3    H123661   1.535   7.261   1.817
 7906TIP3    H223662   1.630   7.376   1.839
 7907TIP3   OH223663   6.091   0.323   2.513
 7907TIP3    H123664   6.137   0.241   2.498
 7907TIP3    H223665   6.034   0.306   2.588
 7908TIP3   OH223666   2.524   5.173   0.304
 7908TIP3    H123667   2.539   5.087   0.264
 7908TIP3    H223668   2.522   5.156   0.398
 7909TIP3   OH223669   6.533   7.777   4.331
 7909TIP3    H123670   6.549   7.712   4.400
 7909TIP3    H223671   6.442   7.804   4.345
 7910TIP3   OH223672   3.847   4.713   5.487
 7910TIP3    H123673   3.912   4.740   5.553
 7910TIP3    H223674   3.899   4.692   5.410
 7911TIP3   OH223675   0.009   1.270   3.438
 7911TIP3    H123676   0.065   1.286   3.514
 7911TIP3    H223677  -0.029   1.184   3.453
 7912TIP3   OH223678   0.615   5.638   6.304
 7912TIP3    H123679   0.636   5.690   6.227
 7912TIP3    H223680   0.572   5.700   6.364
 7913TIP3   OH223681   0.479   5.053   5.672
 7913TIP3    H123682   0.572   5.033   5.682
 7913TIP3    H223683   0.450   4.997   5.599
 7914TIP3   OH223684   3.191   1.881   0.950
 7914TIP3    H123685   3.216   1.848   1.036
 7914TIP3    H223686   3.207   1.808   0.890
 7915TIP3   OH223687   7.242   4.343   2.407
 7915TIP3    H123688   7.280   4.342   2.495
 7915TIP3    H223689   7.159   4.296   2.415
 7916TIP3   OH223690   4.334   5.729   3.660
 7916TIP3    H123691   4.255   5.727   3.607
 7916TIP3    H223692   4.395   5.782   3.609
 7917TIP3   OH223693   6.958   0.058   0.329
 7917TIP3    H123694   6.914   0.138   0.298
 7917TIP3    H223695   6.908  -0.013   0.288
 7918TIP3   OH223696   8.214   4.112   1.336
 7918TIP3    H123697   8.299   4.093   1.297
 7918TIP3    H223698   8.217   4.068   1.421
 7919TIP3   OH223699   0.637   4.574   6.253
 7919TIP3    H123700   0.705   4.538   6.311
 7919TIP3    H223701   0.612   4.501   6.196
 7920TIP3   OH223702   2.932   5.270   1.080
 7920TIP3    H123703   2.971   5.202   1.135
 7920TIP3    H223704   2.921   5.344   1.140
 7921TIP3   OH223705   0.613   7.714   3.569
 7921TIP3    H123706   0.639   7.664   3.491
 7921TIP3    H223707   0.694   7.756   3.598
 7922TIP3   OH223708   7.367   7.481   4.726
 7922TIP3    H123709   7.405   7.564   4.754
 7922TIP3    H223710   7.299   7.506   4.663
 7923TIP3   OH223711   0.105   6.840   5.495
 7923TIP3    H123712   0.034   6.779   5.477
 7923TIP3    H223713   0.166   6.792   5.550
 7924TIP3   OH223714   4.994   0.552   2.138
 7924TIP3    H123715   4.965   0.490   2.071
 7924TIP3    H223716   5.041   0.620   2.090
 7925TIP3   OH223717   5.476   4.786   1.011
 7925TIP3    H123718   5.442   4.858   1.064
 7925TIP3    H223719   5.415   4.714   1.027
 7926TIP3   OH223720   5.261   2.347   3.386
 7926TIP3    H123721   5.197   2.327   3.455
 7926TIP3    H223722   5.325   2.277   3.392
 7927TIP3   OH223723   0.668   3.996   2.468
 7927TIP3    H123724   0.690   4.062   2.534
 7927TIP3    H223725   0.653   4.047   2.388
 7928TIP3   OH223726   4.774   2.147   3.838
 7928TIP3    H123727   4.739   2.058   3.829
 7928TIP3    H223728   4.863   2.134   3.870
 7929TIP3   OH223729   0.367   4.684   0.826
 7929TIP3    H123730   0.437   4.702   0.888
 7929TIP3    H223731   0.378   4.748   0.757
 7930TIP3   OH223732   5.035   6.134   2.205
 7930TIP3    H123733   5.012   6.081   2.129
 7930TIP3    H223734   5.104   6.084   2.249
 7931TIP3   OH223735   5.921   6.217   2.739
 7931TIP3    H123736   5.886   6.298   2.776
 7931TIP3    H223737   5.964   6.173   2.812
 7932TIP3   OH223738   7.876   2.788   1.929
 7932TIP3    H123739   7.870   2.725   2.001
 7932TIP3    H223740   7.929   2.860   1.964
 7933TIP3   OH223741   6.991   5.237   5.217
 7933TIP3    H123742   6.987   5.227   5.312
 7933TIP3    H223743   6.906   5.207   5.186
 7934TIP3   OH223744   3.001   1.088   2.282
 7934TIP3    H123745   3.039   1.153   2.223
 7934TIP3    H223746   3.074   1.063   2.339
 7935TIP3   OH223747   3.183   7.547   4.517
 7935TIP3    H123748   3.096   7.507   4.521
 7935TIP3    H223749   3.208   7.540   4.425
 7936TIP3   OH223750   7.393   2.915   1.857
 7936TIP3    H123751   7.363   2.824   1.856
 7936TIP3    H223752   7.393   2.940   1.949
 7937TIP3   OH223753   0.025   6.237   5.670
 7937TIP3    H123754   0.067   6.318   5.639
 7937TIP3    H223755  -0.062   6.239   5.631
 7938TIP3   OH223756   1.227   1.307   3.992
 7938TIP3    H123757   1.215   1.325   4.085
 7938TIP3    H223758   1.177   1.226   3.977
 7939TIP3   OH223759   8.040   4.403   4.917
 7939TIP3    H123760   8.033   4.457   4.996
 7939TIP3    H223761   8.133   4.383   4.909
 7940TIP3   OH223762   3.035   0.303   4.980
 7940TIP3    H123763   3.039   0.316   5.075
 7940TIP3    H223764   3.042   0.208   4.969
 7941TIP3   OH223765   0.728   4.790   4.894
 7941TIP3    H123766   0.645   4.831   4.918
 7941TIP3    H223767   0.744   4.820   4.804
 7942TIP3   OH223768   1.769   1.565   2.468
 7942TIP3    H123769   1.858   1.597   2.454
 7942TIP3    H223770   1.734   1.551   2.380
 7943TIP3   OH223771   7.528   3.571   5.333
 7943TIP3    H123772   7.533   3.478   5.353
 7943TIP3    H223773   7.577   3.581   5.251
 7944TIP3   OH223774   5.907   5.047   2.431
 7944TIP3    H123775   5.901   5.093   2.515
 7944TIP3    H223776   5.973   4.979   2.446
 7945TIP3   OH223777   2.345   7.752   1.118
 7945TIP3    H123778   2.434   7.720   1.137
 7945TIP3    H223779   2.337   7.831   1.170
 7946TIP3   OH223780   6.412   5.611   1.747
 7946TIP3    H123781   6.409   5.515   1.748
 7946TIP3    H223782   6.328   5.637   1.785
 7947TIP3   OH223783   0.277   1.401   4.195
 7947TIP3    H123784   0.187   1.431   4.208
 7947TIP3    H223785   0.321   1.425   4.276
 7948TIP3   OH223786   6.569   0.883   2.569
 7948TIP3    H123787   6.535   0.852   2.653
 7948TIP3    H223788   6.645   0.937   2.592
 7949TIP3   OH223789   2.035   7.467   0.198
 7949TIP3    H123790   2.006   7.533   0.136
 7949TIP3    H223791   2.130   7.482   0.206
 7950TIP3   OH223792   5.545   7.464   1.041
 7950TIP3    H123793   5.640   7.469   1.035
 7950TIP3    H223794   5.524   7.486   1.132
 7951TIP3   OH223795   4.267   5.003   2.988
 7951TIP3    H123796   4.358   5.018   3.014
 7951TIP3    H223797   4.266   4.915   2.951
 7952TIP3   OH223798   7.683   5.744   3.663
 7952TIP3    H123799   7.768   5.700   3.672
 7952TIP3    H223800   7.705   5.836   3.646
 7953TIP3   OH223801   6.663   3.546   5.142
 7953TIP3    H123802   6.684   3.460   5.179
 7953TIP3    H223803   6.672   3.534   5.048
 7954TIP3   OH223804   1.865   4.788   0.678
 7954TIP3    H123805   1.919   4.709   0.676
 7954TIP3    H223806   1.868   4.821   0.589
 7955TIP3   OH223807   6.668   0.497   0.349
 7955TIP3    H123808   6.574   0.478   0.347
 7955TIP3    H223809   6.687   0.530   0.261
 7956TIP3   OH223810   0.317   7.300   5.251
 7956TIP3    H123811   0.306   7.253   5.168
 7956TIP3    H223812   0.338   7.390   5.225
 7957TIP3   OH223813   4.735   1.349   3.785
 7957TIP3    H123814   4.721   1.429   3.835
 7957TIP3    H223815   4.647   1.316   3.766
 7958TIP3   OH223816   6.163   7.045   2.282
 7958TIP3    H123817   6.214   7.088   2.351
 7958TIP3    H223818   6.083   7.017   2.325
 7959TIP3   OH223819   2.657   3.967   2.537
 7959TIP3    H123820   2.749   3.988   2.549
 7959TIP3    H223821   2.614   3.998   2.617
 7960TIP3   OH223822   5.665   6.852   0.576
 7960TIP3    H123823   5.585   6.832   0.526
 7960TIP3    H223824   5.720   6.899   0.514
 7961TIP3   OH223825   4.704   2.779   1.345
 7961TIP3    H123826   4.736   2.697   1.383
 7961TIP3    H223827   4.613   2.761   1.321
 7962TIP3   OH223828   0.267   2.811   0.999
 7962TIP3    H123829   0.274   2.847   0.911
 7962TIP3    H223830   0.324   2.866   1.052
 7963TIP3   OH223831   8.014   1.021   2.329
 7963TIP3    H123832   7.958   1.029   2.406
 7963TIP3    H223833   7.953   1.002   2.257
 7964TIP3   OH223834   0.253   1.135   0.272
 7964TIP3    H123835   0.183   1.109   0.333
 7964TIP3    H223836   0.246   1.071   0.200
 7965TIP3   OH223837   2.684   4.271   4.936
 7965TIP3    H123838   2.676   4.262   4.841
 7965TIP3    H223839   2.594   4.268   4.969
 7966TIP3   OH223840   4.835   6.497   4.737
 7966TIP3    H123841   4.923   6.531   4.754
 7966TIP3    H223842   4.847   6.434   4.666
 7967TIP3   OH223843   3.661   2.530   0.345
 7967TIP3    H123844   3.706   2.566   0.422
 7967TIP3    H223845   3.574   2.507   0.377
 7968TIP3   OH223846   2.175   3.354   1.630
 7968TIP3    H123847   2.224   3.278   1.661
 7968TIP3    H223848   2.226   3.429   1.659
 7969TIP3   OH223849   2.289   1.543   2.265
 7969TIP3    H123850   2.381   1.523   2.248
 7969TIP3    H223851   2.290   1.602   2.340
 7970TIP3   OH223852   1.129   4.674   1.209
 7970TIP3    H123853   1.079   4.663   1.290
 7970TIP3    H223854   1.147   4.768   1.204
 7971TIP3   OH223855   2.319   0.892   6.270
 7971TIP3    H123856   2.373   0.941   6.208
 7971TIP3    H223857   2.352   0.802   6.264
 7972TIP3   OH223858   1.126   4.572   3.173
 7972TIP3    H123859   1.077   4.523   3.106
 7972TIP3    H223860   1.111   4.524   3.254
 7973TIP3   OH223861   4.997   2.822   3.177
 7973TIP3    H123862   5.048   2.776   3.110
 7973TIP3    H223863   4.963   2.752   3.234
 7974TIP3   OH223864   5.942   3.534   3.837
 7974TIP3    H123865   5.904   3.621   3.845
 7974TIP3    H223866   5.888   3.490   3.771
 7975TIP3   OH223867   4.071   2.410   4.770
 7975TIP3    H123868   4.071   2.351   4.694
 7975TIP3    H223869   4.073   2.351   4.845
 7976TIP3   OH223870   7.125   2.759   6.268
 7976TIP3    H123871   7.055   2.761   6.203
 7976TIP3    H223872   7.138   2.851   6.292
 7977TIP3   OH223873   2.349   3.902   5.645
 7977TIP3    H123874   2.278   3.919   5.583
 7977TIP3    H223875   2.346   3.807   5.659
 7978TIP3   OH223876   0.560   5.294   5.014
 7978TIP3    H123877   0.586   5.371   4.963
 7978TIP3    H223878   0.643   5.259   5.048
 7979TIP3   OH223879   3.428   5.530   2.081
 7979TIP3    H123880   3.450   5.466   2.149
 7979TIP3    H223881   3.416   5.477   2.002
 7980TIP3   OH223882   1.086   5.677   0.210
 7980TIP3    H123883   1.098   5.594   0.164
 7980TIP3    H223884   1.175   5.708   0.228
 7981TIP3   OH223885   3.571   3.208   6.684
 7981TIP3    H123886   3.622   3.250   6.754
 7981TIP3    H223887   3.540   3.126   6.722
 7982TIP3   OH223888   4.987   1.841   0.736
 7982TIP3    H123889   5.004   1.905   0.805
 7982TIP3    H223890   4.948   1.893   0.665
 7983TIP3   OH223891   1.358   5.147   5.400
 7983TIP3    H123892   1.392   5.136   5.489
 7983TIP3    H223893   1.431   5.120   5.343
 7984TIP3   OH223894   2.260   6.249   4.421
 7984TIP3    H123895   2.252   6.344   4.409
 7984TIP3    H223896   2.334   6.238   4.481
 7985TIP3   OH223897   0.026   3.686   1.978
 7985TIP3    H123898   0.075   3.766   1.958
 7985TIP3    H223899   0.089   3.615   1.962
 7986TIP3   OH223900   6.583   5.597   3.045
 7986TIP3    H123901   6.491   5.624   3.038
 7986TIP3    H223902   6.632   5.673   3.016
 7987TIP3   OH223903   0.174   5.978   6.094
 7987TIP3    H123904   0.247   5.969   6.032
 7987TIP3    H223905   0.109   6.029   6.046
 7988TIP3   OH223906   8.138   3.121   1.652
 7988TIP3    H123907   8.179   3.206   1.636
 7988TIP3    H223908   8.198   3.076   1.712
 7989TIP3   OH223909   1.599   1.440   1.583
 7989TIP3    H123910   1.673   1.397   1.626
 7989TIP3    H223911   1.605   1.532   1.609
 7990TIP3   OH223912   4.071   0.146   2.073
 7990TIP3    H123913   4.008   0.194   2.019
 7990TIP3    H223914   4.018   0.088   2.126
 7991TIP3   OH223915   1.359   1.992   2.359
 7991TIP3    H123916   1.378   1.930   2.429
 7991TIP3    H223917   1.400   1.955   2.282
 7992TIP3   OH223918   1.310   2.540   3.079
 7992TIP3    H123919   1.308   2.632   3.054
 7992TIP3    H223920   1.224   2.523   3.118
 7993TIP3   OH223921   7.512   7.750   5.598
 7993TIP3    H123922   7.458   7.703   5.660
 7993TIP3    H223923   7.526   7.836   5.637
 7994TIP3   OH223924   4.984   0.157   0.535
 7994TIP3    H123925   4.908   0.156   0.478
 7994TIP3    H223926   4.967   0.229   0.596
 7995TIP3   OH223927   6.855   4.112   3.157
 7995TIP3    H123928   6.763   4.085   3.152
 7995TIP3    H223929   6.851   4.204   3.185
 7996TIP3   OH223930   3.821   3.720   3.774
 7996TIP3    H123931   3.844   3.732   3.682
 7996TIP3    H223932   3.897   3.677   3.812
 7997TIP3   OH223933   1.443   3.439   5.923
 7997TIP3    H123934   1.411   3.525   5.895
 7997TIP3    H223935   1.526   3.428   5.876
 7998TIP3   OH223936   6.151   3.812   0.627
 7998TIP3    H123937   6.148   3.894   0.578
 7998TIP3    H223938   6.226   3.765   0.591
 7999TIP3   OH223939   8.067   4.096   1.830
 7999TIP3    H123940   8.151   4.142   1.822
 7999TIP3    H223941   8.064   4.069   1.922
 8000TIP3   OH223942   1.311   2.466   5.499
 8000TIP3    H123943   1.391   2.514   5.521
 8000TIP3    H223944   1.303   2.474   5.404
 8001TIP3   OH223945   5.815   5.016   2.180
 8001TIP3    H123946   5.843   5.027   2.271
 8001TIP3    H223947   5.844   4.928   2.157
 8002TIP3   OH223948   0.180   5.737   2.745
 8002TIP3    H123949   0.149   5.647   2.733
 8002TIP3    H223950   0.151   5.761   2.833
 8003TIP3   OH223951   7.376   4.178   0.112
 8003TIP3    H123952   7.417   4.109   0.164
 8003TIP3    H223953   7.399   4.259   0.157
 8004TIP3   OH223954   0.100   0.440   4.332
 8004TIP3    H123955   0.053   0.387   4.268
 8004TIP3    H223956   0.033   0.495   4.372
 8005TIP3   OH223957   6.748   1.735   3.626
 8005TIP3    H123958   6.667   1.688   3.602
 8005TIP3    H223959   6.750   1.731   3.722
 8006TIP3   OH223960   8.103   2.589   0.756
 8006TIP3    H123961   8.114   2.515   0.696
 8006TIP3    H223962   8.164   2.570   0.828
 8007TIP3   OH223963   0.667   1.129   6.600
 8007TIP3    H123964   0.584   1.176   6.591
 8007TIP3    H223965   0.647   1.039   6.574
 8008TIP3   OH223966   2.873   2.542   2.475
 8008TIP3    H123967   2.802   2.558   2.537
 8008TIP3    H223968   2.927   2.621   2.480
 8009TIP3   OH223969   5.818   2.506   6.661
 8009TIP3    H123970   5.813   2.582   6.719
 8009TIP3    H223971   5.839   2.433   6.718
 8010TIP3   OH223972   5.081   2.570   3.330
 8010TIP3    H123973   5.037   2.611   3.405
 8010TIP3    H223974   5.135   2.501   3.369
 8011TIP3   OH223975   3.980   3.522   4.803
 8011TIP3    H123976   4.036   3.446   4.789
 8011TIP3    H223977   3.927   3.499   4.879
 8012TIP3   OH223978   4.715   0.909   4.144
 8012TIP3    H123979   4.640   0.953   4.183
 8012TIP3    H223980   4.679   0.858   4.071
 8013TIP3   OH223981   7.088   2.572   0.614
 8013TIP3    H123982   6.994   2.575   0.632
 8013TIP3    H223983   7.116   2.663   0.621
 8014TIP3   OH223984   4.926   3.412   1.465
 8014TIP3    H123985   4.842   3.458   1.473
 8014TIP3    H223986   4.965   3.418   1.552
 8015TIP3   OH223987   1.006   2.846   4.977
 8015TIP3    H123988   1.041   2.780   4.918
 8015TIP3    H223989   1.083   2.892   5.011
 8016TIP3   OH223990   4.866   2.968   1.183
 8016TIP3    H123991   4.820   2.915   1.247
 8016TIP3    H223992   4.959   2.948   1.197
 8017TIP3   OH223993   8.239   5.398   0.835
 8017TIP3    H123994   8.319   5.405   0.888
 8017TIP3    H223995   8.260   5.332   0.769
 8018TIP3   OH223996   6.154   7.754   3.829
 8018TIP3    H123997   6.088   7.686   3.821
 8018TIP3    H223998   6.237   7.706   3.834
 8019TIP3   OH223999   7.925   3.618   5.535
 8019TIP3    H124000   7.971   3.675   5.472
 8019TIP3    H224001   7.953   3.529   5.511
 8020TIP3   OH224002   1.523   4.485   4.501
 8020TIP3    H124003   1.513   4.495   4.406
 8020TIP3    H224004   1.493   4.568   4.537
 8021TIP3   OH224005   1.177   2.323   6.603
 8021TIP3    H124006   1.107   2.354   6.660
 8021TIP3    H224007   1.133   2.308   6.518
 8022TIP3   OH224008   7.463   6.071   3.772
 8022TIP3    H124009   7.418   6.150   3.741
 8022TIP3    H224010   7.422   6.000   3.724
 8023TIP3   OH224011   3.476   6.983   5.940
 8023TIP3    H124012   3.392   7.018   5.970
 8023TIP3    H224013   3.456   6.894   5.911
 8024TIP3   OH224014   5.991   7.499   4.317
 8024TIP3    H124015   6.044   7.531   4.391
 8024TIP3    H224016   5.937   7.574   4.293
 8025TIP3   OH224017   6.132   5.067   0.595
 8025TIP3    H124018   6.067   5.059   0.525
 8025TIP3    H224019   6.162   5.158   0.589
 8026TIP3   OH224020   2.448   2.038   6.372
 8026TIP3    H124021   2.424   1.997   6.288
 8026TIP3    H224022   2.410   2.125   6.367
 8027TIP3   OH224023   1.906   7.386   5.776
 8027TIP3    H124024   1.942   7.418   5.693
 8027TIP3    H224025   1.863   7.303   5.754
 8028TIP3   OH224026   3.365   4.459   6.448
 8028TIP3    H124027   3.289   4.503   6.410
 8028TIP3    H224028   3.404   4.410   6.375
 8029TIP3   OH224029   2.574   1.268   3.111
 8029TIP3    H124030   2.505   1.268   3.045
 8029TIP3    H224031   2.578   1.358   3.143
 8030TIP3   OH224032   3.981   0.506   3.409
 8030TIP3    H124033   4.053   0.544   3.359
 8030TIP3    H224034   4.023   0.454   3.477
 8031TIP3   OH224035   6.100   7.442   1.306
 8031TIP3    H124036   6.096   7.533   1.333
 8031TIP3    H224037   6.170   7.440   1.240
 8032TIP3   OH224038   6.325   6.646   5.070
 8032TIP3    H124039   6.308   6.624   5.162
 8032TIP3    H224040   6.357   6.565   5.031
 8033TIP3   OH224041   2.628   1.552   4.460
 8033TIP3    H124042   2.604   1.575   4.370
 8033TIP3    H224043   2.652   1.460   4.455
 8034TIP3   OH224044   6.934   3.732   6.412
 8034TIP3    H124045   6.880   3.720   6.334
 8034TIP3    H224046   6.980   3.649   6.422
 8035TIP3   OH224047   0.673   2.630   5.405
 8035TIP3    H124048   0.693   2.723   5.410
 8035TIP3    H224049   0.586   2.626   5.366
 8036TIP3   OH224050   8.095   3.986   4.965
 8036TIP3    H124051   8.073   3.925   4.894
 8036TIP3    H224052   8.186   4.010   4.948
 8037TIP3   OH224053   1.559   6.970   3.715
 8037TIP3    H124054   1.554   6.923   3.632
 8037TIP3    H224055   1.472   7.008   3.726
 8038TIP3   OH224056   4.985   2.954   4.953
 8038TIP3    H124057   4.897   2.967   4.989
 8038TIP3    H224058   4.971   2.909   4.870
 8039TIP3   OH224059   5.919   0.904   4.645
 8039TIP3    H124060   5.834   0.929   4.681
 8039TIP3    H224061   5.954   0.985   4.608
 8040TIP3   OH224062   1.184   3.032   4.189
 8040TIP3    H124063   1.126   2.960   4.162
 8040TIP3    H224064   1.176   3.035   4.284
 8041TIP3   OH224065   3.582   2.302   5.229
 8041TIP3    H124066   3.494   2.313   5.264
 8041TIP3    H224067   3.630   2.378   5.261
 8042TIP3   OH224068   5.571   6.357   1.041
 8042TIP3    H124069   5.518   6.437   1.028
 8042TIP3    H224070   5.632   6.357   0.968
 8043TIP3   OH224071   3.791   5.287   3.405
 8043TIP3    H124072   3.736   5.284   3.484
 8043TIP3    H224073   3.729   5.279   3.333
 8044TIP3   OH224074   1.978   4.629   2.330
 8044TIP3    H124075   2.051   4.655   2.274
 8044TIP3    H224076   1.932   4.711   2.349
 8045TIP3   OH224077   8.096   0.517   0.648
 8045TIP3    H124078   8.163   0.466   0.694
 8045TIP3    H224079   8.127   0.521   0.557
 8046TIP3   OH224080   6.321   7.658   5.252
 8046TIP3    H124081   6.291   7.689   5.338
 8046TIP3    H224082   6.414   7.640   5.266
 8047TIP3   OH224083   0.335   5.471   4.047
 8047TIP3    H124084   0.339   5.405   3.977
 8047TIP3    H224085   0.400   5.442   4.111
 8048TIP3   OH224086   0.768   5.197   6.078
 8048TIP3    H124087   0.737   5.264   6.139
 8048TIP3    H224088   0.858   5.222   6.058
 8049TIP3   OH224089   3.446   1.614   3.578
 8049TIP3    H124090   3.388   1.671   3.629
 8049TIP3    H224091   3.411   1.618   3.488
 8050TIP3   OH224092   5.224   5.267   6.657
 8050TIP3    H124093   5.158   5.318   6.610
 8050TIP3    H224094   5.262   5.329   6.720
 8051TIP3   OH224095   3.345   5.305   0.588
 8051TIP3    H124096   3.281   5.376   0.595
 8051TIP3    H224097   3.413   5.328   0.652
 8052TIP3   OH224098   6.000   1.905   1.304
 8052TIP3    H124099   5.999   1.981   1.362
 8052TIP3    H224100   6.075   1.921   1.246
 8053TIP3   OH224101   7.054   1.749   6.318
 8053TIP3    H124102   6.959   1.747   6.309
 8053TIP3    H224103   7.069   1.775   6.409
 8054TIP3   OH224104   0.631   3.482   1.003
 8054TIP3    H124105   0.696   3.535   1.049
 8054TIP3    H224106   0.668   3.467   0.916
 8055TIP3   OH224107   7.226   4.261   4.930
 8055TIP3    H124108   7.178   4.252   4.848
 8055TIP3    H224109   7.167   4.224   4.996
 8056TIP3   OH224110   6.837   4.867   4.388
 8056TIP3    H124111   6.759   4.909   4.424
 8056TIP3    H224112   6.898   4.861   4.461
 8057TIP3   OH224113   2.970   4.401   4.889
 8057TIP3    H124114   2.894   4.387   4.833
 8057TIP3    H224115   3.043   4.412   4.828
 8058TIP3   OH224116   6.734   2.193   3.416
 8058TIP3    H124117   6.783   2.134   3.474
 8058TIP3    H224118   6.768   2.280   3.436
 8059TIP3   OH224119   5.135   5.001   6.667
 8059TIP3    H124120   5.056   5.003   6.721
 8059TIP3    H224121   5.165   5.091   6.665
 8060TIP3   OH224122   1.394   7.727   1.442
 8060TIP3    H124123   1.414   7.676   1.363
 8060TIP3    H224124   1.424   7.672   1.514
 8061TIP3   OH224125   6.957   0.142   3.457
 8061TIP3    H124126   7.017   0.197   3.509
 8061TIP3    H224127   6.877   0.194   3.450
 8062TIP3   OH224128   7.032   4.030   2.968
 8062TIP3    H124129   7.042   4.119   2.933
 8062TIP3    H224130   6.968   4.039   3.039
 8063TIP3   OH224131   3.876   1.125   5.303
 8063TIP3    H124132   3.909   1.178   5.375
 8063TIP3    H224133   3.825   1.055   5.344
 8064TIP3   OH224134   3.877   6.649   4.450
 8064TIP3    H124135   3.950   6.589   4.469
 8064TIP3    H224136   3.919   6.734   4.439
 8065TIP3   OH224137   6.612   4.584   4.498
 8065TIP3    H124138   6.604   4.572   4.403
 8065TIP3    H224139   6.526   4.617   4.525
 8066TIP3   OH224140   4.348   3.884   6.361
 8066TIP3    H124141   4.391   3.808   6.400
 8066TIP3    H224142   4.310   3.851   6.279
 8067TIP3   OH224143   0.250   5.546   5.208
 8067TIP3    H124144   0.336   5.519   5.240
 8067TIP3    H224145   0.230   5.484   5.138
 8068TIP3   OH224146   2.800   5.191   4.231
 8068TIP3    H124147   2.725   5.249   4.240
 8068TIP3    H224148   2.790   5.129   4.304
 8069TIP3   OH224149   7.215   2.396   6.059
 8069TIP3    H124150   7.190   2.303   6.057
 8069TIP3    H224151   7.133   2.443   6.043
 8070TIP3   OH224152   7.642   4.899   2.425
 8070TIP3    H124153   7.645   4.985   2.468
 8070TIP3    H224154   7.593   4.914   2.345
 8071TIP3   OH224155   3.531   5.335   0.249
 8071TIP3    H124156   3.456   5.392   0.233
 8071TIP3    H224157   3.551   5.298   0.163
 8072TIP3   OH224158   3.410   7.759   1.199
 8072TIP3    H124159   3.348   7.686   1.205
 8072TIP3    H224160   3.386   7.817   1.271
 8073TIP3   OH224161   1.783   6.767   0.474
 8073TIP3    H124162   1.712   6.810   0.427
 8073TIP3    H224163   1.854   6.831   0.475
 8074TIP3   OH224164   7.406   4.397   6.339
 8074TIP3    H124165   7.440   4.363   6.257
 8074TIP3    H224166   7.466   4.467   6.363
 8075TIP3   OH224167   4.409   7.450   2.158
 8075TIP3    H124168   4.347   7.475   2.227
 8075TIP3    H224169   4.477   7.516   2.161
 8076TIP3   OH224170   0.127   5.206   2.710
 8076TIP3    H124171   0.087   5.191   2.624
 8076TIP3    H224172   0.214   5.168   2.703
 8077TIP3   OH224173   4.320   3.742   4.075
 8077TIP3    H124174   4.249   3.791   4.034
 8077TIP3    H224175   4.285   3.713   4.159
 8078TIP3   OH224176   3.692   5.700   2.521
 8078TIP3    H124177   3.735   5.630   2.472
 8078TIP3    H224178   3.614   5.721   2.469
 8079TIP3   OH224179   6.700   1.536   2.491
 8079TIP3    H124180   6.653   1.539   2.408
 8079TIP3    H224181   6.674   1.453   2.530
 8080TIP3   OH224182   3.392   2.457   2.091
 8080TIP3    H124183   3.429   2.385   2.040
 8080TIP3    H224184   3.467   2.500   2.132
 8081TIP3   OH224185   4.829   0.767   0.279
 8081TIP3    H124186   4.842   0.806   0.365
 8081TIP3    H224187   4.735   0.752   0.272
 8082TIP3   OH224188   7.486   3.752   1.543
 8082TIP3    H124189   7.511   3.845   1.537
 8082TIP3    H224190   7.428   3.738   1.468
 8083TIP3   OH224191   1.737   4.204   0.711
 8083TIP3    H124192   1.661   4.146   0.712
 8083TIP3    H224193   1.757   4.216   0.619
 8084TIP3   OH224194   1.976   6.269   4.681
 8084TIP3    H124195   1.894   6.306   4.647
 8084TIP3    H224196   1.997   6.198   4.621
 8085TIP3   OH224197   7.750   7.630   5.569
 8085TIP3    H124198   7.781   7.717   5.596
 8085TIP3    H224199   7.655   7.634   5.579
 8086TIP3   OH224200   4.170   7.185   5.269
 8086TIP3    H124201   4.102   7.180   5.201
 8086TIP3    H224202   4.252   7.169   5.222
 8087TIP3   OH224203   7.825   4.704   3.494
 8087TIP3    H124204   7.872   4.626   3.523
 8087TIP3    H224205   7.738   4.672   3.468
 8088TIP3   OH224206   4.264   1.213   1.109
 8088TIP3    H124207   4.290   1.182   1.195
 8088TIP3    H224208   4.168   1.221   1.114
 8089TIP3   OH224209   6.521   4.597   3.700
 8089TIP3    H124210   6.480   4.517   3.669
 8089TIP3    H224211   6.582   4.568   3.768
 8090TIP3   OH224212   2.344   4.110   1.864
 8090TIP3    H124213   2.308   4.197   1.850
 8090TIP3    H224214   2.338   4.095   1.958
 8091TIP3   OH224215   6.451   5.906   1.274
 8091TIP3    H124216   6.535   5.949   1.290
 8091TIP3    H224217   6.435   5.855   1.353
 8092TIP3   OH224218   1.089   2.557   5.262
 8092TIP3    H124219   1.126   2.512   5.186
 8092TIP3    H224220   1.032   2.624   5.224
 8093TIP3   OH224221   4.469   6.580   0.249
 8093TIP3    H124222   4.406   6.538   0.191
 8093TIP3    H224223   4.496   6.660   0.203
 8094TIP3   OH224224   0.140   6.888   5.873
 8094TIP3    H124225   0.060   6.837   5.867
 8094TIP3    H224226   0.111   6.978   5.888
 8095TIP3   OH224227   6.625   6.677   3.452
 8095TIP3    H124228   6.574   6.661   3.531
 8095TIP3    H224229   6.633   6.772   3.446
 8096TIP3   OH224230   7.270   0.290   4.265
 8096TIP3    H124231   7.178   0.315   4.258
 8096TIP3    H224232   7.310   0.322   4.184
 8097TIP3   OH224233   5.392   0.480   3.838
 8097TIP3    H124234   5.326   0.520   3.782
 8097TIP3    H224235   5.345   0.451   3.915
 8098TIP3   OH224236   3.079   6.298   6.471
 8098TIP3    H124237   2.999   6.347   6.491
 8098TIP3    H224238   3.049   6.213   6.441
 8099TIP3   OH224239   1.691   4.710   1.696
 8099TIP3    H124240   1.615   4.696   1.639
 8099TIP3    H224241   1.714   4.802   1.682
 8100TIP3   OH224242   0.855   3.036   1.834
 8100TIP3    H124243   0.889   3.006   1.750
 8100TIP3    H224244   0.840   3.129   1.822
 8101TIP3   OH224245   7.490   3.905   1.250
 8101TIP3    H124246   7.510   3.999   1.249
 8101TIP3    H224247   7.567   3.863   1.211
 8102TIP3   OH224248   1.969   4.517   6.073
 8102TIP3    H124249   1.982   4.461   6.149
 8102TIP3    H224250   2.028   4.591   6.087
 8103TIP3   OH224251   7.463   4.986   5.967
 8103TIP3    H124252   7.383   5.002   6.017
 8103TIP3    H224253   7.469   4.891   5.961
 8104TIP3   OH224254   7.600   3.584   5.692
 8104TIP3    H124255   7.610   3.653   5.626
 8104TIP3    H224256   7.632   3.505   5.649
 8105TIP3   OH224257   6.249   0.394   3.920
 8105TIP3    H124258   6.205   0.471   3.956
 8105TIP3    H224259   6.230   0.324   3.982
 8106TIP3   OH224260   5.101   3.062   0.049
 8106TIP3    H124261   5.024   3.081   0.103
 8106TIP3    H224262   5.090   2.970   0.024
 8107TIP3   OH224263   2.021   1.496   1.485
 8107TIP3    H124264   2.105   1.515   1.528
 8107TIP3    H224265   1.990   1.581   1.454
 8108TIP3   OH224266   6.219   1.946   4.296
 8108TIP3    H124267   6.143   1.904   4.336
 8108TIP3    H224268   6.269   1.981   4.370
 8109TIP3   OH224269   1.702   4.136   0.248
 8109TIP3    H124270   1.668   4.166   0.164
 8109TIP3    H224271   1.720   4.043   0.234
 8110TIP3   OH224272   2.080   0.859   1.914
 8110TIP3    H124273   2.076   0.952   1.892
 8110TIP3    H224274   2.059   0.814   1.832
 8111TIP3   OH224275   5.660   2.152   1.936
 8111TIP3    H124276   5.664   2.079   1.997
 8111TIP3    H224277   5.684   2.228   1.988
 8112TIP3   OH224278   1.553   4.254   1.147
 8112TIP3    H124279   1.625   4.194   1.163
 8112TIP3    H224280   1.593   4.329   1.103
 8113TIP3   OH224281   4.219   6.359   5.869
 8113TIP3    H124282   4.260   6.444   5.851
 8113TIP3    H224283   4.293   6.299   5.878
 8114TIP3   OH224284   5.638   3.519   2.823
 8114TIP3    H124285   5.650   3.480   2.737
 8114TIP3    H224286   5.726   3.525   2.860
 8115TIP3   OH224287   8.016   5.619   3.310
 8115TIP3    H124288   8.054   5.676   3.376
 8115TIP3    H224289   8.082   5.617   3.240
 8116TIP3   OH224290   0.229   6.539   3.712
 8116TIP3    H124291   0.317   6.502   3.703
 8116TIP3    H224292   0.224   6.605   3.643
 8117TIP3   OH224293   1.065   0.712   0.279
 8117TIP3    H124294   1.064   0.714   0.375
 8117TIP3    H224295   1.143   0.762   0.255
 8118TIP3   OH224296   8.271   1.357   1.281
 8118TIP3    H124297   8.187   1.341   1.238
 8118TIP3    H224298   8.252   1.422   1.348
 8119TIP3   OH224299   0.227   1.154   1.373
 8119TIP3    H124300   0.167   1.080   1.381
 8119TIP3    H224301   0.171   1.229   1.352
 8120TIP3   OH224302   4.958   5.206   0.391
 8120TIP3    H124303   4.867   5.232   0.377
 8120TIP3    H224304   4.994   5.196   0.302
 8121TIP3   OH224305   3.602   4.468   4.232
 8121TIP3    H124306   3.636   4.409   4.299
 8121TIP3    H224307   3.649   4.550   4.244
 8122TIP3   OH224308   4.919   0.123   4.374
 8122TIP3    H124309   4.924   0.170   4.291
 8122TIP3    H224310   4.865   0.179   4.430
 8123TIP3   OH224311   7.683   5.460   0.470
 8123TIP3    H124312   7.684   5.432   0.378
 8123TIP3    H224313   7.737   5.396   0.515
 8124TIP3   OH224314   4.474   7.107   4.675
 8124TIP3    H124315   4.416   7.047   4.723
 8124TIP3    H224316   4.490   7.063   4.592
 8125TIP3   OH224317   3.343   3.874   4.594
 8125TIP3    H124318   3.384   3.951   4.632
 8125TIP3    H224319   3.398   3.853   4.518
 8126TIP3   OH224320   6.368   0.561   0.392
 8126TIP3    H124321   6.397   0.639   0.344
 8126TIP3    H224322   6.301   0.593   0.452
 8127TIP3   OH224323   7.488   3.200   5.618
 8127TIP3    H124324   7.408   3.251   5.607
 8127TIP3    H224325   7.486   3.137   5.545
 8128TIP3   OH224326   0.247   6.913   2.567
 8128TIP3    H124327   0.156   6.930   2.545
 8128TIP3    H224328   0.296   6.943   2.490
 8129TIP3   OH224329   6.747   6.687   5.090
 8129TIP3    H124330   6.802   6.717   5.017
 8129TIP3    H224331   6.712   6.768   5.128
 8130TIP3   OH224332   7.762   5.817   3.340
 8130TIP3    H124333   7.831   5.751   3.350
 8130TIP3    H224334   7.693   5.771   3.293
 8131TIP3   OH224335   5.440   0.162   5.670
 8131TIP3    H124336   5.430   0.104   5.595
 8131TIP3    H224337   5.356   0.158   5.715
 8132TIP3   OH224338   4.206   4.931   2.208
 8132TIP3    H124339   4.134   4.897   2.261
 8132TIP3    H224340   4.194   4.891   2.122
 8133TIP3   OH224341   8.099   5.334   1.634
 8133TIP3    H124342   8.192   5.314   1.639
 8133TIP3    H224343   8.095   5.423   1.598
 8134TIP3   OH224344   3.295   7.489   0.079
 8134TIP3    H124345   3.306   7.549   0.006
 8134TIP3    H224346   3.244   7.416   0.044
 8135TIP3   OH224347   1.108   2.200   3.274
 8135TIP3    H124348   1.165   2.257   3.326
 8135TIP3    H224349   1.067   2.143   3.338
 8136TIP3   OH224350   5.429   2.134   3.366
 8136TIP3    H124351   5.524   2.127   3.377
 8136TIP3    H224352   5.404   2.051   3.325
 8137TIP3   OH224353   0.661   1.315   5.193
 8137TIP3    H124354   0.600   1.297   5.265
 8137TIP3    H224355   0.657   1.237   5.138
 8138TIP3   OH224356   2.960   3.994   1.848
 8138TIP3    H124357   3.000   3.921   1.894
 8138TIP3    H224358   3.029   4.061   1.845
 8139TIP3   OH224359   0.876   5.170   4.762
 8139TIP3    H124360   0.954   5.218   4.736
 8139TIP3    H224361   0.908   5.081   4.780
 8140TIP3   OH224362   2.008   0.340   1.206
 8140TIP3    H124363   1.963   0.280   1.266
 8140TIP3    H224364   2.023   0.288   1.127
 8141TIP3   OH224365   7.865   5.570   6.038
 8141TIP3    H124366   7.883   5.542   6.128
 8141TIP3    H224367   7.772   5.590   6.037
 8142TIP3   OH224368   2.131   4.674   4.928
 8142TIP3    H124369   2.194   4.718   4.984
 8142TIP3    H224370   2.126   4.585   4.963
 8143TIP3   OH224371   0.927   5.632   6.343
 8143TIP3    H124372   0.843   5.663   6.309
 8143TIP3    H224373   0.992   5.687   6.299
 8144TIP3   OH224374   0.414   0.849   0.997
 8144TIP3    H124375   0.404   0.754   0.990
 8144TIP3    H224376   0.376   0.871   1.082
 8145TIP3   OH224377   7.455   5.511   1.352
 8145TIP3    H124378   7.493   5.429   1.321
 8145TIP3    H224379   7.482   5.516   1.444
 8146TIP3   OH224380   4.733   4.603   5.294
 8146TIP3    H124381   4.772   4.590   5.381
 8146TIP3    H224382   4.808   4.605   5.234
 8147TIP3   OH224383   6.854   7.459   0.948
 8147TIP3    H124384   6.858   7.369   0.979
 8147TIP3    H224385   6.765   7.488   0.967
 8148TIP3   OH224386   1.373   1.675   1.768
 8148TIP3    H124387   1.387   1.769   1.765
 8148TIP3    H224388   1.301   1.659   1.707
 8149TIP3   OH224389   6.669   3.206   0.539
 8149TIP3    H124390   6.625   3.197   0.455
 8149TIP3    H224391   6.759   3.180   0.522
 8150TIP3   OH224392   3.509   3.527   1.763
 8150TIP3    H124393   3.521   3.563   1.675
 8150TIP3    H224394   3.568   3.452   1.766
 8151TIP3   OH224395   4.767   6.980   2.458
 8151TIP3    H124396   4.717   6.899   2.469
 8151TIP3    H224397   4.719   7.030   2.392
 8152TIP3   OH224398   0.370   5.388   3.677
 8152TIP3    H124399   0.366   5.357   3.767
 8152TIP3    H224400   0.461   5.417   3.666
 8153TIP3   OH224401   3.247   2.606   5.377
 8153TIP3    H124402   3.169   2.662   5.375
 8153TIP3    H224403   3.275   2.600   5.286
 8154TIP3   OH224404   2.459   6.683   3.870
 8154TIP3    H124405   2.373   6.672   3.911
 8154TIP3    H224406   2.511   6.731   3.934
 8155TIP3   OH224407   4.639   3.825   1.173
 8155TIP3    H124408   4.639   3.869   1.258
 8155TIP3    H224409   4.713   3.764   1.178
 8156TIP3   OH224410   4.441   0.672   1.028
 8156TIP3    H124411   4.393   0.593   1.002
 8156TIP3    H224412   4.516   0.639   1.077
 8157TIP3   OH224413   0.504   5.106   4.167
 8157TIP3    H124414   0.489   5.086   4.259
 8157TIP3    H224415   0.549   5.190   4.166
 8158TIP3   OH224416   7.965   6.368   0.221
 8158TIP3    H124417   8.049   6.322   0.229
 8158TIP3    H224418   7.979   6.429   0.148
 8159TIP3   OH224419   8.087   3.902   5.880
 8159TIP3    H124420   8.131   3.850   5.946
 8159TIP3    H224421   8.027   3.957   5.929
 8160TIP3   OH224422   5.491   2.824   6.346
 8160TIP3    H124423   5.424   2.756   6.355
 8160TIP3    H224424   5.574   2.779   6.359
 8161TIP3   OH224425   2.357   1.930   6.130
 8161TIP3    H124426   2.268   1.967   6.134
 8161TIP3    H224427   2.344   1.836   6.142
 8162TIP3   OH224428   2.584   5.482   4.710
 8162TIP3    H124429   2.541   5.527   4.637
 8162TIP3    H224430   2.511   5.442   4.759
 8163TIP3   OH224431   4.652   5.244   1.394
 8163TIP3    H124432   4.742   5.274   1.388
 8163TIP3    H224433   4.643   5.214   1.485
 8164TIP3   OH224434   4.269   0.416   5.593
 8164TIP3    H124435   4.312   0.377   5.517
 8164TIP3    H224436   4.319   0.384   5.668
 8165TIP3   OH224437   2.462   0.516   3.104
 8165TIP3    H124438   2.534   0.574   3.080
 8165TIP3    H224439   2.430   0.481   3.022
 8166TIP3   OH224440   7.612   3.154   4.545
 8166TIP3    H124441   7.629   3.215   4.617
 8166TIP3    H224442   7.582   3.074   4.589
 8167TIP3   OH224443   1.296   3.022   5.027
 8167TIP3    H124444   1.271   3.027   4.935
 8167TIP3    H224445   1.335   3.108   5.046
 8168TIP3   OH224446   3.310   5.989   0.510
 8168TIP3    H124447   3.329   5.989   0.604
 8168TIP3    H224448   3.297   6.082   0.489
 8169TIP3   OH224449   5.944   1.605   4.139
 8169TIP3    H124450   5.881   1.645   4.079
 8169TIP3    H224451   6.029   1.617   4.096
 8170TIP3   OH224452   4.871   5.220   2.058
 8170TIP3    H124453   4.908   5.185   1.977
 8170TIP3    H224454   4.845   5.142   2.107
 8171TIP3   OH224455   6.269   6.700   1.619
 8171TIP3    H124456   6.287   6.682   1.711
 8171TIP3    H224457   6.306   6.625   1.572
 8172TIP3   OH224458   0.951   4.914   0.839
 8172TIP3    H124459   0.907   4.878   0.916
 8172TIP3    H224460   0.983   4.837   0.792
 8173TIP3   OH224461   7.644   2.954   0.388
 8173TIP3    H124462   7.620   2.909   0.308
 8173TIP3    H224463   7.583   2.920   0.454
 8174TIP3   OH224464   5.259   0.862   4.512
 8174TIP3    H124465   5.336   0.821   4.551
 8174TIP3    H224466   5.216   0.905   4.586
 8175TIP3   OH224467   5.841   5.770   3.893
 8175TIP3    H124468   5.795   5.840   3.846
 8175TIP3    H224469   5.862   5.810   3.978
 8176TIP3   OH224470   7.446   6.497   2.523
 8176TIP3    H124471   7.397   6.461   2.597
 8176TIP3    H224472   7.388   6.564   2.486
 8177TIP3   OH224473   7.016   1.824   5.490
 8177TIP3    H124474   6.932   1.851   5.455
 8177TIP3    H224475   6.995   1.776   5.570
 8178TIP3   OH224476   3.307   4.412   0.088
 8178TIP3    H124477   3.399   4.406   0.115
 8178TIP3    H224478   3.261   4.347   0.140
 8179TIP3   OH224479   4.990   5.538   2.945
 8179TIP3    H124480   5.044   5.469   2.985
 8179TIP3    H224481   5.054   5.599   2.907
 8180TIP3   OH224482   6.592   5.285   6.710
 8180TIP3    H124483   6.556   5.221   6.771
 8180TIP3    H224484   6.515   5.321   6.666
 8181TIP3   OH224485   3.526   5.506   3.405
 8181TIP3    H124486   3.433   5.503   3.429
 8181TIP3    H224487   3.570   5.540   3.483
 8182TIP3   OH224488   4.587   2.488   0.224
 8182TIP3    H124489   4.541   2.411   0.189
 8182TIP3    H224490   4.526   2.560   0.209
 8183TIP3   OH224491   3.163   6.990   2.413
 8183TIP3    H124492   3.089   6.936   2.440
 8183TIP3    H224493   3.228   6.979   2.483
 8184TIP3   OH224494   2.232   1.004   4.710
 8184TIP3    H124495   2.251   1.084   4.760
 8184TIP3    H224496   2.143   1.018   4.677
 8185TIP3   OH224497   5.546   7.552   0.416
 8185TIP3    H124498   5.601   7.511   0.350
 8185TIP3    H224499   5.601   7.558   0.494
 8186TIP3   OH224500   7.785   3.626   1.749
 8186TIP3    H124501   7.812   3.714   1.772
 8186TIP3    H224502   7.738   3.636   1.666
 8187TIP3   OH224503   1.168   0.624   0.790
 8187TIP3    H124504   1.137   0.612   0.880
 8187TIP3    H224505   1.220   0.546   0.772
 8188TIP3   OH224506   0.468   3.865   1.612
 8188TIP3    H124507   0.395   3.872   1.550
 8188TIP3    H224508   0.469   3.949   1.658
 8189TIP3   OH224509   4.580   3.684   3.234
 8189TIP3    H124510   4.642   3.742   3.277
 8189TIP3    H224511   4.577   3.606   3.289
 8190TIP3   OH224512   3.611   7.023   6.191
 8190TIP3    H124513   3.555   7.023   6.114
 8190TIP3    H224514   3.573   6.958   6.249
 8191TIP3   OH224515   7.312   4.057   2.960
 8191TIP3    H124516   7.226   4.015   2.958
 8191TIP3    H224517   7.304   4.129   2.897
 8192TIP3   OH224518   4.852   3.645   6.423
 8192TIP3    H124519   4.923   3.658   6.359
 8192TIP3    H224520   4.772   3.640   6.369
 8193TIP3   OH224521   6.962   5.947   1.040
 8193TIP3    H124522   7.016   6.008   0.990
 8193TIP3    H224523   7.024   5.886   1.078
 8194TIP3   OH224524   0.295   3.261   3.459
 8194TIP3    H124525   0.320   3.287   3.547
 8194TIP3    H224526   0.316   3.168   3.454
 8195TIP3   OH224527   4.349   1.271   3.084
 8195TIP3    H124528   4.341   1.286   2.990
 8195TIP3    H224529   4.363   1.358   3.121
 8196TIP3   OH224530   1.130   3.249   0.126
 8196TIP3    H124531   1.205   3.300   0.095
 8196TIP3    H224532   1.055   3.284   0.077
 8197TIP3   OH224533   1.229   0.625   4.385
 8197TIP3    H124534   1.258   0.539   4.352
 8197TIP3    H224535   1.143   0.638   4.343
 8198TIP3   OH224536   2.175   4.589   3.810
 8198TIP3    H124537   2.201   4.654   3.875
 8198TIP3    H224538   2.101   4.629   3.764
 8199TIP3   OH224539   0.625   7.405   3.846
 8199TIP3    H124540   0.581   7.322   3.864
 8199TIP3    H224541   0.616   7.417   3.752
 8200TIP3   OH224542   7.429   7.170   6.191
 8200TIP3    H124543   7.372   7.104   6.153
 8200TIP3    H224544   7.518   7.135   6.177
 8201TIP3   OH224545   3.516   0.145   1.009
 8201TIP3    H124546   3.515   0.143   1.104
 8201TIP3    H224547   3.500   0.237   0.987
 8202TIP3   OH224548   6.501   3.171   4.456
 8202TIP3    H124549   6.409   3.145   4.461
 8202TIP3    H224550   6.540   3.109   4.395
 8203TIP3   OH224551   5.932   2.505   1.999
 8203TIP3    H124552   5.872   2.432   2.009
 8203TIP3    H224553   6.019   2.467   2.007
 8204TIP3   OH224554   3.484   2.480   3.857
 8204TIP3    H124555   3.562   2.461   3.909
 8204TIP3    H224556   3.455   2.395   3.825
 8205TIP3   OH224557   8.003   4.354   1.907
 8205TIP3    H124558   7.988   4.266   1.871
 8205TIP3    H224559   7.923   4.372   1.957
 8206TIP3   OH224560   3.428   2.765   6.498
 8206TIP3    H124561   3.458   2.708   6.568
 8206TIP3    H224562   3.490   2.749   6.426
 8207TIP3   OH224563   5.423   3.639   2.940
 8207TIP3    H124564   5.488   3.598   2.884
 8207TIP3    H224565   5.425   3.588   3.021
 8208TIP3   OH224566   5.089   3.654   4.688
 8208TIP3    H124567   5.021   3.620   4.629
 8208TIP3    H224568   5.154   3.692   4.629
 8209TIP3   OH224569   6.126   6.991   6.166
 8209TIP3    H124570   6.075   7.072   6.169
 8209TIP3    H224571   6.188   6.999   6.239
 8210TIP3   OH224572   3.222   1.004   2.422
 8210TIP3    H124573   3.223   0.982   2.515
 8210TIP3    H224574   3.240   0.921   2.378
 8211TIP3   OH224575   2.323   1.521   2.569
 8211TIP3    H124576   2.250   1.471   2.535
 8211TIP3    H224577   2.289   1.564   2.648
 8212TIP3   OH224578   2.310   7.476   6.322
 8212TIP3    H124579   2.329   7.457   6.231
 8212TIP3    H224580   2.351   7.404   6.370
 8213TIP3   OH224581   0.754   4.359   6.480
 8213TIP3    H124582   0.704   4.362   6.561
 8213TIP3    H224583   0.696   4.313   6.418
 8214TIP3   OH224584   3.898   2.795   3.980
 8214TIP3    H124585   3.952   2.844   4.042
 8214TIP3    H224586   3.837   2.745   4.035
 8215TIP3   OH224587   5.906   0.721   1.418
 8215TIP3    H124588   5.846   0.747   1.488
 8215TIP3    H224589   5.960   0.799   1.402
 8216TIP3   OH224590   0.820   2.783   5.161
 8216TIP3    H124591   0.747   2.842   5.177
 8216TIP3    H224592   0.881   2.835   5.108
 8217TIP3   OH224593   2.529   3.723   5.967
 8217TIP3    H124594   2.536   3.709   6.062
 8217TIP3    H224595   2.599   3.669   5.930
 8218TIP3   OH224596   2.198   1.717   1.411
 8218TIP3    H124597   2.210   1.691   1.503
 8218TIP3    H224598   2.228   1.641   1.361
 8219TIP3   OH224599   8.055   3.084   2.318
 8219TIP3    H124600   8.149   3.105   2.314
 8219TIP3    H224601   8.022   3.109   2.232
 8220TIP3   OH224602   7.111   0.922   5.254
 8220TIP3    H124603   7.098   0.827   5.250
 8220TIP3    H224604   7.022   0.958   5.248
 8221TIP3   OH224605   2.498   0.271   0.489
 8221TIP3    H124606   2.512   0.181   0.460
 8221TIP3    H224607   2.444   0.310   0.420
 8222TIP3   OH224608   0.959   1.798   5.165
 8222TIP3    H124609   0.931   1.883   5.130
 8222TIP3    H224610   1.055   1.805   5.171
 8223TIP3   OH224611   5.792   4.149   6.273
 8223TIP3    H124612   5.810   4.077   6.334
 8223TIP3    H224613   5.697   4.145   6.259
 8224TIP3   OH224614   6.093   2.148   6.277
 8224TIP3    H124615   6.123   2.211   6.341
 8224TIP3    H224616   6.145   2.069   6.294
 8225TIP3   OH224617   6.339   2.587   2.184
 8225TIP3    H124618   6.374   2.661   2.234
 8225TIP3    H224619   6.416   2.532   2.167
 8226TIP3   OH224620   3.167   2.510   2.229
 8226TIP3    H124621   3.248   2.479   2.188
 8226TIP3    H224622   3.099   2.495   2.162
 8227TIP3   OH224623   1.635   6.491   4.261
 8227TIP3    H124624   1.578   6.426   4.220
 8227TIP3    H224625   1.692   6.520   4.191
 8228TIP3   OH224626   3.692   1.484   3.362
 8228TIP3    H124627   3.721   1.545   3.430
 8228TIP3    H224628   3.677   1.539   3.285
 8229TIP3   OH224629   6.530   3.806   4.038
 8229TIP3    H124630   6.557   3.889   4.078
 8229TIP3    H224631   6.436   3.800   4.056
 8230TIP3   OH224632   1.840   2.645   2.935
 8230TIP3    H124633   1.900   2.623   3.005
 8230TIP3    H224634   1.895   2.687   2.868
 8231TIP3   OH224635   5.700   3.316   0.075
 8231TIP3    H124636   5.794   3.298   0.067
 8231TIP3    H224637   5.675   3.348  -0.012
 8232TIP3   OH224638   5.466   0.131   2.975
 8232TIP3    H124639   5.551   0.164   3.004
 8232TIP3    H224640   5.405   0.202   2.993
 8233TIP3   OH224641   3.468   6.962   4.484
 8233TIP3    H124642   3.414   7.033   4.452
 8233TIP3    H224643   3.414   6.918   4.550
 8234TIP3   OH224644   3.349   3.062   4.182
 8234TIP3    H124645   3.381   3.080   4.270
 8234TIP3    H224646   3.263   3.020   4.196
 8235TIP3   OH224647   4.510   4.253   0.355
 8235TIP3    H124648   4.429   4.210   0.326
 8235TIP3    H224649   4.485   4.300   0.435
 8236TIP3   OH224650   3.035   4.138   4.620
 8236TIP3    H124651   3.054   4.102   4.534
 8236TIP3    H224652   3.056   4.231   4.612
 8237TIP3   OH224653   4.970   3.302   5.933
 8237TIP3    H124654   4.944   3.364   6.001
 8237TIP3    H224655   5.066   3.304   5.934
 8238TIP3   OH224656   7.491   0.345   6.557
 8238TIP3    H124657   7.515   0.310   6.471
 8238TIP3    H224658   7.503   0.439   6.549
 8239TIP3   OH224659   3.525   6.417   5.143
 8239TIP3    H124660   3.447   6.445   5.191
 8239TIP3    H224661   3.594   6.416   5.210
 8240TIP3   OH224662   3.713   5.906   2.073
 8240TIP3    H124663   3.630   5.945   2.102
 8240TIP3    H224664   3.690   5.817   2.047
 8241TIP3   OH224665   0.432   2.116   0.483
 8241TIP3    H124666   0.519   2.156   0.487
 8241TIP3    H224667   0.375   2.179   0.529
 8242TIP3   OH224668   7.236   5.796   4.627
 8242TIP3    H124669   7.311   5.854   4.640
 8242TIP3    H224670   7.218   5.800   4.533
 8243TIP3   OH224671   5.534   7.140   4.578
 8243TIP3    H124672   5.540   7.217   4.634
 8243TIP3    H224673   5.564   7.068   4.633
 8244TIP3   OH224674   1.942   4.211   5.195
 8244TIP3    H124675   1.974   4.160   5.120
 8244TIP3    H224676   2.017   4.219   5.253
 8245TIP3   OH224677   4.018   3.555   6.074
 8245TIP3    H124678   4.039   3.646   6.053
 8245TIP3    H224679   4.083   3.529   6.139
 8246TIP3   OH224680   5.103   3.326   0.908
 8246TIP3    H124681   5.035   3.266   0.878
 8246TIP3    H224682   5.104   3.314   1.003
 8247TIP3   OH224683   1.760   7.525   1.782
 8247TIP3    H124684   1.813   7.448   1.802
 8247TIP3    H224685   1.805   7.597   1.827
 8248TIP3   OH224686   4.614   5.653   6.314
 8248TIP3    H124687   4.692   5.693   6.276
 8248TIP3    H224688   4.546   5.720   6.303
 8249TIP3   OH224689   1.625   7.588   5.751
 8249TIP3    H124690   1.601   7.495   5.745
 8249TIP3    H224691   1.717   7.590   5.725
 8250TIP3   OH224692   8.236   7.435   3.042
 8250TIP3    H124693   8.238   7.364   3.106
 8250TIP3    H224694   8.305   7.413   2.980
 8251TIP3   OH224695   3.417   2.118   1.686
 8251TIP3    H124696   3.368   2.173   1.625
 8251TIP3    H224697   3.362   2.040   1.696
 8252TIP3   OH224698   6.177   0.559   2.604
 8252TIP3    H124699   6.132   0.478   2.583
 8252TIP3    H224700   6.268   0.533   2.620
 8253TIP3   OH224701   7.857   2.563   0.602
 8253TIP3    H124702   7.941   2.574   0.646
 8253TIP3    H224703   7.794   2.552   0.674
 8254TIP3   OH224704   7.071   6.960   6.505
 8254TIP3    H124705   7.019   6.918   6.436
 8254TIP3    H224706   7.130   7.019   6.458
 8255TIP3   OH224707   5.623   2.404   3.270
 8255TIP3    H124708   5.572   2.370   3.196
 8255TIP3    H224709   5.652   2.326   3.317
 8256TIP3   OH224710   6.809   3.433   1.857
 8256TIP3    H124711   6.717   3.409   1.863
 8256TIP3    H224712   6.827   3.440   1.764
 8257TIP3   OH224713   5.721   7.792   2.458
 8257TIP3    H124714   5.753   7.879   2.483
 8257TIP3    H224715   5.682   7.757   2.538
 8258TIP3   OH224716   1.528   7.142   3.439
 8258TIP3    H124717   1.449   7.197   3.441
 8258TIP3    H224718   1.581   7.172   3.513
 8259TIP3   OH224719   4.923   1.291   6.189
 8259TIP3    H124720   4.880   1.376   6.183
 8259TIP3    H224721   5.015   1.312   6.208
 8260TIP3   OH224722   7.342   2.468   6.609
 8260TIP3    H124723   7.311   2.530   6.544
 8260TIP3    H224724   7.403   2.518   6.663
 8261TIP3   OH224725   6.993   6.145   5.573
 8261TIP3    H124726   7.048   6.075   5.606
 8261TIP3    H224727   6.939   6.104   5.505
 8262TIP3   OH224728   6.403   1.434   2.542
 8262TIP3    H124729   6.362   1.378   2.607
 8262TIP3    H224730   6.484   1.389   2.519
 8263TIP3   OH224731   4.262   5.094   1.814
 8263TIP3    H124732   4.337   5.043   1.785
 8263TIP3    H224733   4.199   5.029   1.844
 8264TIP3   OH224734   3.339   1.560   0.265
 8264TIP3    H124735   3.321   1.471   0.296
 8264TIP3    H224736   3.435   1.565   0.261
 8265TIP3   OH224737   7.449   1.606   5.936
 8265TIP3    H124738   7.472   1.542   6.003
 8265TIP3    H224739   7.485   1.689   5.968
 8266TIP3   OH224740   0.323   7.275   3.525
 8266TIP3    H124741   0.417   7.264   3.535
 8266TIP3    H224742   0.290   7.286   3.614
 8267TIP3   OH224743   7.996   2.253   4.063
 8267TIP3    H124744   7.930   2.201   4.108
 8267TIP3    H224745   7.962   2.265   3.975
 8268TIP3   OH224746   4.621   2.265   1.024
 8268TIP3    H124747   4.704   2.301   1.054
 8268TIP3    H224748   4.580   2.231   1.103
 8269TIP3   OH224749   5.948   5.940   6.534
 8269TIP3    H124750   5.988   6.027   6.523
 8269TIP3    H224751   5.857   5.952   6.507
 8270TIP3   OH224752   6.924   1.627   0.085
 8270TIP3    H124753   6.892   1.636  -0.005
 8270TIP3    H224754   6.852   1.659   0.139
 8271TIP3   OH224755   4.842   7.439   1.930
 8271TIP3    H124756   4.861   7.482   2.014
 8271TIP3    H224757   4.889   7.492   1.865
 8272TIP3   OH224758   1.916   3.721   1.705
 8272TIP3    H124759   1.824   3.739   1.721
 8272TIP3    H224760   1.917   3.651   1.640
 8273TIP3   OH224761   7.737   6.021   0.313
 8273TIP3    H124762   7.710   6.109   0.286
 8273TIP3    H224763   7.821   6.034   0.356
 8274TIP3   OH224764   5.579   5.604   4.403
 8274TIP3    H124765   5.504   5.562   4.444
 8274TIP3    H224766   5.611   5.666   4.468
 8275TIP3   OH224767   1.397   6.539   2.223
 8275TIP3    H124768   1.462   6.491   2.173
 8275TIP3    H224769   1.434   6.545   2.311
 8276TIP3   OH224770   4.310   6.090   5.297
 8276TIP3    H124771   4.308   6.185   5.291
 8276TIP3    H224772   4.273   6.070   5.383
 8277TIP3   OH224773   4.267   0.447   0.983
 8277TIP3    H124774   4.247   0.472   1.073
 8277TIP3    H224775   4.219   0.365   0.970
 8278TIP3   OH224776   1.638   7.795   6.166
 8278TIP3    H124777   1.704   7.779   6.233
 8278TIP3    H224778   1.563   7.741   6.192
 8279TIP3   OH224779   4.490   4.472   3.916
 8279TIP3    H124780   4.495   4.376   3.922
 8279TIP3    H224781   4.577   4.502   3.942
 8280TIP3   OH224782   7.904   4.188   3.932
 8280TIP3    H124783   7.962   4.119   3.965
 8280TIP3    H224784   7.963   4.261   3.912
 8281TIP3   OH224785   3.685   4.626   1.440
 8281TIP3    H124786   3.750   4.659   1.502
 8281TIP3    H224787   3.610   4.602   1.495
 8282TIP3   OH224788   5.333   1.919   5.260
 8282TIP3    H124789   5.387   1.959   5.192
 8282TIP3    H224790   5.263   1.875   5.212
 8283TIP3   OH224791   5.391   0.429   0.191
 8283TIP3    H124792   5.397   0.338   0.160
 8283TIP3    H224793   5.377   0.481   0.111
 8284TIP3   OH224794   6.456   3.849   0.734
 8284TIP3    H124795   6.446   3.870   0.827
 8284TIP3    H224796   6.399   3.773   0.721
 8285TIP3   OH224797   4.763   2.608   6.546
 8285TIP3    H124798   4.842   2.608   6.599
 8285TIP3    H224799   4.744   2.515   6.530
 8286TIP3   OH224800   6.873   6.233   5.992
 8286TIP3    H124801   6.803   6.181   6.031
 8286TIP3    H224802   6.843   6.253   5.904
 8287TIP3   OH224803   4.477   0.592   2.526
 8287TIP3    H124804   4.552   0.544   2.564
 8287TIP3    H224805   4.413   0.595   2.597
 8288TIP3   OH224806   1.487   5.203   0.074
 8288TIP3    H124807   1.461   5.288   0.039
 8288TIP3    H224808   1.497   5.147  -0.003
 8289TIP3   OH224809   1.509   1.935   4.272
 8289TIP3    H124810   1.536   1.902   4.357
 8289TIP3    H224811   1.483   2.025   4.288
 8290TIP3   OH224812   1.417   0.390   3.947
 8290TIP3    H124813   1.367   0.346   4.016
 8290TIP3    H224814   1.504   0.402   3.985
 8291TIP3   OH224815   4.050   3.778   2.421
 8291TIP3    H124816   4.122   3.754   2.362
 8291TIP3    H224817   4.094   3.818   2.497
 8292TIP3   OH224818   5.567   5.664   3.748
 8292TIP3    H124819   5.581   5.734   3.812
 8292TIP3    H224820   5.473   5.650   3.747
 8293TIP3   OH224821   7.556   5.793   2.645
 8293TIP3    H124822   7.490   5.748   2.697
 8293TIP3    H224823   7.595   5.856   2.706
 8294TIP3   OH224824   1.554   4.159   2.572
 8294TIP3    H124825   1.600   4.230   2.528
 8294TIP3    H224826   1.624   4.098   2.599
 8295TIP3   OH224827   4.997   2.260   5.319
 8295TIP3    H124828   4.917   2.245   5.369
 8295TIP3    H224829   5.067   2.256   5.383
 8296TIP3   OH224830   7.614   2.292   1.113
 8296TIP3    H124831   7.577   2.243   1.039
 8296TIP3    H224832   7.577   2.249   1.190
 8297TIP3   OH224833   5.848   3.218   6.134
 8297TIP3    H124834   5.798   3.221   6.053
 8297TIP3    H224835   5.813   3.290   6.186
 8298TIP3   OH224836   6.112   6.892   5.455
 8298TIP3    H124837   6.060   6.911   5.533
 8298TIP3    H224838   6.196   6.860   5.489
 8299TIP3   OH224839   5.396   4.299   5.849
 8299TIP3    H124840   5.370   4.337   5.933
 8299TIP3    H224841   5.350   4.215   5.846
 8300TIP3   OH224842   4.326   3.999   3.273
 8300TIP3    H124843   4.321   3.905   3.256
 8300TIP3    H224844   4.345   4.038   3.187
 8301TIP3   OH224845   1.593   7.075   5.065
 8301TIP3    H124846   1.663   7.096   5.127
 8301TIP3    H224847   1.628   7.102   4.980
 8302TIP3   OH224848   3.824   6.920   5.319
 8302TIP3    H124849   3.812   7.002   5.368
 8302TIP3    H224850   3.742   6.872   5.331
 8303TIP3   OH224851   2.545   6.678   0.427
 8303TIP3    H124852   2.612   6.644   0.369
 8303TIP3    H224853   2.546   6.773   0.412
 8304TIP3   OH224854   4.337   2.441   6.756
 8304TIP3    H124855   4.424   2.443   6.796
 8304TIP3    H224856   4.347   2.488   6.673
 8305TIP3   OH224857   4.725   7.148   4.333
 8305TIP3    H124858   4.730   7.189   4.247
 8305TIP3    H224859   4.799   7.184   4.382
 8306TIP3   OH224860   0.932   6.920   2.164
 8306TIP3    H124861   0.925   6.985   2.095
 8306TIP3    H224862   1.026   6.907   2.176
 8307TIP3   OH224863   4.956   1.562   3.372
 8307TIP3    H124864   5.035   1.555   3.426
 8307TIP3    H224865   4.900   1.624   3.419
 8308TIP3   OH224866   5.945   4.422   4.034
 8308TIP3    H124867   5.977   4.512   4.027
 8308TIP3    H224868   6.019   4.373   4.071
 8309TIP3   OH224869   6.588   3.694   1.373
 8309TIP3    H124870   6.564   3.729   1.458
 8309TIP3    H224871   6.581   3.769   1.313
 8310TIP3   OH224872   4.118   4.978   0.551
 8310TIP3    H124873   4.153   4.902   0.506
 8310TIP3    H224874   4.136   4.962   0.644
 8311TIP3   OH224875   3.170   1.491   1.482
 8311TIP3    H124876   3.153   1.405   1.442
 8311TIP3    H224877   3.262   1.508   1.463
 8312TIP3   OH224878   4.253   0.422   2.072
 8312TIP3    H124879   4.172   0.410   2.122
 8312TIP3    H224880   4.310   0.474   2.130
 8313TIP3   OH224881   6.415   6.057   0.849
 8313TIP3    H124882   6.335   6.052   0.902
 8313TIP3    H224883   6.401   6.132   0.792
 8314TIP3   OH224884   1.528   4.991   2.646
 8314TIP3    H124885   1.438   4.974   2.618
 8314TIP3    H224886   1.567   4.904   2.652
 8315TIP3   OH224887   4.539   3.148   2.924
 8315TIP3    H124888   4.458   3.155   2.976
 8315TIP3    H224889   4.604   3.116   2.987
 8316TIP3   OH224890   1.266   6.769   6.063
 8316TIP3    H124891   1.281   6.858   6.032
 8316TIP3    H224892   1.208   6.730   5.997
 8317TIP3   OH224893   3.015   7.369   6.076
 8317TIP3    H124894   3.014   7.294   6.017
 8317TIP3    H224895   3.077   7.430   6.036
 8318TIP3   OH224896   5.890   2.913   0.573
 8318TIP3    H124897   5.898   2.939   0.482
 8318TIP3    H224898   5.968   2.951   0.615
 8319TIP3   OH224899   0.071   5.255   1.588
 8319TIP3    H124900   0.137   5.270   1.520
 8319TIP3    H224901   0.056   5.161   1.587
 8320TIP3   OH224902   7.920   0.687   0.307
 8320TIP3    H124903   8.005   0.684   0.352
 8320TIP3    H224904   7.936   0.740   0.229
 8321TIP3   OH224905   5.169   4.358   1.378
 8321TIP3    H124906   5.156   4.335   1.470
 8321TIP3    H224907   5.236   4.297   1.347
 8322TIP3   OH224908   7.212   3.467   2.273
 8322TIP3    H124909   7.176   3.541   2.223
 8322TIP3    H224910   7.226   3.399   2.208
 8323TIP3   OH224911   2.843   4.482   2.907
 8323TIP3    H124912   2.758   4.454   2.941
 8323TIP3    H224913   2.860   4.566   2.951
 8324TIP3   OH224914   4.159   3.985   4.288
 8324TIP3    H124915   4.152   4.079   4.309
 8324TIP3    H224916   4.077   3.965   4.243
 8325TIP3   OH224917   1.997   4.323   6.266
 8325TIP3    H124918   1.987   4.228   6.278
 8325TIP3    H224919   1.948   4.362   6.339
 8326TIP3   OH224920   0.906   2.432   5.438
 8326TIP3    H124921   0.857   2.512   5.456
 8326TIP3    H224922   0.947   2.448   5.352
 8327TIP3   OH224923   8.007   4.531   3.637
 8327TIP3    H124924   7.992   4.437   3.641
 8327TIP3    H224925   8.103   4.539   3.628
 8328TIP3   OH224926   0.791   6.467   5.163
 8328TIP3    H124927   0.739   6.503   5.091
 8328TIP3    H224928   0.819   6.381   5.132
 8329TIP3   OH224929   2.527   5.225   3.821
 8329TIP3    H124930   2.583   5.268   3.886
 8329TIP3    H224931   2.452   5.283   3.811
 8330TIP3   OH224932   4.336   2.365   0.085
 8330TIP3    H124933   4.309   2.281   0.122
 8330TIP3    H224934   4.275   2.429   0.121
 8331TIP3   OH224935   5.218   7.276   4.790
 8331TIP3    H124936   5.179   7.304   4.707
 8331TIP3    H224937   5.237   7.183   4.777
 8332TIP3   OH224938   0.082   6.194   0.090
 8332TIP3    H124939   0.019   6.122   0.097
 8332TIP3    H224940   0.152   6.159   0.036
 8333TIP3   OH224941   7.815   5.668   0.656
 8333TIP3    H124942   7.776   5.634   0.576
 8333TIP3    H224943   7.855   5.751   0.629
 8334TIP3   OH224944   3.481   3.021   4.445
 8334TIP3    H124945   3.472   3.067   4.528
 8334TIP3    H224946   3.412   2.955   4.446
 8335TIP3   OH224947   7.792   4.573   3.826
 8335TIP3    H124948   7.869   4.579   3.769
 8335TIP3    H224949   7.827   4.551   3.912
 8336TIP3   OH224950   5.961   4.339   4.513
 8336TIP3    H124951   5.926   4.358   4.600
 8336TIP3    H224952   5.885   4.347   4.454
 8337TIP3   OH224953   7.619   1.439   5.636
 8337TIP3    H124954   7.673   1.515   5.657
 8337TIP3    H224955   7.680   1.376   5.598
 8338TIP3   OH224956   3.902   0.007   4.576
 8338TIP3    H124957   3.877  -0.083   4.594
 8338TIP3    H224958   3.854   0.030   4.497
 8339TIP3   OH224959   4.517   7.598   2.424
 8339TIP3    H124960   4.505   7.623   2.332
 8339TIP3    H224961   4.430   7.572   2.453
 8340TIP3   OH224962   6.264   3.487   2.395
 8340TIP3    H124963   6.306   3.572   2.413
 8340TIP3    H224964   6.332   3.422   2.415
 8341TIP3   OH224965   4.643   6.699   3.402
 8341TIP3    H124966   4.656   6.621   3.350
 8341TIP3    H224967   4.555   6.730   3.378
 8342TIP3   OH224968   0.792  -0.035   1.384
 8342TIP3    H124969   0.815  -0.072   1.469
 8342TIP3    H224970   0.809   0.059   1.392
 8343TIP3   OH224971   3.220   3.506   2.858
 8343TIP3    H124972   3.177   3.532   2.939
 8343TIP3    H224973   3.266   3.425   2.881
 8344TIP3   OH224974   4.903   1.587   1.619
 8344TIP3    H124975   4.853   1.519   1.574
 8344TIP3    H224976   4.877   1.669   1.577
 8345TIP3   OH224977   1.998   0.747   2.408
 8345TIP3    H124978   2.053   0.782   2.338
 8345TIP3    H224979   1.934   0.692   2.362
 8346TIP3   OH224980   0.132   1.845   4.116
 8346TIP3    H124981   0.084   1.920   4.080
 8346TIP3    H224982   0.215   1.882   4.146
 8347TIP3   OH224983   5.752   3.908   4.807
 8347TIP3    H124984   5.799   3.975   4.857
 8347TIP3    H224985   5.764   3.933   4.716
 8348TIP3   OH224986   5.429   1.727   3.959
 8348TIP3    H124987   5.397   1.648   4.002
 8348TIP3    H224988   5.368   1.795   3.986
 8349TIP3   OH224989   6.049   6.902   6.570
 8349TIP3    H124990   6.136   6.930   6.597
 8349TIP3    H224991   6.062   6.816   6.531
 8350TIP3   OH224992   2.382   1.664   5.338
 8350TIP3    H124993   2.459   1.720   5.326
 8350TIP3    H224994   2.419   1.578   5.360
 8351TIP3   OH224995   1.520   1.900   1.681
 8351TIP3    H124996   1.503   1.875   1.590
 8351TIP3    H224997   1.587   1.968   1.675
 8352TIP3   OH224998   3.007   4.691   5.447
 8352TIP3    H124999   3.053   4.714   5.527
 8352TIP3    H225000   3.071   4.705   5.377
 8353TIP3   OH225001   0.790   4.404   3.856
 8353TIP3    H125002   0.767   4.337   3.792
 8353TIP3    H225003   0.789   4.359   3.940
 8354TIP3   OH225004   3.251   3.534   1.487
 8354TIP3    H125005   3.246   3.628   1.470
 8354TIP3    H225006   3.303   3.500   1.415
 8355TIP3   OH225007   6.824   6.302   0.774
 8355TIP3    H125008   6.810   6.343   0.689
 8355TIP3    H225009   6.867   6.219   0.754
 8356TIP3   OH225010   5.354   7.441   5.936
 8356TIP3    H125011   5.374   7.347   5.938
 8356TIP3    H225012   5.349   7.466   6.028
 8357TIP3   OH225013   6.280   7.071   1.601
 8357TIP3    H125014   6.205   7.129   1.586
 8357TIP3    H225015   6.278   7.054   1.695
 8358TIP3   OH225016   3.414   3.940   3.280
 8358TIP3    H125017   3.495   3.981   3.312
 8358TIP3    H225018   3.409   3.966   3.188
 8359TIP3   OH225019   3.485   6.360   6.078
 8359TIP3    H125020   3.495   6.282   6.024
 8359TIP3    H225021   3.402   6.347   6.124
 8360TIP3   OH225022   4.823   3.777   5.941
 8360TIP3    H125023   4.861   3.865   5.946
 8360TIP3    H225024   4.790   3.770   5.852
 8361TIP3   OH225025   3.589   3.028   0.910
 8361TIP3    H125026   3.524   3.059   0.973
 8361TIP3    H225027   3.558   3.059   0.825
 8362TIP3   OH225028   1.651   7.261   3.661
 8362TIP3    H125029   1.708   7.201   3.708
 8362TIP3    H225030   1.597   7.302   3.729
 8363TIP3   OH225031   7.783   0.960   2.166
 8363TIP3    H125032   7.750   0.897   2.102
 8363TIP3    H225033   7.722   1.033   2.162
 8364TIP3   OH225034   2.222   4.154   4.381
 8364TIP3    H125035   2.170   4.114   4.451
 8364TIP3    H225036   2.160   4.212   4.336
 8365TIP3   OH225037   4.487   2.970   3.521
 8365TIP3    H125038   4.418   3.029   3.553
 8365TIP3    H225039   4.443   2.913   3.458
 8366TIP3   OH225040   6.041   2.760   6.376
 8366TIP3    H125041   5.952   2.730   6.354
 8366TIP3    H225042   6.098   2.708   6.319
 8367TIP3   OH225043   8.277   6.897   2.553
 8367TIP3    H125044   8.264   6.991   2.542
 8367TIP3    H225045   8.202   6.868   2.605
 8368TIP3   OH225046   0.872   0.549   5.107
 8368TIP3    H125047   0.935   0.485   5.074
 8368TIP3    H225048   0.806   0.497   5.152
 8369TIP3   OH225049   4.532   5.390   4.495
 8369TIP3    H125050   4.512   5.443   4.572
 8369TIP3    H225051   4.459   5.405   4.435
 8370TIP3   OH225052   6.616   4.976   6.352
 8370TIP3    H125053   6.665   4.983   6.434
 8370TIP3    H225054   6.660   5.037   6.292
 8371TIP3   OH225055   6.527   2.095   4.141
 8371TIP3    H125056   6.575   2.104   4.059
 8371TIP3    H225057   6.584   2.135   4.207
 8372TIP3   OH225058   5.606   1.880   3.260
 8372TIP3    H125059   5.524   1.837   3.284
 8372TIP3    H225060   5.663   1.866   3.335
 8373TIP3   OH225061   6.147   1.401   2.724
 8373TIP3    H125062   6.073   1.371   2.671
 8373TIP3    H225063   6.148   1.341   2.799
 8374TIP3   OH225064   0.643   1.451   0.731
 8374TIP3    H125065   0.637   1.406   0.647
 8374TIP3    H225066   0.558   1.495   0.741
 8375TIP3   OH225067   4.256   0.491   4.589
 8375TIP3    H125068   4.230   0.564   4.533
 8375TIP3    H225069   4.216   0.511   4.674
 8376TIP3   OH225070   1.275   3.902   0.171
 8376TIP3    H125071   1.211   3.916   0.241
 8376TIP3    H225072   1.270   3.982   0.118
 8377TIP3   OH225073   7.352   4.662   0.855
 8377TIP3    H125074   7.260   4.641   0.869
 8377TIP3    H225075   7.363   4.661   0.760
 8378TIP3   OH225076   1.675   3.102   4.417
 8378TIP3    H125077   1.680   3.024   4.363
 8378TIP3    H225078   1.625   3.075   4.494
 8379TIP3   OH225079   3.784   6.903   1.389
 8379TIP3    H125080   3.807   6.810   1.396
 8379TIP3    H225081   3.689   6.902   1.372
 8380TIP3   OH225082   3.162   6.703   5.872
 8380TIP3    H125083   3.239   6.744   5.832
 8380TIP3    H225084   3.196   6.652   5.945
 8381TIP3   OH225085   6.108   6.760   0.357
 8381TIP3    H125086   6.139   6.845   0.389
 8381TIP3    H225087   6.158   6.745   0.277
 8382TIP3   OH225088   1.017   2.847   4.624
 8382TIP3    H125089   1.075   2.784   4.582
 8382TIP3    H225090   0.955   2.793   4.674
 8383TIP3   OH225091   1.502   7.830   2.316
 8383TIP3    H125092   1.524   7.793   2.230
 8383TIP3    H225093   1.455   7.760   2.361
 8384TIP3   OH225094   7.530   0.695   3.608
 8384TIP3    H125095   7.516   0.656   3.522
 8384TIP3    H225096   7.621   0.726   3.606
 8385TIP3   OH225097   4.474   7.199   1.020
 8385TIP3    H125098   4.483   7.245   0.937
 8385TIP3    H225099   4.469   7.268   1.086
 8386TIP3   OH225100   2.286   5.705   6.394
 8386TIP3    H125101   2.251   5.625   6.356
 8386TIP3    H225102   2.261   5.700   6.487
 8387TIP3   OH225103   0.843   5.283   3.844
 8387TIP3    H125104   0.921   5.251   3.800
 8387TIP3    H225105   0.792   5.204   3.863
 8388TIP3   OH225106   7.978   1.319   5.599
 8388TIP3    H125107   7.918   1.249   5.572
 8388TIP3    H225108   7.929   1.399   5.584
 8389TIP3   OH225109   7.842   1.970   6.529
 8389TIP3    H125110   7.932   1.976   6.559
 8389TIP3    H225111   7.826   2.053   6.484
 8390TIP3   OH225112   5.965   4.684   4.747
 8390TIP3    H125113   5.987   4.777   4.743
 8390TIP3    H225114   5.869   4.681   4.748
 8391TIP3   OH225115   3.878   2.436   1.085
 8391TIP3    H125116   3.884   2.341   1.096
 8391TIP3    H225117   3.877   2.471   1.174
 8392TIP3   OH225118   5.344   1.314   0.608
 8392TIP3    H125119   5.404   1.311   0.683
 8392TIP3    H225120   5.262   1.279   0.643
 8393TIP3   OH225121   3.120   5.021   6.022
 8393TIP3    H125122   3.166   5.002   5.941
 8393TIP3    H225123   3.185   5.061   6.079
 8394TIP3   OH225124   7.182   4.460   4.618
 8394TIP3    H125125   7.168   4.426   4.530
 8394TIP3    H225126   7.096   4.487   4.648
 8395TIP3   OH225127   5.809   5.236   5.176
 8395TIP3    H125128   5.861   5.198   5.246
 8395TIP3    H225129   5.837   5.328   5.173
 8396TIP3   OH225130   2.537   3.104   5.740
 8396TIP3    H125131   2.571   3.022   5.775
 8396TIP3    H225132   2.526   3.160   5.817
 8397TIP3   OH225133   1.010   3.593   4.547
 8397TIP3    H125134   1.074   3.664   4.552
 8397TIP3    H225135   0.991   3.583   4.454
 8398TIP3   OH225136   1.036   1.081   3.039
 8398TIP3    H125137   0.949   1.040   3.031
 8398TIP3    H225138   1.065   1.093   2.948
 8399TIP3   OH225139   2.415   7.468   0.798
 8399TIP3    H125140   2.425   7.559   0.827
 8399TIP3    H225141   2.452   7.416   0.869
 8400TIP3   OH225142   4.337   4.948   4.856
 8400TIP3    H125143   4.359   4.935   4.763
 8400TIP3    H225144   4.379   5.031   4.879
 8401TIP3   OH225145   0.772   3.277   1.637
 8401TIP3    H125146   0.733   3.350   1.686
 8401TIP3    H225147   0.698   3.218   1.621
 8402TIP3   OH225148   6.762   5.390   1.234
 8402TIP3    H125149   6.786   5.466   1.286
 8402TIP3    H225150   6.679   5.414   1.192
 8403TIP3   OH225151   4.412   2.667   1.911
 8403TIP3    H125152   4.478   2.685   1.843
 8403TIP3    H225153   4.458   2.681   1.994
 8404TIP3   OH225154   5.226   0.971   5.056
 8404TIP3    H125155   5.257   1.002   5.141
 8404TIP3    H225156   5.163   0.902   5.078
 8405TIP3   OH225157   4.498   4.454   5.499
 8405TIP3    H125158   4.497   4.409   5.583
 8405TIP3    H225159   4.590   4.479   5.486
 8406TIP3   OH225160   6.702   7.005   2.423
 8406TIP3    H125161   6.783   6.959   2.403
 8406TIP3    H225162   6.642   6.979   2.354
 8407TIP3   OH225163   3.888   5.650   0.508
 8407TIP3    H125164   3.968   5.609   0.542
 8407TIP3    H225165   3.848   5.582   0.454
 8408TIP3   OH225166   6.033   7.431   3.089
 8408TIP3    H125167   6.126   7.442   3.108
 8408TIP3    H225168   5.999   7.520   3.085
 8409TIP3   OH225169   6.862   7.280   1.702
 8409TIP3    H125170   6.787   7.336   1.723
 8409TIP3    H225171   6.910   7.271   1.784
 8410TIP3   OH225172   0.783   1.596   3.594
 8410TIP3    H125173   0.863   1.582   3.646
 8410TIP3    H225174   0.734   1.515   3.603
 8411TIP3   OH225175   0.428   3.253   0.881
 8411TIP3    H125176   0.473   3.293   0.956
 8411TIP3    H225177   0.373   3.324   0.846
 8412TIP3   OH225178   5.769   7.568   0.243
 8412TIP3    H125179   5.847   7.623   0.247
 8412TIP3    H225180   5.754   7.555   0.150
 8413TIP3   OH225181   3.749   1.427   2.666
 8413TIP3    H125182   3.686   1.381   2.610
 8413TIP3    H225183   3.801   1.479   2.605
 8414TIP3   OH225184   4.884   6.943   4.217
 8414TIP3    H125185   4.832   6.895   4.153
 8414TIP3    H225186   4.821   6.997   4.265
 8415TIP3   OH225187   2.756   6.929   4.226
 8415TIP3    H125188   2.679   6.973   4.190
 8415TIP3    H225189   2.794   6.992   4.287
 8416TIP3   OH225190   2.245   5.306   0.555
 8416TIP3    H125191   2.150   5.299   0.547
 8416TIP3    H225192   2.278   5.220   0.528
 8417TIP3   OH225193   2.292   5.113   5.146
 8417TIP3    H125194   2.325   5.024   5.135
 8417TIP3    H225195   2.271   5.120   5.240
 8418TIP3   OH225196   0.130   0.060   3.264
 8418TIP3    H125197   0.105   0.142   3.221
 8418TIP3    H225198   0.121   0.079   3.358
 8419TIP3   OH225199   2.533   4.790   4.324
 8419TIP3    H125200   2.616   4.742   4.324
 8419TIP3    H225201   2.487   4.759   4.402
 8420TIP3   OH225202   2.773   2.049   5.518
 8420TIP3    H125203   2.777   2.098   5.600
 8420TIP3    H225204   2.680   2.043   5.497
 8421TIP3   OH225205   6.393   3.591   3.137
 8421TIP3    H125206   6.320   3.534   3.162
 8421TIP3    H225207   6.471   3.537   3.150
 8422TIP3   OH225208   7.768   7.284   5.871
 8422TIP3    H125209   7.845   7.341   5.867
 8422TIP3    H225210   7.774   7.230   5.792
 8423TIP3   OH225211   5.143   7.155   0.812
 8423TIP3    H125212   5.172   7.210   0.885
 8423TIP3    H225213   5.222   7.141   0.760
 8424TIP3   OH225214   5.075   6.415   3.980
 8424TIP3    H125215   5.109   6.482   3.920
 8424TIP3    H225216   4.987   6.446   4.002
 8425TIP3   OH225217   1.158   7.290   0.292
 8425TIP3    H125218   1.213   7.219   0.325
 8425TIP3    H225219   1.069   7.259   0.306
 8426TIP3   OH225220   6.465   4.283   5.193
 8426TIP3    H125221   6.457   4.225   5.269
 8426TIP3    H225222   6.424   4.234   5.122
 8427TIP3   OH225223   0.440   3.080   0.319
 8427TIP3    H125224   0.503   3.151   0.327
 8427TIP3    H225225   0.411   3.063   0.409
 8428TIP3   OH225226   5.021   5.030   6.294
 8428TIP3    H125227   5.110   5.064   6.298
 8428TIP3    H225228   5.021   4.955   6.353
 8429TIP3   OH225229   7.981   1.620   5.340
 8429TIP3    H125230   8.046   1.659   5.399
 8429TIP3    H225231   7.902   1.611   5.393
 8430TIP3   OH225232   1.875   6.059   3.309
 8430TIP3    H125233   1.921   6.004   3.373
 8430TIP3    H225234   1.932   6.136   3.299
 8431TIP3   OH225235   7.350   1.114   2.984
 8431TIP3    H125236   7.440   1.101   2.956
 8431TIP3    H225237   7.300   1.049   2.934
 8432TIP3   OH225238   1.151   7.158   5.677
 8432TIP3    H125239   1.093   7.178   5.603
 8432TIP3    H225240   1.125   7.220   5.745
 8433TIP3   OH225241   6.977   4.842   6.680
 8433TIP3    H125242   7.003   4.874   6.594
 8433TIP3    H225243   6.883   4.860   6.685
 8434TIP3   OH225244   2.256   4.129   5.996
 8434TIP3    H125245   2.310   4.055   5.967
 8434TIP3    H225246   2.202   4.092   6.066
 8435TIP3   OH225247   5.927   0.605   1.141
 8435TIP3    H125248   5.951   0.687   1.183
 8435TIP3    H225249   5.981   0.539   1.186
 8436TIP3   OH225250   7.414   3.603   1.775
 8436TIP3    H125251   7.422   3.672   1.710
 8436TIP3    H225252   7.429   3.647   1.859
 8437TIP3   OH225253   4.106   0.327   1.553
 8437TIP3    H125254   4.134   0.321   1.644
 8437TIP3    H225255   4.155   0.402   1.518
 8438TIP3   OH225256   5.193   5.600   3.243
 8438TIP3    H125257   5.223   5.543   3.172
 8438TIP3    H225258   5.196   5.545   3.321
 8439TIP3   OH225259   3.246   7.681   6.462
 8439TIP3    H125260   3.266   7.724   6.545
 8439TIP3    H225261   3.155   7.705   6.445
 8440TIP3   OH225262   2.133   6.735   6.565
 8440TIP3    H125263   2.097   6.647   6.570
 8440TIP3    H225264   2.057   6.793   6.574
 8441TIP3   OH225265   7.653   2.704   5.793
 8441TIP3    H125266   7.632   2.630   5.735
 8441TIP3    H225267   7.656   2.665   5.880
 8442TIP3   OH225268   5.577   2.865   2.750
 8442TIP3    H125269   5.635   2.791   2.736
 8442TIP3    H225270   5.490   2.827   2.754
 8443TIP3   OH225271   0.917   6.423   0.709
 8443TIP3    H125272   0.916   6.517   0.728
 8443TIP3    H225273   0.982   6.413   0.640
 8444TIP3   OH225274   4.226   4.386   4.129
 8444TIP3    H125275   4.151   4.439   4.157
 8444TIP3    H225276   4.297   4.449   4.119
 8445TIP3   OH225277   7.499   7.747   6.062
 8445TIP3    H125278   7.456   7.733   5.978
 8445TIP3    H225279   7.489   7.665   6.109
 8446TIP3   OH225280   6.276   4.010   5.936
 8446TIP3    H125281   6.354   3.972   5.895
 8446TIP3    H225282   6.285   3.987   6.029
 8447TIP3   OH225283   3.432   5.088   3.407
 8447TIP3    H125284   3.344   5.123   3.391
 8447TIP3    H225285   3.420   4.993   3.406
 8448TIP3   OH225286   8.011   1.475   1.228
 8448TIP3    H125287   7.929   1.467   1.277
 8448TIP3    H225288   8.064   1.536   1.279
 8449TIP3   OH225289   3.082   3.014   6.261
 8449TIP3    H125290   3.110   2.948   6.324
 8449TIP3    H225291   3.051   3.087   6.316
 8450TIP3   OH225292   3.547   0.513   6.093
 8450TIP3    H125293   3.616   0.579   6.097
 8450TIP3    H225294   3.555   0.475   6.006
 8451TIP3   OH225295   1.563   2.024   3.775
 8451TIP3    H125296   1.574   2.082   3.850
 8451TIP3    H225297   1.526   1.944   3.812
 8452TIP3   OH225298   7.488   4.693   2.513
 8452TIP3    H125299   7.418   4.731   2.566
 8452TIP3    H225300   7.566   4.743   2.535
 8453TIP3   OH225301   2.562   3.620   4.464
 8453TIP3    H125302   2.533   3.673   4.390
 8453TIP3    H225303   2.658   3.623   4.460
 8454TIP3   OH225304   4.682   2.203   0.108
 8454TIP3    H125305   4.764   2.230   0.150
 8454TIP3    H225306   4.689   2.237   0.019
 8455TIP3   OH225307   2.663   5.270   1.904
 8455TIP3    H125308   2.594   5.283   1.969
 8455TIP3    H225309   2.710   5.193   1.935
 8456TIP3   OH225310   1.955   2.793   3.937
 8456TIP3    H125311   1.890   2.853   3.902
 8456TIP3    H225312   2.035   2.845   3.944
 8457TIP3   OH225313   6.695   7.674   1.543
 8457TIP3    H125314   6.609   7.697   1.577
 8457TIP3    H225315   6.686   7.680   1.448
 8458TIP3   OH225316   2.121   6.605   0.650
 8458TIP3    H125317   2.179   6.599   0.575
 8458TIP3    H225318   2.079   6.519   0.655
 8459TIP3   OH225319   5.057   6.279   2.522
 8459TIP3    H125320   4.976   6.278   2.471
 8459TIP3    H225321   5.125   6.297   2.457
 8460TIP3   OH225322   0.151   5.842   1.316
 8460TIP3    H125323   0.240   5.872   1.338
 8460TIP3    H225324   0.166   5.765   1.261
 8461TIP3   OH225325   5.908   4.628   4.287
 8461TIP3    H125326   5.894   4.658   4.197
 8461TIP3    H225327   5.998   4.655   4.307
 8462TIP3   OH225328   4.641   4.165   2.782
 8462TIP3    H125329   4.733   4.142   2.765
 8462TIP3    H225330   4.590   4.102   2.732
 8463TIP3   OH225331   0.722   5.327   5.774
 8463TIP3    H125332   0.757   5.363   5.692
 8463TIP3    H225333   0.792   5.272   5.809
 8464TIP3   OH225334   7.560   1.175   3.809
 8464TIP3    H125335   7.643   1.174   3.857
 8464TIP3    H225336   7.497   1.135   3.869
 8465TIP3   OH225337   2.075   4.096   5.771
 8465TIP3    H125338   2.005   4.075   5.834
 8465TIP3    H225339   2.143   4.136   5.825
 8466TIP3   OH225340   5.238   5.804   2.561
 8466TIP3    H125341   5.216   5.792   2.469
 8466TIP3    H225342   5.203   5.890   2.584
 8467TIP3   OH225343   0.939   7.318   3.524
 8467TIP3    H125344   0.979   7.328   3.438
 8467TIP3    H225345   1.007   7.344   3.586
 8468TIP3   OH225346   2.219   5.973   2.225
 8468TIP3    H125347   2.228   6.049   2.282
 8468TIP3    H225348   2.306   5.963   2.185
 8469TIP3   OH225349   6.531   4.582   0.072
 8469TIP3    H125350   6.590   4.528   0.125
 8469TIP3    H225351   6.455   4.597   0.128
 8470TIP3   OH225352   6.002   4.824   1.347
 8470TIP3    H125353   6.008   4.730   1.363
 8470TIP3    H225354   6.012   4.833   1.252
 8471TIP3   OH225355   3.889   6.403   5.578
 8471TIP3    H125356   3.863   6.370   5.492
 8471TIP3    H225357   3.925   6.327   5.623
 8472TIP3   OH225358   7.669   0.647   6.366
 8472TIP3    H125359   7.602   0.696   6.319
 8472TIP3    H225360   7.725   0.611   6.298
 8473TIP3   OH225361   3.120   6.402   4.983
 8473TIP3    H125362   3.112   6.310   5.010
 8473TIP3    H225363   3.148   6.397   4.892
 8474TIP3   OH225364   3.660   2.833   2.217
 8474TIP3    H125365   3.676   2.920   2.182
 8474TIP3    H225366   3.570   2.835   2.247
 8475TIP3   OH225367   5.918   5.721   0.130
 8475TIP3    H125368   5.824   5.736   0.128
 8475TIP3    H225369   5.947   5.764   0.210
 8476TIP3   OH225370   4.892   3.668   0.526
 8476TIP3    H125371   4.941   3.733   0.476
 8476TIP3    H225372   4.918   3.683   0.616
 8477TIP3   OH225373   0.909   1.596   0.467
 8477TIP3    H125374   0.902   1.509   0.428
 8477TIP3    H225375   0.999   1.601   0.499
 8478TIP3   OH225376   5.687   6.301   2.632
 8478TIP3    H125377   5.742   6.355   2.576
 8478TIP3    H225378   5.749   6.257   2.691
 8479TIP3   OH225379   7.796   6.339   0.445
 8479TIP3    H125380   7.825   6.262   0.493
 8479TIP3    H225381   7.861   6.350   0.376
 8480TIP3   OH225382   2.068   5.667   5.458
 8480TIP3    H125383   2.041   5.595   5.401
 8480TIP3    H225384   2.164   5.661   5.461
 8481TIP3   OH225385   1.608   6.605   2.397
 8481TIP3    H125386   1.689   6.585   2.349
 8481TIP3    H225387   1.597   6.699   2.389
 8482TIP3   OH225388   2.903   6.619   5.860
 8482TIP3    H125389   2.893   6.524   5.865
 8482TIP3    H225390   2.997   6.634   5.868
 8483TIP3   OH225391   1.370   0.608   6.102
 8483TIP3    H125392   1.450   0.647   6.066
 8483TIP3    H225393   1.322   0.575   6.025
 8484TIP3   OH225394   5.694   5.522   3.965
 8484TIP3    H125395   5.713   5.509   3.872
 8484TIP3    H225396   5.704   5.616   3.979
 8485TIP3   OH225397   1.244   4.246   0.735
 8485TIP3    H125398   1.260   4.340   0.746
 8485TIP3    H225399   1.309   4.204   0.791
 8486TIP3   OH225400   3.752   4.910   1.080
 8486TIP3    H125401   3.661   4.890   1.060
 8486TIP3    H225402   3.796   4.825   1.078
 8487TIP3   OH225403   0.524   7.693   4.289
 8487TIP3    H125404   0.555   7.652   4.370
 8487TIP3    H225405   0.575   7.774   4.282
 8488TIP3   OH225406   6.041   5.231   3.188
 8488TIP3    H125407   6.057   5.138   3.170
 8488TIP3    H225408   6.128   5.268   3.202
 8489TIP3   OH225409   6.969   0.667   5.236
 8489TIP3    H125410   7.016   0.585   5.248
 8489TIP3    H225411   6.877   0.645   5.251
 8490TIP3   OH225412   0.402   6.614   3.154
 8490TIP3    H125413   0.384   6.622   3.061
 8490TIP3    H225414   0.441   6.527   3.164
 8491TIP3   OH225415   2.573   4.873   2.202
 8491TIP3    H125416   2.559   4.789   2.157
 8491TIP3    H225417   2.517   4.935   2.156
 8492TIP3   OH225418   5.495   6.295   3.637
 8492TIP3    H125419   5.447   6.320   3.558
 8492TIP3    H225420   5.577   6.259   3.605
 8493TIP3   OH225421   5.270   7.532   1.858
 8493TIP3    H125422   5.349   7.580   1.832
 8493TIP3    H225423   5.206   7.601   1.877
 8494TIP3   OH225424   2.777   0.635   6.762
 8494TIP3    H125425   2.728   0.589   6.693
 8494TIP3    H225426   2.711   0.689   6.805
 8495TIP3   OH225427   8.237   7.679   6.703
 8495TIP3    H125428   8.275   7.718   6.782
 8495TIP3    H225429   8.303   7.616   6.673
 8496TIP3   OH225430   4.832   2.721   5.447
 8496TIP3    H125431   4.782   2.789   5.402
 8496TIP3    H225432   4.922   2.754   5.449
 8497TIP3   OH225433   4.220   7.698   2.635
 8497TIP3    H125434   4.180   7.687   2.549
 8497TIP3    H225435   4.264   7.614   2.652
 8498TIP3   OH225436   2.649   5.479   6.376
 8498TIP3    H125437   2.690   5.442   6.455
 8498TIP3    H225438   2.656   5.573   6.388
 8499TIP3   OH225439   1.310   1.488   1.015
 8499TIP3    H125440   1.247   1.555   0.988
 8499TIP3    H225441   1.376   1.489   0.946
 8500TIP3   OH225442   7.921   3.209   0.307
 8500TIP3    H125443   7.877   3.292   0.285
 8500TIP3    H225444   7.903   3.152   0.232
 8501TIP3   OH225445   6.471   0.262   4.529
 8501TIP3    H125446   6.519   0.302   4.457
 8501TIP3    H225447   6.403   0.325   4.551
 8502TIP3   OH225448   3.872   4.409   0.914
 8502TIP3    H125449   3.951   4.377   0.958
 8502TIP3    H225450   3.878   4.373   0.825
 8503TIP3   OH225451   0.071   1.771   1.515
 8503TIP3    H125452   0.048   1.733   1.600
 8503TIP3    H225453   0.154   1.729   1.492
 8504TIP3   OH225454   5.729   7.815   1.768
 8504TIP3    H125455   5.767   7.751   1.828
 8504TIP3    H225456   5.753   7.785   1.681
 8505TIP3   OH225457   0.440   5.199   0.634
 8505TIP3    H125458   0.500   5.265   0.602
 8505TIP3    H225459   0.424   5.143   0.558
 8506TIP3   OH225460   7.557   3.938   6.065
 8506TIP3    H125461   7.491   3.872   6.087
 8506TIP3    H225462   7.521   4.020   6.100
 8507TIP3   OH225463   4.052   5.498   5.427
 8507TIP3    H125464   4.055   5.404   5.443
 8507TIP3    H225465   4.110   5.536   5.493
 8508TIP3   OH225466   3.317   0.246   2.232
 8508TIP3    H125467   3.260   0.321   2.252
 8508TIP3    H225468   3.406   0.280   2.243
 8509TIP3   OH225469   5.459   3.614   5.861
 8509TIP3    H125470   5.433   3.681   5.798
 8509TIP3    H225471   5.554   3.618   5.863
 8510TIP3   OH225472   7.307   3.439   1.575
 8510TIP3    H125473   7.287   3.355   1.616
 8510TIP3    H225474   7.369   3.481   1.634
 8511TIP3   OH225475   7.551   0.477   1.313
 8511TIP3    H125476   7.555   0.549   1.251
 8511TIP3    H225477   7.508   0.406   1.265
 8512TIP3   OH225478   6.279   2.652   3.301
 8512TIP3    H125479   6.309   2.709   3.372
 8512TIP3    H225480   6.360   2.622   3.260
 8513TIP3   OH225481   6.471   7.702   3.178
 8513TIP3    H125482   6.510   7.679   3.094
 8513TIP3    H225483   6.445   7.794   3.168
 8514TIP3   OH225484   2.431   2.043   2.141
 8514TIP3    H125485   2.394   1.957   2.160
 8514TIP3    H225486   2.516   2.043   2.186
 8515TIP3   OH225487   1.827   7.491   2.446
 8515TIP3    H125488   1.852   7.425   2.511
 8515TIP3    H225489   1.737   7.469   2.423
 8516TIP3   OH225490   6.308   5.454   3.932
 8516TIP3    H125491   6.329   5.449   4.025
 8516TIP3    H225492   6.214   5.468   3.929
 8517TIP3   OH225493   1.466   3.592   4.260
 8517TIP3    H125494   1.482   3.588   4.354
 8517TIP3    H225495   1.549   3.567   4.220
 8518TIP3   OH225496   6.595   5.078   5.761
 8518TIP3    H125497   6.653   5.002   5.771
 8518TIP3    H225498   6.507   5.041   5.754
 8519TIP3   OH225499   3.467   3.956   3.011
 8519TIP3    H125500   3.427   3.958   2.924
 8519TIP3    H225501   3.535   4.023   3.008
 8520TIP3   OH225502   0.472   3.244   3.683
 8520TIP3    H125503   0.530   3.293   3.625
 8520TIP3    H225504   0.484   3.284   3.769
 8521TIP3   OH225505   1.100   1.699   6.400
 8521TIP3    H125506   1.166   1.634   6.425
 8521TIP3    H225507   1.133   1.782   6.436
 8522TIP3   OH225508   5.798   0.798   3.029
 8522TIP3    H125509   5.789   0.787   3.123
 8522TIP3    H225510   5.728   0.858   3.004
 8523TIP3   OH225511   2.730   7.485   4.942
 8523TIP3    H125512   2.667   7.527   5.001
 8523TIP3    H225513   2.762   7.409   4.991
 8524TIP3   OH225514   1.896   2.966   5.340
 8524TIP3    H125515   1.985   2.945   5.370
 8524TIP3    H225516   1.841   2.951   5.416
 8525TIP3   OH225517   2.413   4.100   3.543
 8525TIP3    H125518   2.341   4.048   3.578
 8525TIP3    H225519   2.454   4.139   3.620
 8526TIP3   OH225520   6.275   5.878   5.388
 8526TIP3    H125521   6.346   5.873   5.451
 8526TIP3    H225522   6.206   5.927   5.432
 8527TIP3   OH225523   5.457   2.697   1.717
 8527TIP3    H125524   5.421   2.764   1.775
 8527TIP3    H225525   5.380   2.658   1.675
 8528TIP3   OH225526   1.510   7.346   5.222
 8528TIP3    H125527   1.524   7.434   5.259
 8528TIP3    H225528   1.457   7.301   5.288
 8529TIP3   OH225529   4.179   2.674   2.808
 8529TIP3    H125530   4.115   2.685   2.878
 8529TIP3    H225531   4.263   2.661   2.853
 8530TIP3   OH225532   3.156   3.116   1.128
 8530TIP3    H125533   3.159   3.210   1.110
 8530TIP3    H225534   3.083   3.084   1.077
 8531TIP3   OH225535   6.926   1.814   1.760
 8531TIP3    H125536   6.854   1.804   1.822
 8531TIP3    H225537   7.003   1.782   1.806
 8532TIP3   OH225538   0.207   4.754   0.246
 8532TIP3    H125539   0.200   4.690   0.175
 8532TIP3    H225540   0.300   4.755   0.269
 8533TIP3   OH225541   3.718   5.834   5.914
 8533TIP3    H125542   3.686   5.819   6.003
 8533TIP3    H225543   3.804   5.790   5.913
 8534TIP3   OH225544   8.340   7.388   0.958
 8534TIP3    H125545   8.369   7.326   0.891
 8534TIP3    H225546   8.245   7.381   0.957
 8535TIP3   OH225547   7.065   5.394   2.109
 8535TIP3    H125548   7.091   5.364   2.196
 8535TIP3    H225549   7.148   5.420   2.067
 8536TIP3   OH225550   1.342   5.937   3.505
 8536TIP3    H125551   1.416   5.976   3.459
 8536TIP3    H225552   1.309   6.007   3.561
 8537TIP3   OH225553   7.757   0.473   6.585
 8537TIP3    H125554   7.704   0.525   6.525
 8537TIP3    H225555   7.797   0.407   6.530
 8538TIP3   OH225556   2.473   2.831   1.299
 8538TIP3    H125557   2.500   2.923   1.299
 8538TIP3    H225558   2.513   2.794   1.378
 8539TIP3   OH225559   6.558   7.346   2.642
 8539TIP3    H125560   6.479   7.397   2.624
 8539TIP3    H225561   6.603   7.396   2.710
 8540TIP3   OH225562   5.412   5.379   3.581
 8540TIP3    H125563   5.406   5.295   3.535
 8540TIP3    H225564   5.433   5.356   3.671
 8541TIP3   OH225565   1.889   6.467   1.007
 8541TIP3    H125566   1.878   6.490   0.915
 8541TIP3    H225567   1.983   6.479   1.023
 8542TIP3   OH225568   5.063   3.052   4.105
 8542TIP3    H125569   5.101   3.079   4.021
 8542TIP3    H225570   5.119   3.093   4.170
 8543TIP3   OH225571   4.098   5.673   3.878
 8543TIP3    H125572   4.043   5.679   3.800
 8543TIP3    H225573   4.037   5.648   3.948
 8544TIP3   OH225574   6.219   4.236   3.495
 8544TIP3    H125575   6.242   4.145   3.479
 8544TIP3    H225576   6.188   4.268   3.410
 8545TIP3   OH225577   2.682   2.679   2.276
 8545TIP3    H125578   2.703   2.647   2.364
 8545TIP3    H225579   2.731   2.761   2.268
 8546TIP3   OH225580   4.373   1.219   2.156
 8546TIP3    H125581   4.295   1.189   2.201
 8546TIP3    H225582   4.440   1.153   2.175
 8547TIP3   OH225583   1.684   5.573   3.900
 8547TIP3    H125584   1.709   5.648   3.954
 8547TIP3    H225585   1.608   5.536   3.944
 8548TIP3   OH225586   2.972   6.174   4.246
 8548TIP3    H125587   2.953   6.103   4.307
 8548TIP3    H225588   2.891   6.224   4.242
 8549TIP3   OH225589   5.019   3.067   3.080
 8549TIP3    H125590   5.017   2.974   3.102
 8549TIP3    H225591   5.006   3.070   2.985
 8550TIP3   OH225592   0.961   5.370   2.858
 8550TIP3    H125593   0.909   5.317   2.919
 8550TIP3    H225594   0.911   5.368   2.776
 8551TIP3   OH225595   7.868   0.708   6.730
 8551TIP3    H125596   7.950   0.704   6.778
 8551TIP3    H225597   7.857   0.619   6.695
 8552TIP3   OH225598   5.787   0.175   3.535
 8552TIP3    H125599   5.693   0.165   3.551
 8552TIP3    H225600   5.818   0.086   3.518
 8553TIP3   OH225601   2.488   3.805   2.934
 8553TIP3    H125602   2.570   3.766   2.904
 8553TIP3    H225603   2.466   3.869   2.866
 8554TIP3   OH225604   0.949   1.783   5.890
 8554TIP3    H125605   0.939   1.872   5.856
 8554TIP3    H225606   0.880   1.733   5.848
 8555TIP3   OH225607   0.919   6.515   4.006
 8555TIP3    H125608   0.882   6.513   4.094
 8555TIP3    H225609   0.910   6.425   3.974
 8556TIP3   OH225610   2.119   2.696   6.360
 8556TIP3    H125611   2.117   2.647   6.442
 8556TIP3    H225612   2.181   2.648   6.305
 8557TIP3   OH225613   4.335   4.004   3.769
 8557TIP3    H125614   4.341   3.928   3.827
 8557TIP3    H225615   4.363   3.971   3.683
 8558TIP3   OH225616   5.626   2.261   0.218
 8558TIP3    H125617   5.627   2.267   0.313
 8558TIP3    H225618   5.534   2.263   0.194
 8559TIP3   OH225619   4.290   3.188   3.605
 8559TIP3    H125620   4.253   3.232   3.681
 8559TIP3    H225621   4.333   3.258   3.555
 8560TIP3   OH225622   8.227   4.747   2.746
 8560TIP3    H125623   8.259   4.722   2.833
 8560TIP3    H225624   8.146   4.795   2.763
 8561TIP3   OH225625   4.546   1.252   6.054
 8561TIP3    H125626   4.466   1.300   6.037
 8561TIP3    H225627   4.615   1.306   6.016
 8562TIP3   OH225628   7.251   0.285   0.492
 8562TIP3    H125629   7.230   0.363   0.440
 8562TIP3    H225630   7.170   0.267   0.541
 8563TIP3   OH225631   5.714   3.697   3.847
 8563TIP3    H125632   5.669   3.638   3.907
 8563TIP3    H225633   5.685   3.785   3.873
 8564TIP3   OH225634   0.679   5.457   3.705
 8564TIP3    H125635   0.661   5.431   3.615
 8564TIP3    H225636   0.711   5.377   3.748
 8565TIP3   OH225637   7.907   6.980   6.552
 8565TIP3    H125638   7.862   7.059   6.522
 8565TIP3    H225639   7.942   7.005   6.638
 8566TIP3   OH225640   4.890   6.291   1.481
 8566TIP3    H125641   4.954   6.285   1.410
 8566TIP3    H225642   4.855   6.202   1.488
 8567TIP3   OH225643   7.582   6.475   5.661
 8567TIP3    H125644   7.538   6.449   5.742
 8567TIP3    H225645   7.537   6.556   5.634
 8568TIP3   OH225646   0.295   0.470   2.625
 8568TIP3    H125647   0.360   0.483   2.555
 8568TIP3    H225648   0.347   0.458   2.704
 8569TIP3   OH225649   6.857   1.863   6.152
 8569TIP3    H125650   6.799   1.881   6.226
 8569TIP3    H225651   6.812   1.900   6.076
 8570TIP3   OH225652   3.137   3.580   0.499
 8570TIP3    H125653   3.089   3.505   0.463
 8570TIP3    H225654   3.070   3.647   0.511
 8571TIP3   OH225655   7.277   3.005   6.311
 8571TIP3    H125656   7.345   3.012   6.377
 8571TIP3    H225657   7.324   2.989   6.229
 8572TIP3   OH225658   2.812   3.797   6.769
 8572TIP3    H125659   2.718   3.782   6.778
 8572TIP3    H225660   2.850   3.710   6.763
 8573TIP3   OH225661   6.269   4.188   6.399
 8573TIP3    H125662   6.335   4.190   6.468
 8573TIP3    H225663   6.301   4.250   6.333
 8574TIP3   OH225664   1.852   3.606   4.419
 8574TIP3    H125665   1.931   3.631   4.369
 8574TIP3    H225666   1.788   3.674   4.397
 8575TIP3   OH225667   6.317   2.813   2.367
 8575TIP3    H125668   6.316   2.868   2.445
 8575TIP3    H225669   6.226   2.789   2.353
 8576TIP3   OH225670   8.036   0.574   6.341
 8576TIP3    H125671   8.021   0.645   6.278
 8576TIP3    H225672   8.120   0.537   6.314
 8577TIP3   OH225673   1.084   6.309   4.583
 8577TIP3    H125674   1.157   6.360   4.618
 8577TIP3    H225675   1.009   6.369   4.584
 8578TIP3   OH225676   8.064   7.632   2.977
 8578TIP3    H125677   8.094   7.543   2.998
 8578TIP3    H225678   8.131   7.689   3.014
 8579TIP3   OH225679   3.809   6.460   0.900
 8579TIP3    H125680   3.792   6.370   0.874
 8579TIP3    H225681   3.732   6.509   0.869
 8580TIP3   OH225682   8.221   4.007   6.704
 8580TIP3    H125683   8.237   3.946   6.631
 8580TIP3    H225684   8.175   4.081   6.664
 8581TIP3   OH225685   4.730   5.932   1.784
 8581TIP3    H125686   4.723   5.840   1.756
 8581TIP3    H225687   4.763   5.926   1.874
 8582TIP3   OH225688   2.890   1.029   1.080
 8582TIP3    H125689   2.883   0.966   1.008
 8582TIP3    H225690   2.851   0.984   1.155
 8583TIP3   OH225691   5.802   6.384   2.932
 8583TIP3    H125692   5.724   6.350   2.976
 8583TIP3    H225693   5.850   6.430   3.001
 8584TIP3   OH225694   3.154   2.013   4.915
 8584TIP3    H125695   3.066   2.044   4.935
 8584TIP3    H225696   3.184   1.971   4.995
 8585TIP3   OH225697   7.965   4.012   2.100
 8585TIP3    H125698   8.004   3.938   2.147
 8585TIP3    H225699   7.871   3.997   2.108
 8586TIP3   OH225700   6.981   5.542   6.414
 8586TIP3    H125701   6.916   5.478   6.442
 8586TIP3    H225702   7.031   5.560   6.494
 8587TIP3   OH225703   3.094   2.526   0.206
 8587TIP3    H125704   3.066   2.615   0.181
 8587TIP3    H225705   3.094   2.527   0.301
 8588TIP3   OH225706   0.319   4.283   4.380
 8588TIP3    H125707   0.372   4.362   4.392
 8588TIP3    H225708   0.366   4.216   4.431
 8589TIP3   OH225709   7.350   3.382   0.362
 8589TIP3    H125710   7.382   3.469   0.386
 8589TIP3    H225711   7.338   3.337   0.446
 8590TIP3   OH225712   5.716   1.487   2.943
 8590TIP3    H125713   5.740   1.512   2.854
 8590TIP3    H225714   5.712   1.569   2.992
 8591TIP3   OH225715   7.682   0.551   3.146
 8591TIP3    H125716   7.654   0.628   3.097
 8591TIP3    H225717   7.732   0.500   3.082
 8592TIP3   OH225718   7.921   4.892   2.480
 8592TIP3    H125719   7.825   4.899   2.477
 8592TIP3    H225720   7.938   4.799   2.465
 8593TIP3   OH225721   4.991   6.133   5.185
 8593TIP3    H125722   4.978   6.184   5.105
 8593TIP3    H225723   5.063   6.176   5.231
 8594TIP3   OH225724   2.011   5.392   4.688
 8594TIP3    H125725   1.954   5.422   4.759
 8594TIP3    H225726   2.010   5.297   4.695
 8595TIP3   OH225727   5.438   4.646   5.850
 8595TIP3    H125728   5.503   4.618   5.915
 8595TIP3    H225729   5.355   4.612   5.884
 8596TIP3   OH225730   2.077   3.397   5.791
 8596TIP3    H125731   2.078   3.416   5.698
 8596TIP3    H225732   2.138   3.460   5.829
 8597TIP3   OH225733   1.580   7.185   1.055
 8597TIP3    H125734   1.601   7.128   1.129
 8597TIP3    H225735   1.637   7.154   0.985
 8598TIP3   OH225736   2.332   1.370   3.100
 8598TIP3    H125737   2.278   1.431   3.151
 8598TIP3    H225738   2.390   1.427   3.049
 8599TIP3   OH225739   3.509   4.876   2.424
 8599TIP3    H125740   3.450   4.801   2.422
 8599TIP3    H225741   3.503   4.914   2.337
 8600TIP3   OH225742   1.643   2.355   1.680
 8600TIP3    H125743   1.723   2.332   1.634
 8600TIP3    H225744   1.630   2.448   1.661
 8601TIP3   OH225745   2.379   4.388   4.691
 8601TIP3    H125746   2.403   4.404   4.600
 8601TIP3    H225747   2.382   4.475   4.732
 8602TIP3   OH225748   5.057   0.342   3.867
 8602TIP3    H125749   4.993   0.325   3.936
 8602TIP3    H225750   5.045   0.435   3.847
 8603TIP3   OH225751   7.554   6.108   1.224
 8603TIP3    H125752   7.469   6.118   1.267
 8603TIP3    H225753   7.612   6.166   1.273
 8604TIP3   OH225754   7.108   0.562   1.873
 8604TIP3    H125755   7.097   0.484   1.928
 8604TIP3    H225756   7.184   0.543   1.819
 8605TIP3   OH225757   5.721   4.654   2.281
 8605TIP3    H125758   5.630   4.649   2.311
 8605TIP3    H225759   5.748   4.563   2.271
 8606TIP3   OH225760   3.670   3.803   2.796
 8606TIP3    H125761   3.582   3.777   2.822
 8606TIP3    H225762   3.657   3.869   2.728
 8607TIP3   OH225763   4.223   2.404   2.833
 8607TIP3    H125764   4.145   2.360   2.800
 8607TIP3    H225765   4.190   2.487   2.869
 8608TIP3   OH225766   0.387   7.091   2.726
 8608TIP3    H125767   0.425   7.132   2.648
 8608TIP3    H225768   0.336   7.018   2.692
 8609TIP3   OH225769   2.461   0.911   3.140
 8609TIP3    H125770   2.400   0.984   3.126
 8609TIP3    H225771   2.454   0.858   3.062
 8610TIP3   OH225772   1.635   5.694   6.030
 8610TIP3    H125773   1.706   5.674   5.969
 8610TIP3    H225774   1.668   5.665   6.115
 8611TIP3   OH225775   4.480   2.641   3.359
 8611TIP3    H125776   4.409   2.678   3.411
 8611TIP3    H225777   4.509   2.564   3.408
 8612TIP3   OH225778   2.188   4.247   5.321
 8612TIP3    H125779   2.256   4.184   5.298
 8612TIP3    H225780   2.190   4.250   5.417
 8613TIP3   OH225781   7.712   1.597   1.795
 8613TIP3    H125782   7.621   1.597   1.768
 8613TIP3    H225783   7.753   1.665   1.741
 8614TIP3   OH225784   3.607   5.714   3.259
 8614TIP3    H125785   3.585   5.625   3.285
 8614TIP3    H225786   3.689   5.733   3.306
 8615TIP3   OH225787   1.976   3.511   6.733
 8615TIP3    H125788   1.959   3.418   6.717
 8615TIP3    H225789   2.032   3.538   6.660
 8616TIP3   OH225790   0.929   0.032   4.616
 8616TIP3    H125791   0.899   0.122   4.607
 8616TIP3    H225792   0.855  -0.021   4.588
 8617TIP3   OH225793   0.111   6.798   6.784
 8617TIP3    H125794   0.141   6.874   6.834
 8617TIP3    H225795   0.169   6.727   6.810
 8618TIP3   OH225796   4.795   1.184   5.092
 8618TIP3    H125797   4.854   1.185   5.168
 8618TIP3    H225798   4.735   1.111   5.109
 8619TIP3   OH225799   0.136   6.149   0.620
 8619TIP3    H125800   0.192   6.226   0.605
 8619TIP3    H225801   0.052   6.172   0.580
 8620TIP3   OH225802   5.417   6.850   3.074
 8620TIP3    H125803   5.485   6.909   3.107
 8620TIP3    H225804   5.335   6.884   3.110
 8621TIP3   OH225805   1.430   5.691   6.423
 8621TIP3    H125806   1.434   5.613   6.367
 8621TIP3    H225807   1.510   5.739   6.403
 8622TIP3   OH225808   0.265   2.633   4.023
 8622TIP3    H125809   0.254   2.567   4.092
 8622TIP3    H225810   0.176   2.658   3.999
 8623TIP3   OH225811   0.489   1.013   5.380
 8623TIP3    H125812   0.568   0.960   5.372
 8623TIP3    H225813   0.462   1.002   5.471
 8624TIP3   OH225814   0.662   0.161   0.129
 8624TIP3    H125815   0.687   0.112   0.207
 8624TIP3    H225816   0.612   0.235   0.163
 8625TIP3   OH225817   6.422   2.419   3.475
 8625TIP3    H125818   6.484   2.388   3.541
 8625TIP3    H225819   6.376   2.492   3.518
 8626TIP3   OH225820   6.671   4.587   1.363
 8626TIP3    H125821   6.680   4.522   1.293
 8626TIP3    H225822   6.724   4.551   1.435
 8627TIP3   OH225823   2.601   5.959   4.906
 8627TIP3    H125824   2.688   5.986   4.933
 8627TIP3    H225825   2.597   5.865   4.926
 8628TIP3   OH225826   0.025   4.899   5.285
 8628TIP3    H125827   0.068   4.981   5.312
 8628TIP3    H225828   0.096   4.846   5.248
 8629TIP3   OH225829   7.079   6.864   0.060
 8629TIP3    H125830   7.077   6.922   0.136
 8629TIP3    H225831   7.169   6.832   0.057
 8630TIP3   OH225832   8.041   1.100   3.817
 8630TIP3    H125833   8.131   1.121   3.843
 8630TIP3    H225834   8.038   1.119   3.723
 8631TIP3   OH225835   8.014   5.781   0.929
 8631TIP3    H125836   7.956   5.754   1.000
 8631TIP3    H225837   8.037   5.872   0.950
 8632TIP3   OH225838   3.688   7.045   4.601
 8632TIP3    H125839   3.595   7.039   4.579
 8632TIP3    H225840   3.733   7.024   4.519
 8633TIP3   OH225841   3.308   5.818   4.683
 8633TIP3    H125842   3.263   5.896   4.716
 8633TIP3    H225843   3.268   5.801   4.598
 8634TIP3   OH225844   2.170   2.007   3.079
 8634TIP3    H125845   2.102   1.947   3.048
 8634TIP3    H225846   2.137   2.038   3.164
 8635TIP3   OH225847   0.086   0.097   0.899
 8635TIP3    H125848   0.025   0.030   0.870
 8635TIP3    H225849   0.156   0.095   0.835
 8636TIP3   OH225850   1.003   1.928   4.366
 8636TIP3    H125851   0.990   1.849   4.313
 8636TIP3    H225852   1.088   1.963   4.338
 8637TIP3   OH225853   7.428   6.579   1.396
 8637TIP3    H125854   7.505   6.612   1.349
 8637TIP3    H225855   7.402   6.502   1.347
 8638TIP3   OH225856   1.606   1.085   5.397
 8638TIP3    H125857   1.568   1.104   5.311
 8638TIP3    H225858   1.534   1.047   5.447
 8639TIP3   OH225859   3.791   5.373   0.992
 8639TIP3    H125860   3.759   5.324   1.068
 8639TIP3    H225861   3.821   5.305   0.931
 8640TIP3   OH225862   5.466   7.247   3.870
 8640TIP3    H125863   5.379   7.260   3.909
 8640TIP3    H225864   5.477   7.322   3.811
 8641TIP3   OH225865   6.558   1.308   0.656
 8641TIP3    H125866   6.558   1.214   0.669
 8641TIP3    H225867   6.637   1.338   0.702
 8642TIP3   OH225868   4.969   7.447   0.994
 8642TIP3    H125869   5.040   7.479   0.939
 8642TIP3    H225870   5.007   7.439   1.082
 8643TIP3   OH225871   4.941   4.991   1.595
 8643TIP3    H125872   4.936   5.005   1.690
 8643TIP3    H225873   4.859   4.947   1.573
 8644TIP3   OH225874   1.824   3.170   6.675
 8644TIP3    H125875   1.797   3.083   6.704
 8644TIP3    H225876   1.785   3.179   6.588
 8645TIP3   OH225877   5.226   6.396   1.892
 8645TIP3    H125878   5.153   6.381   1.952
 8645TIP3    H225879   5.184   6.409   1.807
 8646TIP3   OH225880   5.140   1.008   6.665
 8646TIP3    H125881   5.066   1.003   6.604
 8646TIP3    H225882   5.161   0.917   6.686
 8647TIP3   OH225883   3.275   5.365   2.435
 8647TIP3    H125884   3.253   5.274   2.418
 8647TIP3    H225885   3.222   5.389   2.510
 8648TIP3   OH225886   7.972   6.256   0.922
 8648TIP3    H125887   8.004   6.282   0.836
 8648TIP3    H225888   7.982   6.334   0.976
 8649TIP3   OH225889   6.506   0.577   4.085
 8649TIP3    H125890   6.431   0.522   4.064
 8649TIP3    H225891   6.500   0.591   4.179
 8650TIP3   OH225892   2.282   3.110   1.716
 8650TIP3    H125893   2.196   3.068   1.724
 8650TIP3    H225894   2.337   3.064   1.779
 8651TIP3   OH225895   2.105   2.325   5.379
 8651TIP3    H125896   2.122   2.271   5.302
 8651TIP3    H225897   2.183   2.379   5.388
 8652TIP3   OH225898   8.136   3.581   4.664
 8652TIP3    H125899   8.225   3.599   4.635
 8652TIP3    H225900   8.146   3.537   4.748
 8653TIP3   OH225901   0.522   0.151   3.729
 8653TIP3    H125902   0.452   0.171   3.791
 8653TIP3    H225903   0.561   0.070   3.761
 8654TIP3   OH225904   1.960   0.344   0.071
 8654TIP3    H125905   1.998   0.432   0.069
 8654TIP3    H225906   2.033   0.286   0.050
 8655TIP3   OH225907   4.973   3.789   5.242
 8655TIP3    H125908   5.046   3.848   5.258
 8655TIP3    H225909   4.910   3.841   5.192
 8656TIP3   OH225910   0.042   6.116   2.225
 8656TIP3    H125911   0.105   6.187   2.208
 8656TIP3    H225912  -0.025   6.127   2.158
 8657TIP3   OH225913   5.704   0.699   0.985
 8657TIP3    H125914   5.785   0.666   1.023
 8657TIP3    H225915   5.688   0.641   0.911
 8658TIP3   OH225916   5.322   4.875   5.102
 8658TIP3    H125917   5.274   4.955   5.079
 8658TIP3    H225918   5.307   4.864   5.196
 8659TIP3   OH225919   5.511   3.818   0.620
 8659TIP3    H125920   5.604   3.811   0.599
 8659TIP3    H225921   5.471   3.745   0.574
 8660TIP3   OH225922   4.091   1.858   3.111
 8660TIP3    H125923   4.088   1.954   3.108
 8660TIP3    H225924   4.024   1.831   3.048
 8661TIP3   OH225925   2.630   7.781   6.479
 8661TIP3    H125926   2.663   7.812   6.394
 8661TIP3    H225927   2.665   7.692   6.486
 8662TIP3   OH225928   5.012   6.133   3.592
 8662TIP3    H125929   4.952   6.193   3.549
 8662TIP3    H225930   4.999   6.049   3.548
 8663TIP3   OH225931   4.741   3.019   0.500
 8663TIP3    H125932   4.727   2.952   0.566
 8663TIP3    H225933   4.770   2.971   0.422
 8664TIP3   OH225934   6.462   3.771   1.014
 8664TIP3    H125935   6.404   3.698   1.035
 8664TIP3    H225936   6.458   3.827   1.092
 8665TIP3   OH225937   3.102   1.381   6.253
 8665TIP3    H125938   3.189   1.340   6.253
 8665TIP3    H225939   3.076   1.379   6.345
 8666TIP3   OH225940   2.100   2.839   1.967
 8666TIP3    H125941   2.084   2.824   1.874
 8666TIP3    H225942   2.177   2.896   1.969
 8667TIP3   OH225943   7.276   2.706   2.178
 8667TIP3    H125944   7.268   2.625   2.128
 8667TIP3    H225945   7.317   2.679   2.261
 8668TIP3   OH225946   8.205   2.423   3.460
 8668TIP3    H125947   8.126   2.395   3.506
 8668TIP3    H225948   8.189   2.400   3.369
 8669TIP3   OH225949   1.629   1.580   0.616
 8669TIP3    H125950   1.705   1.576   0.675
 8669TIP3    H225951   1.662   1.625   0.538
 8670TIP3   OH225952   4.694   3.720   1.774
 8670TIP3    H125953   4.663   3.793   1.828
 8670TIP3    H225954   4.760   3.676   1.827
 8671TIP3   OH225955   3.443   4.356   2.834
 8671TIP3    H125956   3.490   4.310   2.765
 8671TIP3    H225957   3.368   4.299   2.852
 8672TIP3   OH225958   1.120   0.413   1.417
 8672TIP3    H125959   1.120   0.400   1.511
 8672TIP3    H225960   1.124   0.324   1.381
 8673TIP3   OH225961   0.722   4.184   0.071
 8673TIP3    H125962   0.751   4.206  -0.018
 8673TIP3    H225963   0.657   4.251   0.092
 8674TIP3   OH225964   7.150   1.140   0.294
 8674TIP3    H125965   7.171   1.069   0.234
 8674TIP3    H225966   7.057   1.130   0.312
 8675TIP3   OH225967   4.336   6.242   0.489
 8675TIP3    H125968   4.257   6.236   0.436
 8675TIP3    H225969   4.384   6.316   0.452
 8676TIP3   OH225970   2.174   1.766   1.054
 8676TIP3    H125971   2.101   1.828   1.063
 8676TIP3    H225972   2.252   1.819   1.068
 8677TIP3   OH225973   5.293   1.613   1.125
 8677TIP3    H125974   5.230   1.577   1.062
 8677TIP3    H225975   5.325   1.536   1.172
 8678TIP3   OH225976   5.384   1.880   1.081
 8678TIP3    H125977   5.449   1.878   1.010
 8678TIP3    H225978   5.380   1.789   1.112
 8679TIP3   OH225979   6.592   5.108   4.435
 8679TIP3    H125980   6.580   5.182   4.493
 8679TIP3    H225981   6.588   5.031   4.492
 8680TIP3   OH225982   3.160   2.881   5.187
 8680TIP3    H125983   3.204   2.809   5.141
 8680TIP3    H225984   3.067   2.866   5.172
 8681TIP3   OH225985   1.887   5.167   4.358
 8681TIP3    H125986   1.797   5.179   4.326
 8681TIP3    H225987   1.877   5.146   4.451
 8682TIP3   OH225988   2.719   3.421   4.270
 8682TIP3    H125989   2.752   3.470   4.194
 8682TIP3    H225990   2.766   3.459   4.344
 8683TIP3   OH225991   8.114   2.277   5.609
 8683TIP3    H125992   8.194   2.321   5.579
 8683TIP3    H225993   8.124   2.272   5.704
 8684TIP3   OH225994   3.391   6.041   1.080
 8684TIP3    H125995   3.321   6.103   1.099
 8684TIP3    H225996   3.411   6.002   1.165
 8685TIP3   OH225997   4.019   0.097   5.073
 8685TIP3    H125998   3.934   0.080   5.114
 8685TIP3    H225999   4.034   0.021   5.017
 8686TIP3   OH226000   2.451   0.749   2.665
 8686TIP3    H126001   2.386   0.813   2.695
 8686TIP3    H226002   2.516   0.800   2.618
 8687TIP3   OH226003   5.954   5.277   2.911
 8687TIP3    H126004   5.924   5.203   2.858
 8687TIP3    H226005   6.005   5.236   2.981
 8688TIP3   OH226006   0.264   3.240   5.435
 8688TIP3    H126007   0.219   3.284   5.508
 8688TIP3    H226008   0.248   3.296   5.359
 8689TIP3   OH226009   7.716   2.475   2.094
 8689TIP3    H126010   7.679   2.474   2.182
 8689TIP3    H226011   7.810   2.464   2.108
 8690TIP3   OH226012   5.136   6.202   5.870
 8690TIP3    H126013   5.153   6.177   5.779
 8690TIP3    H226014   5.152   6.297   5.872
 8691TIP3   OH226015   3.946   5.411   1.489
 8691TIP3    H126016   3.965   5.440   1.579
 8691TIP3    H226017   4.012   5.456   1.435
 8692TIP3   OH226018   6.324   0.734   5.391
 8692TIP3    H126019   6.316   0.779   5.306
 8692TIP3    H226020   6.241   0.687   5.401
 8693TIP3   OH226021   1.726   1.216   3.085
 8693TIP3    H126022   1.641   1.252   3.058
 8693TIP3    H226023   1.791   1.272   3.041
 8694TIP3   OH226024   8.148   3.069   6.311
 8694TIP3    H126025   8.064   3.048   6.351
 8694TIP3    H226026   8.192   2.985   6.302
 8695TIP3   OH226027   3.304   6.829   0.588
 8695TIP3    H126028   3.351   6.895   0.536
 8695TIP3    H226029   3.365   6.756   0.594
 8696TIP3   OH226030   0.698   0.768   5.663
 8696TIP3    H126031   0.694   0.848   5.716
 8696TIP3    H226032   0.789   0.738   5.670
 8697TIP3   OH226033   4.957   3.061   2.807
 8697TIP3    H126034   4.866   3.061   2.778
 8697TIP3    H226035   4.990   2.974   2.781
 8698TIP3   OH226036   1.078   6.406   1.261
 8698TIP3    H126037   1.058   6.373   1.173
 8698TIP3    H226038   1.061   6.500   1.255
 8699TIP3   OH226039   4.957   7.128   1.339
 8699TIP3    H126040   4.874   7.099   1.300
 8699TIP3    H226041   5.019   7.060   1.314
 8700TIP3   OH226042   4.130   4.202   3.331
 8700TIP3    H126043   4.174   4.206   3.416
 8700TIP3    H226044   4.166   4.124   3.289
 8701TIP3   OH226045   3.174   7.267   1.815
 8701TIP3    H126046   3.241   7.335   1.804
 8701TIP3    H226047   3.195   7.202   1.747
 8702TIP3   OH226048   7.836   3.921   3.675
 8702TIP3    H126049   7.897   3.940   3.603
 8702TIP3    H226050   7.805   4.007   3.703
 8703TIP3   OH226051   6.329   3.104   1.373
 8703TIP3    H126052   6.280   3.069   1.447
 8703TIP3    H226053   6.289   3.189   1.356
 8704TIP3   OH226054   3.616   7.238   4.297
 8704TIP3    H126055   3.540   7.268   4.346
 8704TIP3    H226056   3.630   7.149   4.326
 8705TIP3   OH226057   6.326   4.768   0.371
 8705TIP3    H126058   6.247   4.760   0.424
 8705TIP3    H226059   6.397   4.780   0.435
 8706TIP3   OH226060   0.217   1.033   6.070
 8706TIP3    H126061   0.160   1.106   6.045
 8706TIP3    H226062   0.200   0.965   6.005
 8707TIP3   OH226063   2.659   2.294   4.014
 8707TIP3    H126064   2.620   2.376   4.043
 8707TIP3    H226065   2.753   2.313   4.007
 8708TIP3   OH226066   2.045   1.150   4.584
 8708TIP3    H126067   1.972   1.148   4.522
 8708TIP3    H226068   2.034   1.231   4.633
 8709TIP3   OH226069   4.688   7.762   0.419
 8709TIP3    H126070   4.694   7.693   0.484
 8709TIP3    H226071   4.689   7.716   0.335
 8710TIP3   OH226072   6.035   2.330   4.125
 8710TIP3    H126073   5.997   2.307   4.210
 8710TIP3    H226074   6.130   2.334   4.141
 8711TIP3   OH226075   0.801   7.645   3.905
 8711TIP3    H126076   0.738   7.628   3.835
 8711TIP3    H226077   0.844   7.727   3.878
 8712TIP3   OH226078   1.545   4.593   5.749
 8712TIP3    H126079   1.602   4.527   5.789
 8712TIP3    H226080   1.546   4.666   5.811
 8713TIP3   OH226081   1.260   3.743   4.754
 8713TIP3    H126082   1.165   3.758   4.753
 8713TIP3    H226083   1.291   3.789   4.832
 8714TIP3   OH226084   7.602   6.934   3.426
 8714TIP3    H126085   7.545   7.008   3.408
 8714TIP3    H226086   7.553   6.858   3.394
 8715TIP3   OH226087   2.635   2.260   5.727
 8715TIP3    H126088   2.599   2.260   5.816
 8715TIP3    H226089   2.727   2.238   5.738
 8716TIP3   OH226090   2.231   2.972   3.571
 8716TIP3    H126091   2.160   2.943   3.628
 8716TIP3    H226092   2.242   2.900   3.509
 8717TIP3   OH226093   4.763   2.644   5.889
 8717TIP3    H126094   4.711   2.566   5.907
 8717TIP3    H226095   4.800   2.629   5.802
 8718TIP3   OH226096   1.599   3.253   2.688
 8718TIP3    H126097   1.523   3.284   2.738
 8718TIP3    H226098   1.618   3.167   2.725
 8719TIP3   OH226099   5.286   2.568   6.746
 8719TIP3    H126100   5.328   2.489   6.712
 8719TIP3    H226101   5.347   2.639   6.725
 8720TIP3   OH226102   8.200   1.181   5.489
 8720TIP3    H126103   8.257   1.256   5.474
 8720TIP3    H226104   8.117   1.219   5.516
 8721TIP3   OH226105   5.475   4.728   4.606
 8721TIP3    H126106   5.559   4.736   4.560
 8721TIP3    H226107   5.488   4.656   4.668
 8722TIP3   OH226108   6.493   0.129   5.478
 8722TIP3    H126109   6.547   0.204   5.503
 8722TIP3    H226110   6.556   0.058   5.462
 8723TIP3   OH226111   0.830   0.138   3.177
 8723TIP3    H126112   0.842   0.150   3.271
 8723TIP3    H226113   0.749   0.185   3.156
 8724TIP3   OH226114   3.838   0.918   0.297
 8724TIP3    H126115   3.836   1.000   0.247
 8724TIP3    H226116   3.870   0.853   0.235
 8725TIP3   OH226117   1.107   2.583   6.077
 8725TIP3    H126118   1.054   2.550   6.149
 8725TIP3    H226119   1.197   2.567   6.104
 8726TIP3   OH226120   5.090   6.584   4.770
 8726TIP3    H126121   5.136   6.599   4.852
 8726TIP3    H226122   5.158   6.583   4.703
 8727TIP3   OH226123   2.478   4.337   1.620
 8727TIP3    H126124   2.533   4.323   1.696
 8727TIP3    H226125   2.389   4.346   1.656
 8728TIP3   OH226126   2.421   7.323   5.186
 8728TIP3    H126127   2.498   7.369   5.155
 8728TIP3    H226128   2.453   7.235   5.207
 8729TIP3   OH226129   5.212   6.079   6.532
 8729TIP3    H126130   5.282   6.037   6.481
 8729TIP3    H226131   5.132   6.060   6.482
 8730TIP3   OH226132   4.321   3.000   0.700
 8730TIP3    H126133   4.351   3.091   0.699
 8730TIP3    H226134   4.263   2.992   0.625
 8731TIP3   OH226135   5.160   4.478   3.926
 8731TIP3    H126136   5.085   4.445   3.976
 8731TIP3    H226137   5.237   4.443   3.971
 8732TIP3   OH226138   5.550   7.773   2.043
 8732TIP3    H126139   5.479   7.779   1.980
 8732TIP3    H226140   5.630   7.774   1.990
 8733TIP3   OH226141   7.469   2.458   0.103
 8733TIP3    H126142   7.427   2.513   0.169
 8733TIP3    H226143   7.509   2.521   0.042
 8734TIP3   OH226144   1.606   3.234   1.192
 8734TIP3    H126145   1.556   3.153   1.197
 8734TIP3    H226146   1.591   3.267   1.103
 8735TIP3   OH226147   3.781   6.047   3.186
 8735TIP3    H126148   3.831   6.126   3.205
 8735TIP3    H226149   3.846   5.983   3.157
 8736TIP3   OH226150   1.734   4.861   4.936
 8736TIP3    H126151   1.668   4.916   4.892
 8736TIP3    H226152   1.705   4.857   5.027
 8737TIP3   OH226153   7.470   4.190   6.115
 8737TIP3    H126154   7.442   4.228   6.032
 8737TIP3    H226155   7.564   4.204   6.117
 8738TIP3   OH226156   6.997   0.166   5.138
 8738TIP3    H126157   7.036   0.080   5.154
 8738TIP3    H226158   6.903   0.150   5.136
 8739TIP3   OH226159   6.000   1.596   3.381
 8739TIP3    H126160   6.015   1.614   3.474
 8739TIP3    H226161   6.011   1.680   3.338
 8740TIP3   OH226162   2.341   3.377   6.238
 8740TIP3    H126163   2.433   3.363   6.214
 8740TIP3    H226164   2.343   3.395   6.332
 8741TIP3   OH226165   5.990   3.935   1.253
 8741TIP3    H126166   6.066   3.979   1.214
 8741TIP3    H226167   5.920   4.000   1.246
 8742TIP3   OH226168   4.642   2.170   5.450
 8742TIP3    H126169   4.626   2.084   5.487
 8742TIP3    H226170   4.708   2.209   5.508
 8743TIP3   OH226171   2.486   4.051   6.260
 8743TIP3    H126172   2.566   4.043   6.208
 8743TIP3    H226173   2.439   4.125   6.220
 8744TIP3   OH226174   2.086   0.420   4.952
 8744TIP3    H126175   2.086   0.362   4.876
 8744TIP3    H226176   2.143   0.377   5.016
 8745TIP3   OH226177   3.261   2.534   6.343
 8745TIP3    H126178   3.302   2.449   6.327
 8745TIP3    H226179   3.323   2.580   6.399
 8746TIP3   OH226180   1.606   0.361   0.346
 8746TIP3    H126181   1.617   0.445   0.389
 8746TIP3    H226182   1.512   0.356   0.328
 8747TIP3   OH226183   1.477   4.890   4.337
 8747TIP3    H126184   1.382   4.874   4.333
 8747TIP3    H226185   1.501   4.866   4.427
 8748TIP3   OH226186   1.840   4.811   0.374
 8748TIP3    H126187   1.804   4.885   0.324
 8748TIP3    H226188   1.882   4.757   0.308
 8749TIP3   OH226189   5.297   2.593   3.844
 8749TIP3    H126190   5.320   2.518   3.899
 8749TIP3    H226191   5.211   2.621   3.875
 8750TIP3   OH226192   3.472   3.043   3.292
 8750TIP3    H126193   3.392   3.063   3.243
 8750TIP3    H226194   3.500   3.127   3.328
 8751TIP3   OH226195   5.162   5.090   0.570
 8751TIP3    H126196   5.171   5.163   0.509
 8751TIP3    H226197   5.096   5.033   0.529
 8752TIP3   OH226198   3.957   0.380   4.089
 8752TIP3    H126199   4.008   0.315   4.041
 8752TIP3    H226200   3.991   0.376   4.178
 8753TIP3   OH226201   6.273   6.523   3.224
 8753TIP3    H126202   6.350   6.511   3.169
 8753TIP3    H226203   6.236   6.435   3.233
 8754TIP3   OH226204   6.762   5.197   2.932
 8754TIP3    H126205   6.692   5.138   2.962
 8754TIP3    H226206   6.788   5.162   2.847
 8755TIP3   OH226207   5.412   3.336   2.731
 8755TIP3    H126208   5.410   3.411   2.672
 8755TIP3    H226209   5.488   3.285   2.702
 8756TIP3   OH226210   3.276   2.916   3.133
 8756TIP3    H126211   3.366   2.893   3.156
 8756TIP3    H226212   3.284   2.970   3.055
 8757TIP3   OH226213   1.992   2.399   4.739
 8757TIP3    H126214   2.072   2.413   4.790
 8757TIP3    H226215   2.023   2.361   4.657
 8758TIP3   OH226216   7.359   0.747   4.412
 8758TIP3    H126217   7.376   0.709   4.326
 8758TIP3    H226218   7.282   0.801   4.400
 8759TIP3   OH226219   7.504   1.284   1.624
 8759TIP3    H126220   7.553   1.207   1.597
 8759TIP3    H226221   7.413   1.264   1.603
 8760TIP3   OH226222   7.265   1.834   5.817
 8760TIP3    H126223   7.170   1.823   5.822
 8760TIP3    H226224   7.300   1.748   5.840
 8761TIP3   OH226225   2.293   2.260   6.444
 8761TIP3    H126226   2.313   2.283   6.535
 8761TIP3    H226227   2.197   2.261   6.440
 8762TIP3   OH226228   7.645   2.454   5.321
 8762TIP3    H126229   7.668   2.533   5.272
 8762TIP3    H226230   7.670   2.474   5.411
 8763TIP3   OH226231   4.834   2.464   1.494
 8763TIP3    H126232   4.812   2.454   1.587
 8763TIP3    H226233   4.759   2.426   1.448
 8764TIP3   OH226234   6.612   1.970   2.385
 8764TIP3    H126235   6.705   1.949   2.385
 8764TIP3    H226236   6.595   2.004   2.473
 8765TIP3   OH226237   3.236   0.102   4.597
 8765TIP3    H126238   3.146   0.122   4.571
 8765TIP3    H226239   3.231   0.013   4.632
 8766TIP3   OH226240   0.541   4.225   5.491
 8766TIP3    H126241   0.606   4.242   5.424
 8766TIP3    H226242   0.457   4.228   5.445
 8767TIP3   OH226243   4.876   4.842   5.039
 8767TIP3    H126244   4.792   4.797   5.050
 8767TIP3    H226245   4.929   4.781   4.987
 8768TIP3   OH226246   0.466   2.629   5.945
 8768TIP3    H126247   0.497   2.657   6.032
 8768TIP3    H226248   0.430   2.709   5.906
 8769TIP3   OH226249   7.360   1.138   6.336
 8769TIP3    H126250   7.438   1.180   6.372
 8769TIP3    H226251   7.383   1.121   6.244
 8770TIP3   OH226252   5.823   2.141   5.234
 8770TIP3    H126253   5.766   2.215   5.253
 8770TIP3    H226254   5.854   2.158   5.145
 8771TIP3   OH226255   5.171   5.929   0.796
 8771TIP3    H126256   5.127   5.898   0.717
 8771TIP3    H226257   5.110   5.993   0.834
 8772TIP3   OH226258   2.974   2.394   1.372
 8772TIP3    H126259   2.880   2.378   1.367
 8772TIP3    H226260   2.985   2.454   1.446
 8773TIP3   OH226261   2.891   3.074   2.923
 8773TIP3    H126262   2.961   3.026   2.878
 8773TIP3    H226263   2.873   3.149   2.866
 8774TIP3   OH226264   4.826   3.917   4.124
 8774TIP3    H126265   4.739   3.907   4.086
 8774TIP3    H226266   4.882   3.942   4.050
 8775TIP3   OH226267   5.872   0.670   4.495
 8775TIP3    H126268   5.864   0.732   4.567
 8775TIP3    H226269   5.948   0.701   4.445
 8776TIP3   OH226270   3.883   2.695   1.746
 8776TIP3    H126271   3.823   2.637   1.698
 8776TIP3    H226272   3.854   2.784   1.722
 8777TIP3   OH226273   5.754   1.843   3.495
 8777TIP3    H126274   5.676   1.809   3.538
 8777TIP3    H226275   5.827   1.814   3.550
 8778TIP3   OH226276   6.319   4.256   4.348
 8778TIP3    H126277   6.273   4.188   4.399
 8778TIP3    H226278   6.334   4.326   4.411
 8779TIP3   OH226279   2.705   0.508   2.087
 8779TIP3    H126280   2.754   0.587   2.063
 8779TIP3    H226281   2.750   0.476   2.165
 8780TIP3   OH226282   0.338   3.630   1.850
 8780TIP3    H126283   0.276   3.671   1.791
 8780TIP3    H226284   0.376   3.702   1.900
 8781TIP3   OH226285   2.272   5.049   4.789
 8781TIP3    H126286   2.236   5.111   4.852
 8781TIP3    H226287   2.195   5.016   4.742
 8782TIP3   OH226288   1.544   5.967   4.414
 8782TIP3    H126289   1.593   5.887   4.396
 8782TIP3    H226290   1.600   6.037   4.381
 8783TIP3   OH226291   6.472   1.863   5.496
 8783TIP3    H126292   6.468   1.853   5.591
 8783TIP3    H226293   6.387   1.900   5.471
 8784TIP3   OH226294   1.550   1.535   3.761
 8784TIP3    H126295   1.629   1.569   3.802
 8784TIP3    H226296   1.580   1.464   3.704
 8785TIP3   OH226297   2.564   3.981   1.677
 8785TIP3    H126298   2.481   4.023   1.698
 8785TIP3    H226299   2.616   3.989   1.757
 8786TIP3   OH226300   2.725   1.118   6.042
 8786TIP3    H126301   2.713   1.196   5.987
 8786TIP3    H226302   2.749   1.049   5.981
 8787TIP3   OH226303   7.888   1.960   1.169
 8787TIP3    H126304   7.913   1.878   1.127
 8787TIP3    H226305   7.876   1.937   1.262
 8788TIP3   OH226306   3.116   5.016   0.685
 8788TIP3    H126307   3.099   5.101   0.646
 8788TIP3    H226308   3.162   4.967   0.616
 8789TIP3   OH226309   8.103   7.230   0.360
 8789TIP3    H126310   8.021   7.184   0.344
 8789TIP3    H226311   8.163   7.197   0.293
 8790TIP3   OH226312   5.279   5.663   6.680
 8790TIP3    H126313   5.287   5.626   6.592
 8790TIP3    H226314   5.301   5.756   6.669
 8791TIP3   OH226315   5.894   4.556   5.338
 8791TIP3    H126316   5.935   4.469   5.341
 8791TIP3    H226317   5.964   4.615   5.312
 8792TIP3   OH226318   0.194   1.303   5.934
 8792TIP3    H126319   0.110   1.337   5.906
 8792TIP3    H226320   0.239   1.379   5.972
 8793TIP3   OH226321   1.778   1.350   5.420
 8793TIP3    H126322   1.750   1.426   5.471
 8793TIP3    H226323   1.749   1.274   5.471
 8794TIP3   OH226324   0.431   5.492   0.422
 8794TIP3    H126325   0.495   5.424   0.442
 8794TIP3    H226326   0.452   5.564   0.482
 8795TIP3   OH226327   3.592   0.142   0.752
 8795TIP3    H126328   3.628   0.230   0.744
 8795TIP3    H226329   3.599   0.121   0.846
 8796TIP3   OH226330   7.526   0.396   0.116
 8796TIP3    H126331   7.620   0.404   0.097
 8796TIP3    H226332   7.504   0.307   0.089
 8797TIP3   OH226333   4.775   3.021   6.464
 8797TIP3    H126334   4.854   3.064   6.431
 8797TIP3    H226335   4.705   3.052   6.407
 8798TIP3   OH226336   6.808   2.929   2.976
 8798TIP3    H126337   6.761   3.002   3.016
 8798TIP3    H226338   6.796   2.942   2.882
 8799TIP3   OH226339   1.207   1.603   1.324
 8799TIP3    H126340   1.287   1.637   1.285
 8799TIP3    H226341   1.208   1.510   1.301
 8800TIP3   OH226342   5.330   6.824   4.330
 8800TIP3    H126343   5.265   6.754   4.330
 8800TIP3    H226344   5.278   6.904   4.344
 8801TIP3   OH226345   1.503   0.137   3.078
 8801TIP3    H126346   1.418   0.095   3.094
 8801TIP3    H226347   1.567   0.077   3.114
 8802TIP3   OH226348   4.795   4.201   0.584
 8802TIP3    H126349   4.737   4.249   0.642
 8802TIP3    H226350   4.742   4.128   0.551
 8803TIP3   OH226351   5.081   1.872   5.173
 8803TIP3    H126352   5.012   1.838   5.116
 8803TIP3    H226353   5.088   1.808   5.244
 8804TIP3   OH226354   6.979   3.763   3.618
 8804TIP3    H126355   6.923   3.689   3.595
 8804TIP3    H226356   7.006   3.746   3.708
 8805TIP3   OH226357   3.379   3.879   6.588
 8805TIP3    H126358   3.475   3.889   6.583
 8805TIP3    H226359   3.365   3.822   6.663
 8806TIP3   OH226360   4.929   1.724   4.990
 8806TIP3    H126361   4.968   1.638   4.972
 8806TIP3    H226362   4.852   1.705   5.043
 8807TIP3   OH226363   6.519   1.692   6.418
 8807TIP3    H126364   6.509   1.636   6.341
 8807TIP3    H226365   6.566   1.769   6.386
 8808TIP3   OH226366   0.422   5.217   0.897
 8808TIP3    H126367   0.435   5.223   0.803
 8808TIP3    H226368   0.456   5.130   0.921
 8809TIP3   OH226369   5.409   6.600   2.366
 8809TIP3    H126370   5.356   6.532   2.323
 8809TIP3    H226371   5.473   6.627   2.300
 8810TIP3   OH226372   6.818   3.035   0.062
 8810TIP3    H126373   6.760   3.108   0.084
 8810TIP3    H226374   6.760   2.966   0.032
 8811TIP3   OH226375   6.136   0.241   2.847
 8811TIP3    H126376   6.060   0.241   2.789
 8811TIP3    H226377   6.102   0.205   2.930
 8812TIP3   OH226378   5.692   0.940   4.810
 8812TIP3    H126379   5.699   0.887   4.889
 8812TIP3    H226380   5.641   1.017   4.838
 8813TIP3   OH226381   3.335   2.272   6.360
 8813TIP3    H126382   3.252   2.275   6.409
 8813TIP3    H226383   3.332   2.189   6.313
 8814TIP3   OH226384   7.840   6.323   6.428
 8814TIP3    H126385   7.927   6.310   6.466
 8814TIP3    H226386   7.803   6.235   6.421
 8815TIP3   OH226387   4.547   4.859   1.110
 8815TIP3    H126388   4.617   4.815   1.158
 8815TIP3    H226389   4.555   4.951   1.137
 8816TIP3   OH226390   3.505   7.797   0.201
 8816TIP3    H126391   3.435   7.855   0.169
 8816TIP3    H226392   3.459   7.715   0.222
 8817TIP3   OH226393   7.272   1.844   4.092
 8817TIP3    H126394   7.357   1.876   4.061
 8817TIP3    H226395   7.292   1.760   4.134
 8818TIP3   OH226396   5.599   0.304   0.651
 8818TIP3    H126397   5.596   0.355   0.570
 8818TIP3    H226398   5.557   0.360   0.717
 8819TIP3   OH226399   5.538   3.709   4.488
 8819TIP3    H126400   5.444   3.714   4.502
 8819TIP3    H226401   5.571   3.654   4.559
 8820TIP3   OH226402   4.182   4.412   3.144
 8820TIP3    H126403   4.141   4.402   3.230
 8820TIP3    H226404   4.276   4.410   3.161
 8821TIP3   OH226405   0.993   6.985   0.524
 8821TIP3    H126406   0.985   6.992   0.428
 8821TIP3    H226407   1.081   6.949   0.538
 8822TIP3   OH226408   6.994   5.583   2.754
 8822TIP3    H126409   7.008   5.568   2.660
 8822TIP3    H226410   6.899   5.578   2.765
 8823TIP3   OH226411   1.600   3.609   0.866
 8823TIP3    H126412   1.652   3.604   0.947
 8823TIP3    H226413   1.644   3.547   0.807
 8824TIP3   OH226414   6.368   6.492   0.445
 8824TIP3    H126415   6.433   6.422   0.438
 8824TIP3    H226416   6.376   6.523   0.535
 8825TIP3   OH226417   6.807   0.756   6.752
 8825TIP3    H126418   6.783   0.783   6.664
 8825TIP3    H226419   6.732   0.705   6.783
 8826TIP3   OH226420   5.239   0.749   0.962
 8826TIP3    H126421   5.326   0.767   1.001
 8826TIP3    H226422   5.209   0.835   0.933
 8827TIP3   OH226423   1.805   5.427   1.893
 8827TIP3    H126424   1.879   5.485   1.876
 8827TIP3    H226425   1.729   5.477   1.866
 8828TIP3   OH226426   0.985   6.886   2.559
 8828TIP3    H126427   1.063   6.844   2.596
 8828TIP3    H226428   0.999   6.882   2.464
 8829TIP3   OH226429   7.169   2.132   2.704
 8829TIP3    H126430   7.097   2.122   2.766
 8829TIP3    H226431   7.213   2.212   2.732
 8830TIP3   OH226432   7.855   1.002   2.549
 8830TIP3    H126433   7.871   0.960   2.634
 8830TIP3    H226434   7.774   0.960   2.517
 8831TIP3   OH226435   6.844   6.095   1.234
 8831TIP3    H126436   6.871   6.028   1.171
 8831TIP3    H226437   6.925   6.136   1.262
 8832TIP3   OH226438   8.091   6.502   3.731
 8832TIP3    H126439   8.028   6.439   3.696
 8832TIP3    H226440   8.058   6.525   3.817
 8833TIP3   OH226441   3.154   0.278   6.737
 8833TIP3    H126442   3.227   0.219   6.755
 8833TIP3    H226443   3.181   0.326   6.659
 8834TIP3   OH226444   0.754   1.364   5.646
 8834TIP3    H126445   0.708   1.326   5.721
 8834TIP3    H226446   0.714   1.451   5.635
 8835TIP3   OH226447   0.123   3.764   2.383
 8835TIP3    H126448   0.122   3.792   2.474
 8835TIP3    H226449   0.068   3.686   2.381
 8836TIP3   OH226450   3.719   7.210   5.051
 8836TIP3    H126451   3.796   7.162   5.079
 8836TIP3    H226452   3.708   7.186   4.958
 8837TIP3   OH226453   1.430   4.802   3.664
 8837TIP3    H126454   1.460   4.790   3.574
 8837TIP3    H226455   1.427   4.713   3.700
 8838TIP3   OH226456   1.104   3.233   5.405
 8838TIP3    H126457   1.152   3.160   5.365
 8838TIP3    H226458   1.014   3.202   5.412
 8839TIP3   OH226459   5.632   5.703   4.652
 8839TIP3    H126460   5.542   5.689   4.681
 8839TIP3    H226461   5.684   5.638   4.701
 8840TIP3   OH226462   2.413   3.452   0.687
 8840TIP3    H126463   2.466   3.379   0.719
 8840TIP3    H226464   2.327   3.413   0.668
 8841TIP3   OH226465   6.082   0.415   2.251
 8841TIP3    H126466   6.168   0.379   2.227
 8841TIP3    H226467   6.074   0.398   2.344
 8842TIP3   OH226468   4.978   3.129   2.473
 8842TIP3    H126469   5.008   3.112   2.384
 8842TIP3    H226470   4.889   3.163   2.462
 8843TIP3   OH226471   3.256   0.760   1.385
 8843TIP3    H126472   3.244   0.741   1.292
 8843TIP3    H226473   3.200   0.836   1.401
 8844TIP3   OH226474   0.993   4.344   5.627
 8844TIP3    H126475   1.034   4.322   5.543
 8844TIP3    H226476   0.933   4.415   5.606
 8845TIP3   OH226477   0.445   2.508   1.238
 8845TIP3    H126478   0.485   2.562   1.306
 8845TIP3    H226479   0.499   2.522   1.161
 8846TIP3   OH226480   6.512   1.331   5.182
 8846TIP3    H126481   6.564   1.337   5.102
 8846TIP3    H226482   6.532   1.410   5.231
 8847TIP3   OH226483  -0.022   5.953   0.740
 8847TIP3    H126484   0.045   5.885   0.731
 8847TIP3    H226485   0.018   6.031   0.702
 8848TIP3   OH226486   4.735   1.003   4.604
 8848TIP3    H126487   4.731   1.045   4.690
 8848TIP3    H226488   4.710   1.073   4.543
 8849TIP3   OH226489   7.102   7.211   5.843
 8849TIP3    H126490   7.083   7.305   5.845
 8849TIP3    H226491   7.188   7.203   5.883
 8850TIP3   OH226492   5.949   7.044   1.919
 8850TIP3    H126493   5.915   7.021   2.006
 8850TIP3    H226494   6.040   7.069   1.935
 8851TIP3   OH226495   1.375   0.970   6.472
 8851TIP3    H126496   1.346   0.902   6.411
 8851TIP3    H226497   1.296   0.993   6.521
 8852TIP3   OH226498   3.108   5.525   1.843
 8852TIP3    H126499   3.073   5.561   1.925
 8852TIP3    H226500   3.035   5.528   1.782
 8853TIP3   OH226501   3.411   2.262   5.670
 8853TIP3    H126502   3.395   2.355   5.683
 8853TIP3    H226503   3.486   2.259   5.610
 8854TIP3   OH226504   4.702   1.443   2.310
 8854TIP3    H126505   4.763   1.494   2.257
 8854TIP3    H226506   4.736   1.354   2.306
 8855TIP3   OH226507   0.162   4.100   2.663
 8855TIP3    H126508   0.189   4.151   2.587
 8855TIP3    H226509   0.207   4.142   2.737
 8856TIP3   OH226510   6.676   0.625   5.204
 8856TIP3    H126511   6.625   0.669   5.272
 8856TIP3    H226512   6.655   0.672   5.124
 8857TIP3   OH226513   2.013   7.193   6.267
 8857TIP3    H126514   2.030   7.285   6.247
 8857TIP3    H226515   1.993   7.153   6.182
 8858TIP3   OH226516   1.180   3.334   5.861
 8858TIP3    H126517   1.140   3.358   5.778
 8858TIP3    H226518   1.264   3.380   5.861
 8859TIP3   OH226519   5.182   5.616   2.784
 8859TIP3    H126520   5.188   5.530   2.741
 8859TIP3    H226521   5.175   5.678   2.711
 8860TIP3   OH226522   4.966   1.600   1.892
 8860TIP3    H126523   4.954   1.582   1.799
 8860TIP3    H226524   5.061   1.604   1.903
 8861TIP3   OH226525   0.867   6.298   6.606
 8861TIP3    H126526   0.841   6.378   6.562
 8861TIP3    H226527   0.831   6.306   6.694
 8862TIP3   OH226528   4.063   7.422   5.358
 8862TIP3    H126529   4.106   7.339   5.337
 8862TIP3    H226530   3.982   7.396   5.401
 8863TIP3   OH226531   1.460   2.017   3.056
 8863TIP3    H126532   1.374   2.016   3.098
 8863TIP3    H226533   1.511   1.951   3.103
 8864TIP3   OH226534   7.193   4.428   2.158
 8864TIP3    H126535   7.221   4.379   2.236
 8864TIP3    H226536   7.222   4.518   2.175
 8865TIP3   OH226537   7.612   4.736   5.976
 8865TIP3    H126538   7.684   4.716   6.036
 8865TIP3    H226539   7.640   4.701   5.892
 8866TIP3   OH226540   7.446   1.064   0.815
 8866TIP3    H126541   7.531   1.103   0.793
 8866TIP3    H226542   7.467   0.972   0.834
 8867TIP3   OH226543   2.454   4.415   2.996
 8867TIP3    H126544   2.364   4.384   2.995
 8867TIP3    H226545   2.491   4.385   2.913
 8868TIP3   OH226546   5.026   1.478   4.926
 8868TIP3    H126547   4.992   1.437   4.847
 8868TIP3    H226548   5.046   1.405   4.984
 8869TIP3   OH226549   1.450   6.384   0.521
 8869TIP3    H126550   1.488   6.310   0.473
 8869TIP3    H226551   1.520   6.449   0.524
 8870TIP3   OH226552   2.044   5.209   6.603
 8870TIP3    H126553   2.120   5.187   6.549
 8870TIP3    H226554   1.976   5.147   6.576
 8871TIP3   OH226555   5.179   3.330   4.424
 8871TIP3    H126556   5.148   3.420   4.411
 8871TIP3    H226557   5.237   3.336   4.500
 8872TIP3   OH226558   4.854   6.525   6.137
 8872TIP3    H126559   4.793   6.508   6.209
 8872TIP3    H226560   4.802   6.511   6.058
 8873TIP3   OH226561   2.645   5.217   4.888
 8873TIP3    H126562   2.641   5.234   4.983
 8873TIP3    H226563   2.673   5.300   4.851
 8874TIP3   OH226564   2.842   1.817   3.069
 8874TIP3    H126565   2.869   1.728   3.091
 8874TIP3    H226566   2.797   1.848   3.148
 8875TIP3   OH226567   6.182   2.733   1.607
 8875TIP3    H126568   6.110   2.794   1.589
 8875TIP3    H226569   6.260   2.788   1.607
 8876TIP3   OH226570   0.622   2.603   1.463
 8876TIP3    H126571   0.641   2.695   1.476
 8876TIP3    H226572   0.584   2.574   1.546
 8877TIP3   OH226573   4.071   4.445   1.123
 8877TIP3    H126574   4.057   4.456   1.217
 8877TIP3    H226575   4.073   4.534   1.088
 8878TIP3   OH226576   3.411   0.778   6.716
 8878TIP3    H126577   3.411   0.839   6.790
 8878TIP3    H226578   3.439   0.695   6.753
 8879TIP3   OH226579   7.611   7.711   3.509
 8879TIP3    H126580   7.567   7.779   3.561
 8879TIP3    H226581   7.577   7.629   3.543
 8880TIP3   OH226582   3.510   1.952   1.439
 8880TIP3    H126583   3.494   2.035   1.394
 8880TIP3    H226584   3.434   1.940   1.496
 8881TIP3   OH226585   2.526   3.330   4.422
 8881TIP3    H126586   2.587   3.333   4.496
 8881TIP3    H226587   2.542   3.412   4.374
 8882TIP3   OH226588   3.395   5.958   0.801
 8882TIP3    H126589   3.405   5.991   0.891
 8882TIP3    H226590   3.338   5.881   0.811
 8883TIP3   OH226591   1.874   6.736   3.326
 8883TIP3    H126592   1.954   6.781   3.298
 8883TIP3    H226593   1.885   6.725   3.421
 8884TIP3   OH226594   5.199   3.156   1.731
 8884TIP3    H126595   5.252   3.121   1.659
 8884TIP3    H226596   5.248   3.232   1.762
 8885TIP3   OH226597   3.497   6.676   1.064
 8885TIP3    H126598   3.501   6.610   0.995
 8885TIP3    H226599   3.404   6.678   1.090
 8886TIP3   OH226600   7.610   6.952   3.106
 8886TIP3    H126601   7.627   6.982   3.195
 8886TIP3    H226602   7.604   7.032   3.055
 8887TIP3   OH226603   4.727   4.111   5.968
 8887TIP3    H126604   4.790   4.124   6.040
 8887TIP3    H226605   4.651   4.163   5.993
 8888TIP3   OH226606   1.728   6.282   1.599
 8888TIP3    H126607   1.650   6.307   1.550
 8888TIP3    H226608   1.792   6.259   1.531
 8889TIP3   OH226609   7.742   3.790   1.177
 8889TIP3    H126610   7.809   3.766   1.112
 8889TIP3    H226611   7.791   3.820   1.253
 8890TIP3   OH226612   4.134   6.900   5.302
 8890TIP3    H126613   4.048   6.862   5.283
 8890TIP3    H226614   4.126   6.992   5.278
 8891TIP3   OH226615   7.718   4.099   0.346
 8891TIP3    H126616   7.675   4.128   0.426
 8891TIP3    H226617   7.663   4.028   0.314
 8892TIP3   OH226618   7.224   0.929   4.128
 8892TIP3    H126619   7.212   1.023   4.118
 8892TIP3    H226620   7.169   0.906   4.204
 8893TIP3   OH226621   4.269   4.314   5.736
 8893TIP3    H126622   4.201   4.335   5.672
 8893TIP3    H226623   4.314   4.397   5.750
 8894TIP3   OH226624   3.730   7.413   0.821
 8894TIP3    H126625   3.667   7.478   0.791
 8894TIP3    H226626   3.694   7.380   0.903
 8895TIP3   OH226627   4.970   4.966   2.715
 8895TIP3    H126628   4.993   5.051   2.753
 8895TIP3    H226629   4.923   4.921   2.785
 8896TIP3   OH226630   6.023   3.427   4.937
 8896TIP3    H126631   5.996   3.364   4.871
 8896TIP3    H226632   5.984   3.510   4.909
 8897TIP3   OH226633   4.344   3.759   3.011
 8897TIP3    H126634   4.404   3.757   3.087
 8897TIP3    H226635   4.304   3.673   3.010
 8898TIP3   OH226636   2.324   4.377   3.675
 8898TIP3    H126637   2.382   4.354   3.747
 8898TIP3    H226638   2.258   4.433   3.715
 8899TIP3   OH226639   3.187   4.063   2.112
 8899TIP3    H126640   3.197   4.116   2.033
 8899TIP3    H226641   3.247   3.990   2.099
 8900TIP3   OH226642   0.471   5.227   2.896
 8900TIP3    H126643   0.427   5.143   2.885
 8900TIP3    H226644   0.467   5.268   2.810
 8901TIP3   OH226645   7.386   6.156   3.328
 8901TIP3    H126646   7.327   6.114   3.265
 8901TIP3    H226647   7.474   6.129   3.300
 8902TIP3   OH226648   6.266   1.625   4.260
 8902TIP3    H126649   6.213   1.595   4.186
 8902TIP3    H226650   6.312   1.702   4.226
 8903TIP3   OH226651   2.744   6.860   6.635
 8903TIP3    H126652   2.727   6.930   6.572
 8903TIP3    H226653   2.696   6.784   6.600
 8904TIP3   OH226654   2.145   2.811   0.386
 8904TIP3    H126655   2.135   2.809   0.291
 8904TIP3    H226656   2.166   2.721   0.410
 8905TIP3   OH226657   0.865   1.572   2.751
 8905TIP3    H126658   0.944   1.622   2.773
 8905TIP3    H226659   0.898   1.491   2.711
 8906TIP3   OH226660   7.624   3.986   1.516
 8906TIP3    H126661   7.692   3.925   1.488
 8906TIP3    H226662   7.598   4.032   1.436
 8907TIP3   OH226663   1.645   1.266   4.429
 8907TIP3    H126664   1.593   1.186   4.433
 8907TIP3    H226665   1.600   1.327   4.488
 8908TIP3   OH226666   6.822   3.305   6.196
 8908TIP3    H126667   6.867   3.227   6.227
 8908TIP3    H226668   6.729   3.283   6.200
 8909TIP3   OH226669   7.385   2.210   0.958
 8909TIP3    H126670   7.317   2.208   0.892
 8909TIP3    H226671   7.426   2.123   0.953
 8910TIP3   OH226672   2.633   0.839   5.305
 8910TIP3    H126673   2.669   0.897   5.372
 8910TIP3    H226674   2.602   0.763   5.353
 8911TIP3   OH226675   2.243   2.637   1.715
 8911TIP3    H126676   2.334   2.620   1.736
 8911TIP3    H226677   2.245   2.682   1.631
 8912TIP3   OH226678   7.526   0.311   6.065
 8912TIP3    H126679   7.487   0.397   6.081
 8912TIP3    H226680   7.452   0.250   6.072
 8913TIP3   OH226681   2.851   6.419   6.522
 8913TIP3    H126682   2.799   6.445   6.446
 8913TIP3    H226683   2.785   6.390   6.586
 8914TIP3   OH226684   2.940   6.488   1.727
 8914TIP3    H126685   3.023   6.533   1.742
 8914TIP3    H226686   2.886   6.512   1.802
 8915TIP3   OH226687   3.047   3.564   5.795
 8915TIP3    H126688   3.021   3.651   5.824
 8915TIP3    H226689   3.132   3.577   5.752
 8916TIP3   OH226690   5.476   1.301   4.329
 8916TIP3    H126691   5.557   1.351   4.335
 8916TIP3    H226692   5.455   1.278   4.420
 8917TIP3   OH226693   3.817   2.905   0.506
 8917TIP3    H126694   3.787   2.955   0.582
 8917TIP3    H226695   3.878   2.964   0.461
 8918TIP3   OH226696   4.255   0.750   3.523
 8918TIP3    H126697   4.257   0.837   3.481
 8918TIP3    H226698   4.258   0.769   3.616
 8919TIP3   OH226699   5.808   4.332   4.287
 8919TIP3    H126700   5.868   4.383   4.232
 8919TIP3    H226701   5.833   4.241   4.271
 8920TIP3   OH226702   7.872   2.851   0.505
 8920TIP3    H126703   7.801   2.892   0.456
 8920TIP3    H226704   7.844   2.761   0.518
 8921TIP3   OH226705   8.187   6.656   5.482
 8921TIP3    H126706   8.196   6.596   5.556
 8921TIP3    H226707   8.124   6.721   5.511
 8922TIP3   OH226708   7.851   5.547   0.043
 8922TIP3    H126709   7.809   5.616  -0.008
 8922TIP3    H226710   7.824   5.564   0.133
 8923TIP3   OH226711   0.619   7.597   2.663
 8923TIP3    H126712   0.527   7.591   2.637
 8923TIP3    H226713   0.617   7.597   2.759
 8924TIP3   OH226714   5.839   1.455   3.240
 8924TIP3    H126715   5.892   1.523   3.282
 8924TIP3    H226716   5.772   1.504   3.192
 8925TIP3   OH226717   2.738   7.050   0.071
 8925TIP3    H126718   2.662   7.095   0.109
 8925TIP3    H226719   2.717   7.043  -0.023
 8926TIP3   OH226720   5.990   1.256   3.912
 8926TIP3    H126721   5.948   1.265   3.998
 8926TIP3    H226722   5.965   1.168   3.883
 8927TIP3   OH226723   3.440   1.711   0.012
 8927TIP3    H126724   3.378   1.665   0.069
 8927TIP3    H226725   3.488   1.769   0.071
 8928TIP3   OH226726   5.747   3.650   0.504
 8928TIP3    H126727   5.685   3.641   0.432
 8928TIP3    H226728   5.827   3.686   0.464
 8929TIP3   OH226729   0.240   2.122   4.844
 8929TIP3    H126730   0.158   2.170   4.831
 8929TIP3    H226731   0.218   2.032   4.820
 8930TIP3   OH226732   6.618   0.284   4.240
 8930TIP3    H126733   6.637   0.361   4.294
 8930TIP3    H226734   6.704   0.253   4.211
 8931TIP3   OH226735   3.412   6.811   1.814
 8931TIP3    H126736   3.380   6.867   1.885
 8931TIP3    H226737   3.507   6.824   1.814
 8932TIP3   OH226738   6.861   1.835   2.101
 8932TIP3    H126739   6.780   1.807   2.060
 8932TIP3    H226740   6.891   1.759   2.151
 8933TIP3   OH226741   0.806   4.090   2.730
 8933TIP3    H126742   0.819   4.174   2.686
 8933TIP3    H226743   0.711   4.077   2.729
 8934TIP3   OH226744   3.348   3.062   5.267
 8934TIP3    H126745   3.279   3.000   5.245
 8934TIP3    H226746   3.339   3.131   5.202
 8935TIP3   OH226747   3.045   7.703   0.692
 8935TIP3    H126748   2.969   7.761   0.692
 8935TIP3    H226749   3.023   7.634   0.630
 8936TIP3   OH226750   6.942   2.032   5.808
 8936TIP3    H126751   6.933   2.073   5.722
 8936TIP3    H226752   7.018   2.076   5.847
 8937TIP3   OH226753   1.332   5.505   3.031
 8937TIP3    H126754   1.347   5.491   3.125
 8937TIP3    H226755   1.419   5.518   2.995
 8938TIP3   OH226756   3.667   6.670   5.217
 8938TIP3    H126757   3.584   6.674   5.264
 8938TIP3    H226758   3.643   6.675   5.125
 8939TIP3   OH226759   4.776   2.183   4.649
 8939TIP3    H126760   4.789   2.245   4.720
 8939TIP3    H226761   4.686   2.198   4.619
 8940TIP3   OH226762   4.582   7.464   0.371
 8940TIP3    H126763   4.491   7.454   0.400
 8940TIP3    H226764   4.628   7.499   0.447
 8941TIP3   OH226765   1.682   2.686   3.811
 8941TIP3    H126766   1.768   2.654   3.840
 8941TIP3    H226767   1.676   2.658   3.720
 8942TIP3   OH226768   2.251   2.517   0.970
 8942TIP3    H126769   2.171   2.465   0.962
 8942TIP3    H226770   2.236   2.593   0.914
 8943TIP3   OH226771   3.713   6.288   1.675
 8943TIP3    H126772   3.726   6.281   1.769
 8943TIP3    H226773   3.643   6.226   1.655
 8944TIP3   OH226774   4.535   3.679   0.806
 8944TIP3    H126775   4.586   3.621   0.863
 8944TIP3    H226776   4.544   3.641   0.719
 8945TIP3   OH226777   0.582   2.266   2.347
 8945TIP3    H126778   0.582   2.193   2.284
 8945TIP3    H226779   0.638   2.235   2.418
 8946TIP3   OH226780   3.678   5.437   0.491
 8946TIP3    H126781   3.596   5.472   0.456
 8946TIP3    H226782   3.684   5.348   0.454
 8947TIP3   OH226783   0.463   3.933   4.373
 8947TIP3    H126784   0.469   4.008   4.433
 8947TIP3    H226785   0.491   3.967   4.289
 8948TIP3   OH226786   5.644   7.603   3.299
 8948TIP3    H126787   5.643   7.698   3.305
 8948TIP3    H226788   5.733   7.579   3.326
 8949TIP3   OH226789   7.441   6.759   4.922
 8949TIP3    H126790   7.409   6.782   5.010
 8949TIP3    H226791   7.447   6.843   4.876
 8950TIP3   OH226792   2.240   1.259   1.640
 8950TIP3    H126793   2.286   1.340   1.661
 8950TIP3    H226794   2.250   1.248   1.546
 8951TIP3   OH226795   6.025   0.087   2.093
 8951TIP3    H126796   6.005   0.062   2.183
 8951TIP3    H226797   6.120   0.101   2.093
 8952TIP3   OH226798   6.796   5.674   5.994
 8952TIP3    H126799   6.738   5.732   5.944
 8952TIP3    H226800   6.840   5.731   6.056
 8953TIP3   OH226801   2.312   7.549   1.589
 8953TIP3    H126802   2.392   7.577   1.635
 8953TIP3    H226803   2.243   7.605   1.624
 8954TIP3   OH226804   7.107   7.097   2.923
 8954TIP3    H126805   7.156   7.029   2.878
 8954TIP3    H226806   7.113   7.173   2.865
 8955TIP3   OH226807   1.838   6.661   5.110
 8955TIP3    H126808   1.850   6.733   5.048
 8955TIP3    H226809   1.883   6.587   5.069
 8956TIP3   OH226810   5.551   7.355   4.753
 8956TIP3    H126811   5.534   7.314   4.838
 8956TIP3    H226812   5.644   7.379   4.757
 8957TIP3   OH226813   7.834   0.235   0.083
 8957TIP3    H126814   7.873   0.167   0.029
 8957TIP3    H226815   7.740   0.221   0.075
 8958TIP3   OH226816   1.390   1.812   0.522
 8958TIP3    H126817   1.395   1.830   0.616
 8958TIP3    H226818   1.450   1.875   0.482
 8959TIP3   OH226819   3.882   4.264   4.605
 8959TIP3    H126820   3.838   4.202   4.663
 8959TIP3    H226821   3.853   4.240   4.517
 8960TIP3   OH226822   4.610   4.340   5.735
 8960TIP3    H126823   4.555   4.413   5.760
 8960TIP3    H226824   4.587   4.270   5.796
 8961TIP3   OH226825   4.316   6.990   4.876
 8961TIP3    H126826   4.365   6.969   4.956
 8961TIP3    H226827   4.290   7.081   4.888
 8962TIP3   OH226828   0.557   4.623   1.115
 8962TIP3    H126829   0.564   4.565   1.040
 8962TIP3    H226830   0.619   4.588   1.179
 8963TIP3   OH226831   0.488   7.033   0.691
 8963TIP3    H126832   0.560   7.065   0.744
 8963TIP3    H226833   0.457   7.111   0.644
 8964TIP3   OH226834   5.599   4.619   5.048
 8964TIP3    H126835   5.505   4.634   5.061
 8964TIP3    H226836   5.641   4.685   5.103
 8965TIP3   OH226837   6.318   0.772   0.235
 8965TIP3    H126838   6.333   0.862   0.266
 8965TIP3    H226839   6.240   0.779   0.180
 8966TIP3   OH226840   0.118   3.231   1.539
 8966TIP3    H126841   0.119   3.153   1.484
 8966TIP3    H226842   0.054   3.289   1.497
 8967TIP3   OH226843   6.342   7.086   0.874
 8967TIP3    H126844   6.424   7.039   0.886
 8967TIP3    H226845   6.359   7.174   0.907
 8968TIP3   OH226846   0.040   7.009   1.164
 8968TIP3    H126847   0.107   6.970   1.108
 8968TIP3    H226848   0.072   7.098   1.182
 8969TIP3   OH226849   6.247   6.796   3.245
 8969TIP3    H126850   6.303   6.831   3.175
 8969TIP3    H226851   6.243   6.702   3.228
 8970TIP3   OH226852   1.410   4.053   5.194
 8970TIP3    H126853   1.368   4.000   5.262
 8970TIP3    H226854   1.446   4.128   5.241
 8971TIP3   OH226855   7.451   3.642   4.886
 8971TIP3    H126856   7.508   3.699   4.834
 8971TIP3    H226857   7.434   3.567   4.829
 8972TIP3   OH226858   3.901   4.440   4.916
 8972TIP3    H126859   3.906   4.409   5.006
 8972TIP3    H226860   3.983   4.411   4.876
 8973TIP3   OH226861   0.834   7.099   5.545
 8973TIP3    H126862   0.821   7.019   5.494
 8973TIP3    H226863   0.777   7.089   5.621
 8974TIP3   OH226864   4.938   7.055   1.649
 8974TIP3    H126865   4.996   7.051   1.725
 8974TIP3    H226866   4.990   7.096   1.581
 8975TIP3   OH226867   4.884   0.878   5.492
 8975TIP3    H126868   4.934   0.921   5.561
 8975TIP3    H226869   4.917   0.918   5.411
 8976TIP3   OH226870   4.554   0.496   5.181
 8976TIP3    H126871   4.549   0.487   5.276
 8976TIP3    H226872   4.595   0.582   5.167
 8977TIP3   OH226873   5.368   4.146   1.398
 8977TIP3    H126874   5.454   4.184   1.417
 8977TIP3    H226875   5.378   4.054   1.421
 8978TIP3   OH226876   4.236   1.508   1.390
 8978TIP3    H126877   4.319   1.546   1.420
 8978TIP3    H226878   4.194   1.478   1.471
 8979TIP3   OH226879   0.169   0.442   6.403
 8979TIP3    H126880   0.175   0.445   6.308
 8979TIP3    H226881   0.079   0.471   6.422
 8980TIP3   OH226882   7.165   2.034   3.177
 8980TIP3    H126883   7.191   2.017   3.087
 8980TIP3    H226884   7.070   2.029   3.177
 8981TIP3   OH226885   5.405   4.140   2.210
 8981TIP3    H126886   5.489   4.093   2.208
 8981TIP3    H226887   5.398   4.179   2.123
 8982TIP3   OH226888   0.982   0.434   0.557
 8982TIP3    H126889   1.007   0.352   0.515
 8982TIP3    H226890   0.892   0.450   0.528
 8983TIP3   OH226891   3.003   1.552   5.550
 8983TIP3    H126892   3.019   1.611   5.476
 8983TIP3    H226893   3.086   1.551   5.598
 8984TIP3   OH226894   7.845   5.649   1.653
 8984TIP3    H126895   7.807   5.689   1.731
 8984TIP3    H226896   7.894   5.720   1.611
 8985TIP3   OH226897   1.169   1.322   1.340
 8985TIP3    H126898   1.153   1.230   1.318
 8985TIP3    H226899   1.198   1.320   1.431
 8986TIP3   OH226900   6.307   6.605   5.357
 8986TIP3    H126901   6.261   6.623   5.440
 8986TIP3    H226902   6.394   6.577   5.384
 8987TIP3   OH226903   4.311   1.529   5.830
 8987TIP3    H126904   4.350   1.567   5.752
 8987TIP3    H226905   4.255   1.598   5.866
 8988TIP3   OH226906   4.816   1.596   5.229
 8988TIP3    H126907   4.739   1.645   5.201
 8988TIP3    H226908   4.784   1.507   5.242
 8989TIP3   OH226909   1.843   3.746   5.892
 8989TIP3    H126910   1.832   3.841   5.891
 8989TIP3    H226911   1.930   3.732   5.930
 8990TIP3   OH226912   2.115   3.249   1.283
 8990TIP3    H126913   2.174   3.324   1.289
 8990TIP3    H226914   2.033   3.280   1.320
 8991TIP3   OH226915   1.489   1.684   0.885
 8991TIP3    H126916   1.470   1.762   0.834
 8991TIP3    H226917   1.526   1.622   0.822
 8992TIP3   OH226918   7.263   3.389   4.028
 8992TIP3    H126919   7.335   3.328   4.046
 8992TIP3    H226920   7.184   3.341   4.052
 8993TIP3   OH226921   3.167   7.631   3.716
 8993TIP3    H126922   3.200   7.551   3.677
 8993TIP3    H226923   3.207   7.633   3.803
 8994TIP3   OH226924   0.690   2.778   3.519
 8994TIP3    H126925   0.736   2.709   3.567
 8994TIP3    H226926   0.601   2.775   3.553
 8995TIP3   OH226927   1.614   0.338   6.220
 8995TIP3    H126928   1.625   0.247   6.192
 8995TIP3    H226929   1.527   0.340   6.261
 8996TIP3   OH226930   4.011   1.883   2.732
 8996TIP3    H126931   4.054   1.858   2.650
 8996TIP3    H226932   4.063   1.955   2.766
 8997TIP3   OH226933   5.544   3.908   2.302
 8997TIP3    H126934   5.540   3.832   2.244
 8997TIP3    H226935   5.634   3.908   2.335
 8998TIP3   OH226936   1.345   1.663   4.394
 8998TIP3    H126937   1.263   1.691   4.353
 8998TIP3    H226938   1.362   1.729   4.462
 8999TIP3   OH226939   5.174   1.173   3.350
 8999TIP3    H126940   5.169   1.260   3.391
 8999TIP3    H226941   5.232   1.123   3.407
 9000TIP3   OH226942   4.985   5.913   4.366
 9000TIP3    H126943   4.901   5.871   4.350
 9000TIP3    H226944   4.986   5.988   4.307
 9001TIP3   OH226945   6.617   4.266   6.137
 9001TIP3    H126946   6.706   4.299   6.148
 9001TIP3    H226947   6.621   4.212   6.058
 9002TIP3   OH226948   0.408   6.503   6.287
 9002TIP3    H126949   0.455   6.425   6.257
 9002TIP3    H226950   0.425   6.506   6.381
 9003TIP3   OH226951   0.341   6.361   1.436
 9003TIP3    H126952   0.379   6.295   1.377
 9003TIP3    H226953   0.258   6.323   1.464
 9004TIP3   OH226954   4.892   0.880   4.375
 9004TIP3    H126955   4.807   0.859   4.335
 9004TIP3    H226956   4.871   0.904   4.465
 9005TIP3   OH226957   4.829   3.840   4.942
 9005TIP3    H126958   4.768   3.894   4.993
 9005TIP3    H226959   4.772   3.776   4.898
 9006TIP3   OH226960   5.014   4.421   2.573
 9006TIP3    H126961   5.083   4.482   2.597
 9006TIP3    H226962   4.997   4.372   2.653
 9007TIP3   OH226963   7.268   0.901   6.485
 9007TIP3    H126964   7.292   0.991   6.463
 9007TIP3    H226965   7.196   0.910   6.548
 9008TIP3   OH226966   3.551   5.492   4.506
 9008TIP3    H126967   3.543   5.574   4.458
 9008TIP3    H226968   3.609   5.438   4.452
 9009TIP3   OH226969   6.370   4.215   2.943
 9009TIP3    H126970   6.342   4.131   2.906
 9009TIP3    H226971   6.361   4.277   2.871
 9010TIP3   OH226972   1.478   6.088   4.647
 9010TIP3    H126973   1.509   6.032   4.575
 9010TIP3    H226974   1.433   6.160   4.604
 9011TIP3   OH226975   2.262   2.397   4.834
 9011TIP3    H126976   2.286   2.479   4.790
 9011TIP3    H226977   2.277   2.414   4.927
 9012TIP3   OH226978   0.147   2.704   5.352
 9012TIP3    H126979   0.134   2.772   5.419
 9012TIP3    H226980   0.067   2.706   5.300
 9013TIP3   OH226981   5.801   3.266   2.309
 9013TIP3    H126982   5.724   3.323   2.311
 9013TIP3    H226983   5.804   3.226   2.396
 9014TIP3   OH226984   2.889   2.869   4.502
 9014TIP3    H126985   2.917   2.778   4.496
 9014TIP3    H226986   2.794   2.866   4.488
 9015TIP3   OH226987   2.313   4.717   3.250
 9015TIP3    H126988   2.310   4.624   3.273
 9015TIP3    H226989   2.237   4.755   3.294
 9016TIP3   OH226990   3.256   1.718   1.153
 9016TIP3    H126991   3.347   1.726   1.180
 9016TIP3    H226992   3.206   1.760   1.223
 9017TIP3   OH226993   2.742   5.442   5.696
 9017TIP3    H126994   2.662   5.492   5.711
 9017TIP3    H226995   2.803   5.472   5.764
 9018TIP3   OH226996   3.720   6.811   0.924
 9018TIP3    H126997   3.788   6.831   0.989
 9018TIP3    H226998   3.647   6.776   0.976
 9019TIP3   OH226999   3.223   4.709   5.259
 9019TIP3    H127000   3.185   4.632   5.218
 9019TIP3    H227001   3.261   4.759   5.187
 9020TIP3   OH227002   2.544   1.834   5.198
 9020TIP3    H127003   2.625   1.784   5.205
 9020TIP3    H227004   2.541   1.862   5.107
 9021TIP3   OH227005   0.469   1.036   1.761
 9021TIP3    H127006   0.444   1.006   1.848
 9021TIP3    H227007   0.411   0.988   1.702
 9022TIP3   OH227008   1.984   6.642   6.282
 9022TIP3    H127009   1.995   6.732   6.249
 9022TIP3    H227010   2.072   6.604   6.276
 9023TIP3   OH227011   0.783   4.961   3.896
 9023TIP3    H127012   0.723   4.982   3.824
 9023TIP3    H227013   0.768   4.868   3.913
 9024TIP3   OH227014   3.055   0.183   1.696
 9024TIP3    H127015   3.026   0.269   1.667
 9024TIP3    H227016   2.997   0.161   1.769
 9025TIP3   OH227017   4.217   0.936   6.151
 9025TIP3    H127018   4.297   0.977   6.117
 9025TIP3    H227019   4.230   0.932   6.245
 9026TIP3   OH227020   3.015   4.287   1.528
 9026TIP3    H127021   3.005   4.193   1.545
 9026TIP3    H227022   2.992   4.296   1.435
 9027TIP3   OH227023   4.569   1.148   2.485
 9027TIP3    H127024   4.517   1.228   2.472
 9027TIP3    H227025   4.596   1.153   2.577
 9028TIP3   OH227026   3.453   3.552   3.091
 9028TIP3    H127027   3.515   3.615   3.128
 9028TIP3    H227028   3.368   3.581   3.123
 9029TIP3   OH227029   4.650   5.645   4.380
 9029TIP3    H127030   4.696   5.702   4.318
 9029TIP3    H227031   4.565   5.629   4.341
 9030TIP3   OH227032   3.416   5.726   5.844
 9030TIP3    H127033   3.460   5.671   5.909
 9030TIP3    H227034   3.418   5.814   5.882
 9031TIP3   OH227035   4.520   4.188   3.930
 9031TIP3    H127036   4.509   4.154   4.019
 9031TIP3    H227037   4.464   4.131   3.876
 9032TIP3   OH227038   4.514   1.028   4.297
 9032TIP3    H127039   4.429   1.054   4.262
 9032TIP3    H227040   4.500   0.938   4.328
 9033TIP3   OH227041   0.888   2.589   2.329
 9033TIP3    H127042   0.953   2.576   2.398
 9033TIP3    H227043   0.927   2.655   2.272
 9034TIP3   OH227044   0.927   2.759   0.792
 9034TIP3    H127045   0.947   2.815   0.718
 9034TIP3    H227046   0.888   2.818   0.857
 9035TIP3   OH227047   7.348   3.970   5.242
 9035TIP3    H127048   7.348   3.887   5.289
 9035TIP3    H227049   7.272   3.963   5.183
 9036TIP3   OH227050   2.918   5.982   4.431
 9036TIP3    H127051   2.917   5.890   4.404
 9036TIP3    H227052   2.827   6.003   4.450
 9037TIP3   OH227053   5.015   6.095   4.596
 9037TIP3    H127054   5.058   6.057   4.673
 9037TIP3    H227055   4.998   6.021   4.539
 9038TIP3   OH227056   5.006   1.658   1.162
 9038TIP3    H127057   5.028   1.728   1.101
 9038TIP3    H227058   5.069   1.668   1.234
 9039TIP3   OH227059   7.119   1.282   5.894
 9039TIP3    H127060   7.152   1.193   5.909
 9039TIP3    H227061   7.191   1.327   5.850
 9040TIP3   OH227062   2.132   0.546   1.313
 9040TIP3    H127063   2.102   0.466   1.271
 9040TIP3    H227064   2.056   0.605   1.309
 9041TIP3   OH227065   3.797   6.536   2.439
 9041TIP3    H127066   3.749   6.503   2.515
 9041TIP3    H227067   3.827   6.622   2.465
 9042TIP3   OH227068   3.537   3.697   1.104
 9042TIP3    H127069   3.630   3.719   1.113
 9042TIP3    H227070   3.492   3.782   1.108
 9043TIP3   OH227071   3.193   3.102   3.557
 9043TIP3    H127072   3.283   3.113   3.590
 9043TIP3    H227073   3.185   3.168   3.488
 9044TIP3   OH227074   7.016   3.335   6.598
 9044TIP3    H127075   6.924   3.308   6.587
 9044TIP3    H227076   7.012   3.409   6.658
 9045TIP3   OH227077   1.361   6.643   3.818
 9045TIP3    H127078   1.353   6.727   3.773
 9045TIP3    H227079   1.273   6.625   3.851
 9046TIP3   OH227080   4.497   2.195   1.256
 9046TIP3    H127081   4.417   2.231   1.294
 9046TIP3    H227082   4.559   2.190   1.329
 9047TIP3   OH227083   4.458   3.879   0.587
 9047TIP3    H127084   4.410   3.956   0.555
 9047TIP3    H227085   4.404   3.805   0.561
 9048TIP3   OH227086   0.912   7.414   4.896
 9048TIP3    H127087   0.847   7.412   4.965
 9048TIP3    H227088   0.961   7.495   4.910
 9049TIP3   OH227089   4.874   2.702   1.885
 9049TIP3    H127090   4.926   2.729   1.809
 9049TIP3    H227091   4.823   2.780   1.907
 9050TIP3   OH227092   2.217   5.695   2.918
 9050TIP3    H127093   2.171   5.637   2.979
 9050TIP3    H227094   2.213   5.781   2.960
 9051TIP3   OH227095   2.581   5.119   2.431
 9051TIP3    H127096   2.522   5.189   2.460
 9051TIP3    H227097   2.559   5.045   2.488
 9052TIP3   OH227098   1.018   1.500   3.247
 9052TIP3    H127099   1.100   1.465   3.210
 9052TIP3    H227100   0.968   1.423   3.272
 9053TIP3   OH227101   4.017   5.216   4.228
 9053TIP3    H127102   3.987   5.136   4.183
 9053TIP3    H227103   3.978   5.210   4.315
 9054TIP3   OH227104   2.427   5.309   2.601
 9054TIP3    H127105   2.467   5.320   2.687
 9054TIP3    H227106   2.357   5.245   2.616
 9055TIP3   OH227107   7.941   1.285   4.974
 9055TIP3    H127108   7.979   1.347   5.036
 9055TIP3    H227109   7.867   1.247   5.021
 9056TIP3   OH227110   2.076   5.733   3.754
 9056TIP3    H127111   2.030   5.654   3.726
 9056TIP3    H227112   2.120   5.765   3.674
 9057TIP3   OH227113   2.627   4.477   0.541
 9057TIP3    H127114   2.683   4.412   0.499
 9057TIP3    H227115   2.583   4.521   0.469
 9058TIP3   OH227116   4.130   2.499   4.347
 9058TIP3    H127117   4.173   2.420   4.314
 9058TIP3    H227118   4.062   2.467   4.407
 9059TIP3   OH227119   1.520   4.601   0.038
 9059TIP3    H127120   1.514   4.520   0.089
 9059TIP3    H227121   1.429   4.624   0.019
 9060TIP3   OH227122   4.698   6.059   3.442
 9060TIP3    H127123   4.650   6.142   3.432
 9060TIP3    H227124   4.765   6.063   3.374
 9061TIP3   OH227125   7.739   4.398   4.378
 9061TIP3    H127126   7.764   4.338   4.449
 9061TIP3    H227127   7.723   4.341   4.303
 9062TIP3   OH227128   3.334   0.714   1.906
 9062TIP3    H127129   3.294   0.687   1.823
 9062TIP3    H227130   3.263   0.707   1.970
 9063TIP3   OH227131   2.504   3.381   1.735
 9063TIP3    H127132   2.474   3.350   1.820
 9063TIP3    H227133   2.450   3.458   1.716
 9064TIP3   OH227134   3.247   4.559   2.685
 9064TIP3    H127135   3.318   4.494   2.691
 9064TIP3    H227136   3.204   4.554   2.770
 9065TIP3   OH227137   1.165   7.450   3.650
 9065TIP3    H127138   1.139   7.450   3.742
 9065TIP3    H227139   1.204   7.536   3.636
 9066TIP3   OH227140   5.336   1.070   3.545
 9066TIP3    H127141   5.390   1.053   3.622
 9066TIP3    H227142   5.246   1.073   3.578
 9067TIP3   OH227143   1.537   1.039   0.115
 9067TIP3    H127144   1.502   1.125   0.091
 9067TIP3    H227145   1.556   1.047   0.209
 9068TIP3   OH227146  -0.023   6.372   3.454
 9068TIP3    H127147   0.026   6.324   3.520
 9068TIP3    H227148  -0.027   6.314   3.378
 9069TIP3   OH227149   1.130   6.366   0.555
 9069TIP3    H127150   1.199   6.318   0.601
 9069TIP3    H227151   1.167   6.452   0.537
 9070TIP3   OH227152   3.713   1.612   1.106
 9070TIP3    H127153   3.782   1.666   1.068
 9070TIP3    H227154   3.642   1.617   1.043
 9071TIP3   OH227155   4.120   4.581   2.480
 9071TIP3    H127156   4.057   4.637   2.435
 9071TIP3    H227157   4.187   4.641   2.512
 9072TIP3   OH227158   5.340   4.106   2.869
 9072TIP3    H127159   5.433   4.101   2.847
 9072TIP3    H227160   5.331   4.053   2.948
 9073TIP3   OH227161   7.902   7.274   3.072
 9073TIP3    H127162   7.945   7.232   3.146
 9073TIP3    H227163   7.936   7.227   2.995
 9074TIP3   OH227164   1.885   3.975   0.965
 9074TIP3    H127165   1.908   3.883   0.951
 9074TIP3    H227166   1.957   4.024   0.927
 9075TIP3   OH227167   7.301   3.884   6.210
 9075TIP3    H127168   7.293   3.830   6.132
 9075TIP3    H227169   7.250   3.963   6.191
 9076TIP3   OH227170   1.209   3.612   3.598
 9076TIP3    H127171   1.183   3.691   3.645
 9076TIP3    H227172   1.146   3.546   3.626
 9077TIP3   OH227173   1.938   4.497   0.303
 9077TIP3    H127174   1.850   4.469   0.281
 9077TIP3    H227175   1.977   4.522   0.219
 9078TIP3   OH227176   0.266   6.728   4.112
 9078TIP3    H127177   0.292   6.743   4.203
 9078TIP3    H227178   0.225   6.641   4.113
 9079TIP3   OH227179   0.631   5.793   1.620
 9079TIP3    H127180   0.696   5.855   1.651
 9079TIP3    H227181   0.630   5.804   1.525
 9080TIP3   OH227182   6.340   4.330   2.340
 9080TIP3    H127183   6.338   4.403   2.402
 9080TIP3    H227184   6.422   4.284   2.360
 9081TIP3   OH227185   6.416   0.488   0.069
 9081TIP3    H127186   6.362   0.421   0.111
 9081TIP3    H227187   6.375   0.571   0.094
 9082TIP3   OH227188   5.122   1.266   1.879
 9082TIP3    H127189   5.035   1.261   1.920
 9082TIP3    H227190   5.121   1.348   1.831
 9083TIP3   OH227191   1.693   3.755   1.264
 9083TIP3    H127192   1.626   3.701   1.306
 9083TIP3    H227193   1.757   3.773   1.332
 9084TIP3   OH227194   7.851   0.792   2.739
 9084TIP3    H127195   7.760   0.781   2.765
 9084TIP3    H227196   7.899   0.731   2.796
 9085TIP3   OH227197   6.689   4.461   2.556
 9085TIP3    H127198   6.743   4.496   2.627
 9085TIP3    H227199   6.750   4.451   2.483
 9086TIP3   OH227200   0.246   7.488   6.212
 9086TIP3    H127201   0.228   7.581   6.202
 9086TIP3    H227202   0.255   7.475   6.306
 9087TIP3   OH227203   2.243   7.421   1.025
 9087TIP3    H127204   2.200   7.384   0.947
 9087TIP3    H227205   2.336   7.410   1.008
 9088TIP3   OH227206   1.845   6.948   5.959
 9088TIP3    H127207   1.931   6.989   5.952
 9088TIP3    H227208   1.789   7.015   5.999
 9089TIP3   OH227209   6.863   0.135   2.991
 9089TIP3    H127210   6.926   0.195   2.951
 9089TIP3    H227211   6.809   0.105   2.918
 9090TIP3   OH227212   6.656   5.937   3.875
 9090TIP3    H127213   6.577   5.989   3.860
 9090TIP3    H227214   6.724   6.002   3.893
 9091TIP3   OH227215   2.308   1.758   0.771
 9091TIP3    H127216   2.240   1.819   0.744
 9091TIP3    H227217   2.264   1.673   0.777
 9092TIP3   OH227218   6.162   0.381   1.976
 9092TIP3    H127219   6.181   0.469   1.942
 9092TIP3    H227220   6.223   0.370   2.049
 9093TIP3   OH227221   7.314   6.452   0.157
 9093TIP3    H127222   7.399   6.425   0.125
 9093TIP3    H227223   7.311   6.547   0.141
 9094TIP3   OH227224   5.457   2.884   4.253
 9094TIP3    H127225   5.383   2.862   4.309
 9094TIP3    H227226   5.450   2.979   4.239
 9095TIP3   OH227227   5.960   4.808   6.412
 9095TIP3    H127228   6.005   4.885   6.447
 9095TIP3    H227229   5.885   4.796   6.470
 9096TIP3   OH227230   3.079   0.986   1.374
 9096TIP3    H127231   3.034   1.068   1.394
 9096TIP3    H227232   3.126   1.004   1.293
 9097TIP3   OH227233   1.038   7.736   6.205
 9097TIP3    H127234   1.099   7.740   6.279
 9097TIP3    H227235   1.044   7.822   6.164
 9098TIP3   OH227236   3.775   0.340   0.691
 9098TIP3    H127237   3.712   0.391   0.639
 9098TIP3    H227238   3.841   0.313   0.627
 9099TIP3   OH227239   1.410   3.424   3.888
 9099TIP3    H127240   1.364   3.392   3.965
 9099TIP3    H227241   1.409   3.520   3.898
 9100TIP3   OH227242   4.240   3.698   0.500
 9100TIP3    H127243   4.196   3.706   0.415
 9100TIP3    H227244   4.218   3.610   0.530
 9101TIP3   OH227245   1.140   4.039   1.761
 9101TIP3    H127246   1.184   3.965   1.718
 9101TIP3    H227247   1.047   4.024   1.743
 9102TIP3   OH227248   6.383   0.767   1.224
 9102TIP3    H127249   6.448   0.708   1.262
 9102TIP3    H227250   6.435   0.829   1.173
 9103TIP3   OH227251   1.476   2.465   3.949
 9103TIP3    H127252   1.471   2.383   3.900
 9103TIP3    H227253   1.546   2.514   3.906
 9104TIP3   OH227254   1.932   5.813   5.010
 9104TIP3    H127255   1.845   5.773   5.018
 9104TIP3    H227256   1.916   5.907   5.021
 9105TIP3   OH227257   2.398   6.254   2.053
 9105TIP3    H127258   2.326   6.239   1.992
 9105TIP3    H227259   2.426   6.166   2.079
 9106TIP3   OH227260   3.308   6.790   4.635
 9106TIP3    H127261   3.215   6.795   4.611
 9106TIP3    H227262   3.338   6.707   4.599
 9107TIP3   OH227263   7.161   3.919   2.398
 9107TIP3    H127264   7.249   3.896   2.426
 9107TIP3    H227265   7.114   3.936   2.480
 9108TIP3   OH227266   1.511   4.107   4.646
 9108TIP3    H127267   1.491   4.127   4.555
 9108TIP3    H227268   1.453   4.034   4.668
 9109TIP3   OH227269   1.465   0.131   0.725
 9109TIP3    H127270   1.486   0.037   0.722
 9109TIP3    H227271   1.420   0.148   0.643
 9110TIP3   OH227272   0.168   0.273   5.597
 9110TIP3    H127273   0.262   0.290   5.592
 9110TIP3    H227274   0.157   0.218   5.674
 9111TIP3   OH227275   6.811   2.626   1.919
 9111TIP3    H127276   6.830   2.712   1.883
 9111TIP3    H227277   6.841   2.631   2.010
 9112TIP3   OH227278   5.030   5.461   0.514
 9112TIP3    H127279   5.098   5.474   0.581
 9112TIP3    H227280   5.031   5.367   0.497
 9113TIP3   OH227281   5.682   6.683   0.087
 9113TIP3    H127282   5.732   6.704   0.166
 9113TIP3    H227283   5.746   6.688   0.016
 9114TIP3   OH227284   4.856   5.352   6.031
 9114TIP3    H127285   4.885   5.308   5.951
 9114TIP3    H227286   4.761   5.354   6.024
 9115TIP3   OH227287   4.361   2.561   3.707
 9115TIP3    H127288   4.406   2.551   3.791
 9115TIP3    H227289   4.414   2.510   3.645
 9116TIP3   OH227290   5.185   7.126   1.536
 9116TIP3    H127291   5.212   7.190   1.602
 9116TIP3    H227292   5.190   7.174   1.453
 9117TIP3   OH227293   2.806   7.100   3.588
 9117TIP3    H127294   2.784   7.016   3.629
 9117TIP3    H227295   2.734   7.115   3.526
 9118TIP3   OH227296   6.859   4.437   3.943
 9118TIP3    H127297   6.887   4.346   3.932
 9118TIP3    H227298   6.917   4.487   3.886
 9119TIP3   OH227299   7.402   4.574   2.973
 9119TIP3    H127300   7.409   4.668   2.990
 9119TIP3    H227301   7.467   4.535   3.031
 9120TIP3   OH227302   6.850   2.688   5.388
 9120TIP3    H127303   6.926   2.632   5.399
 9120TIP3    H227304   6.883   2.765   5.342
 9121TIP3   OH227305   0.970   3.823   5.683
 9121TIP3    H127306   0.967   3.918   5.692
 9121TIP3    H227307   0.980   3.791   5.773
 9122TIP3   OH227308   4.780   4.941   6.306
 9122TIP3    H127309   4.790   4.938   6.401
 9122TIP3    H227310   4.856   4.991   6.275
 9123TIP3   OH227311   0.297   6.937   3.570
 9123TIP3    H127312   0.366   6.874   3.551
 9123TIP3    H227313   0.236   6.928   3.497
 9124TIP3   OH227314   2.933   0.939   4.656
 9124TIP3    H127315   3.006   0.895   4.700
 9124TIP3    H227316   2.963   1.029   4.643
 9125TIP3   OH227317   6.674   1.420   5.851
 9125TIP3    H127318   6.713   1.366   5.782
 9125TIP3    H227319   6.670   1.508   5.813
 9126TIP3   OH227320   4.231   5.777   2.558
 9126TIP3    H127321   4.305   5.801   2.614
 9126TIP3    H227322   4.230   5.681   2.559
 9127TIP3   OH227323   0.520   6.607   0.851
 9127TIP3    H127324   0.498   6.533   0.907
 9127TIP3    H227325   0.492   6.580   0.763
 9128TIP3   OH227326   1.161   2.704   3.306
 9128TIP3    H127327   1.086   2.653   3.275
 9128TIP3    H227328   1.176   2.769   3.238
 9129TIP3   OH227329   1.445   1.829   5.457
 9129TIP3    H127330   1.532   1.841   5.495
 9129TIP3    H227331   1.398   1.910   5.480
 9130TIP3   OH227332   7.839   7.215   1.014
 9130TIP3    H127333   7.865   7.276   1.083
 9130TIP3    H227334   7.913   7.154   1.008
 9131TIP3   OH227335   8.249   5.580   0.484
 9131TIP3    H127336   8.179   5.544   0.539
 9131TIP3    H227337   8.325   5.524   0.503
 9132TIP3   OH227338   5.419   2.154   0.691
 9132TIP3    H127339   5.460   2.079   0.648
 9132TIP3    H227340   5.327   2.130   0.699
 9133TIP3   OH227341   5.395   6.168   3.245
 9133TIP3    H127342   5.373   6.239   3.306
 9133TIP3    H227343   5.407   6.091   3.301
 9134TIP3   OH227344   0.603   4.626   5.821
 9134TIP3    H127345   0.537   4.585   5.766
 9134TIP3    H227346   0.560   4.703   5.857
 9135TIP3   OH227347   3.209   6.118   3.905
 9135TIP3    H127348   3.274   6.051   3.927
 9135TIP3    H227349   3.206   6.175   3.983
 9136TIP3   OH227350   3.721   2.367   6.629
 9136TIP3    H127351   3.752   2.304   6.564
 9136TIP3    H227352   3.751   2.331   6.712
 9137TIP3   OH227353   4.385   5.486   5.486
 9137TIP3    H127354   4.457   5.500   5.424
 9137TIP3    H227355   4.339   5.410   5.453
 9138TIP3   OH227356   6.278   4.188   2.046
 9138TIP3    H127357   6.249   4.134   2.120
 9138TIP3    H227358   6.287   4.126   1.973
 9139TIP3   OH227359   5.668   7.429   5.039
 9139TIP3    H127360   5.717   7.438   5.121
 9139TIP3    H227361   5.675   7.514   4.997
 9140TIP3   OH227362   4.450   7.360   1.880
 9140TIP3    H127363   4.383   7.306   1.838
 9140TIP3    H227364   4.433   7.352   1.973
 9141TIP3   OH227365   7.858   1.386   6.272
 9141TIP3    H127366   7.878   1.417   6.361
 9141TIP3    H227367   7.809   1.305   6.286
 9142TIP3   OH227368   2.525   6.321   4.516
 9142TIP3    H127369   2.544   6.409   4.548
 9142TIP3    H227370   2.543   6.325   4.422
 9143TIP3   OH227371   5.756   4.012   5.169
 9143TIP3    H127372   5.728   4.008   5.077
 9143TIP3    H227373   5.809   3.933   5.181
 9144TIP3   OH227374   7.194   3.879   1.967
 9144TIP3    H127375   7.158   3.860   2.054
 9144TIP3    H227376   7.289   3.877   1.979
 9145TIP3   OH227377   2.241   7.731   5.725
 9145TIP3    H127378   2.162   7.716   5.674
 9145TIP3    H227379   2.255   7.650   5.774
 9146TIP3   OH227380   6.154   2.521   3.624
 9146TIP3    H127381   6.094   2.518   3.549
 9146TIP3    H227382   6.134   2.603   3.668
 9147TIP3   OH227383   6.770   2.602   6.710
 9147TIP3    H127384   6.821   2.546   6.652
 9147TIP3    H227385   6.822   2.682   6.718
 9148TIP3   OH227386   0.701   6.173   5.141
 9148TIP3    H127387   0.635   6.166   5.072
 9148TIP3    H227388   0.665   6.236   5.203
 9149TIP3   OH227389   6.122   6.375   5.890
 9149TIP3    H127390   6.180   6.305   5.861
 9149TIP3    H227391   6.181   6.441   5.926
 9150TIP3   OH227392   1.831   2.040   6.214
 9150TIP3    H127393   1.820   2.036   6.119
 9150TIP3    H227394   1.763   2.101   6.243
 9151TIP3   OH227395   1.071   5.562   3.550
 9151TIP3    H127396   0.980   5.584   3.528
 9151TIP3    H227397   1.102   5.638   3.600
 9152TIP3   OH227398   3.276   0.588   5.853
 9152TIP3    H127399   3.344   0.655   5.840
 9152TIP3    H227400   3.250   0.563   5.765
 9153TIP3   OH227401   0.589   5.996   0.123
 9153TIP3    H127402   0.669   5.978   0.173
 9153TIP3    H227403   0.518   5.975   0.183
 9154TIP3   OH227404   4.173   0.228   6.360
 9154TIP3    H127405   4.213   0.181   6.433
 9154TIP3    H227406   4.224   0.309   6.354
 9155TIP3   OH227407   4.464   1.156   5.590
 9155TIP3    H127408   4.531   1.135   5.655
 9155TIP3    H227409   4.395   1.091   5.605
 9156TIP3   OH227410   0.511   3.825   0.219
 9156TIP3    H127411   0.534   3.914   0.192
 9156TIP3    H227412   0.591   3.791   0.259
 9157TIP3   OH227413   4.936   7.755   3.391
 9157TIP3    H127414   4.905   7.846   3.386
 9157TIP3    H227415   4.880   7.707   3.330
 9158TIP3   OH227416   2.584   4.567   3.523
 9158TIP3    H127417   2.532   4.631   3.573
 9158TIP3    H227418   2.673   4.578   3.556
 9159TIP3   OH227419   5.685   0.918   6.625
 9159TIP3    H127420   5.622   0.860   6.580
 9159TIP3    H227421   5.727   0.862   6.690
 9160TIP3   OH227422   5.531   0.590   6.138
 9160TIP3    H127423   5.574   0.507   6.158
 9160TIP3    H227424   5.542   0.601   6.044
 9161TIP3   OH227425   2.312   6.195   5.098
 9161TIP3    H127426   2.374   6.265   5.076
 9161TIP3    H227427   2.358   6.142   5.164
 9162TIP3   OH227428   7.450   7.817   4.674
 9162TIP3    H127429   7.444   7.863   4.590
 9162TIP3    H227430   7.502   7.739   4.655
 9163TIP3   OH227431   2.494   0.442   4.256
 9163TIP3    H127432   2.541   0.516   4.216
 9163TIP3    H227433   2.545   0.421   4.334
 9164TIP3   OH227434   6.838   1.854   0.701
 9164TIP3    H127435   6.872   1.927   0.649
 9164TIP3    H227436   6.846   1.883   0.792
 9165TIP3   OH227437   5.843   4.741   2.038
 9165TIP3    H127438   5.934   4.720   2.015
 9165TIP3    H227439   5.840   4.734   2.134
 9166TIP3   OH227440   6.298   1.118   3.912
 9166TIP3    H127441   6.336   1.184   3.970
 9166TIP3    H227442   6.206   1.113   3.939
 9167TIP3   OH227443   6.115   6.898   0.962
 9167TIP3    H127444   6.148   6.895   1.052
 9167TIP3    H227445   6.162   6.971   0.922
 9168TIP3   OH227446   3.965   6.228   3.244
 9168TIP3    H127447   3.992   6.286   3.173
 9168TIP3    H227448   4.047   6.202   3.286
 9169TIP3   OH227449   4.080   7.794   2.349
 9169TIP3    H127450   4.110   7.865   2.291
 9169TIP3    H227451   3.988   7.816   2.367
 9170TIP3   OH227452   1.504   4.152   3.819
 9170TIP3    H127453   1.410   4.150   3.836
 9170TIP3    H227454   1.521   4.240   3.785
 9171TIP3   OH227455   5.083   2.264   3.590
 9171TIP3    H127456   5.113   2.244   3.679
 9171TIP3    H227457   5.075   2.179   3.548
 9172TIP3   OH227458   3.838   4.583   0.374
 9172TIP3    H127459   3.780   4.547   0.441
 9172TIP3    H227460   3.796   4.663   0.344
 9173TIP3   OH227461   1.515   3.857   6.162
 9173TIP3    H127462   1.607   3.881   6.170
 9173TIP3    H227463   1.486   3.898   6.080
 9174TIP3   OH227464   1.376   5.739   4.976
 9174TIP3    H127465   1.407   5.792   5.050
 9174TIP3    H227466   1.292   5.704   5.005
 9175TIP3   OH227467   6.665   1.933   4.705
 9175TIP3    H127468   6.703   1.978   4.629
 9175TIP3    H227469   6.643   1.846   4.673
 9176TIP3   OH227470   7.285   6.287   0.937
 9176TIP3    H127471   7.288   6.360   0.874
 9176TIP3    H227472   7.240   6.217   0.890
 9177TIP3   OH227473   4.877   6.896   5.525
 9177TIP3    H127474   4.971   6.890   5.543
 9177TIP3    H227475   4.872   6.934   5.437
 9178TIP3   OH227476   4.010   4.371   1.865
 9178TIP3    H127477   3.946   4.309   1.830
 9178TIP3    H227478   3.959   4.429   1.921
 9179TIP3   OH227479   6.944   4.915   0.316
 9179TIP3    H127480   6.910   4.911   0.227
 9179TIP3    H227481   6.872   4.954   0.367
 9180TIP3   OH227482   7.441   6.526   2.845
 9180TIP3    H127483   7.464   6.437   2.871
 9180TIP3    H227484   7.351   6.519   2.813
 9181TIP3   OH227485   3.540   2.206   1.287
 9181TIP3    H127486   3.611   2.182   1.347
 9181TIP3    H227487   3.575   2.281   1.237
 9182TIP3   OH227488   0.282   3.354   0.369
 9182TIP3    H127489   0.290   3.349   0.274
 9182TIP3    H227490   0.214   3.291   0.392
 9183TIP3   OH227491   0.698   1.899   4.053
 9183TIP3    H127492   0.670   1.897   3.962
 9183TIP3    H227493   0.794   1.894   4.049
 9184TIP3   OH227494   2.201   5.100   3.860
 9184TIP3    H127495   2.192   5.020   3.912
 9184TIP3    H227496   2.256   5.074   3.786
 9185TIP3   OH227497   8.312   2.063   4.033
 9185TIP3    H127498   8.281   2.086   3.946
 9185TIP3    H227499   8.309   2.145   4.082
 9186TIP3   OH227500   4.438   2.520   3.982
 9186TIP3    H127501   4.474   2.585   4.041
 9186TIP3    H227502   4.497   2.445   3.991
 9187TIP3   OH227503   8.181   2.726   3.440
 9187TIP3    H127504   8.096   2.764   3.466
 9187TIP3    H227505   8.169   2.632   3.449
 9188TIP3   OH227506   8.101   2.263   2.534
 9188TIP3    H127507   8.032   2.207   2.498
 9188TIP3    H227508   8.162   2.202   2.576
 9189TIP3   OH227509   2.085   5.280   4.032
 9189TIP3    H127510   2.037   5.217   4.085
 9189TIP3    H227511   2.117   5.229   3.958
 9190TIP3   OH227512   4.084   6.442   3.112
 9190TIP3    H127513   4.038   6.425   3.029
 9190TIP3    H227514   4.165   6.485   3.086
 9191TIP3   OH227515   1.407   4.767   6.759
 9191TIP3    H127516   1.457   4.750   6.679
 9191TIP3    H227517   1.317   4.746   6.735
 9192TIP3   OH227518   5.554   3.105   5.896
 9192TIP3    H127519   5.642   3.137   5.876
 9192TIP3    H227520   5.547   3.114   5.991
 9193TIP3   OH227521   1.710   6.744   3.988
 9193TIP3    H127522   1.792   6.778   3.953
 9193TIP3    H227523   1.691   6.799   4.064
 9194TIP3   OH227524   5.608   1.405   1.283
 9194TIP3    H127525   5.642   1.385   1.196
 9194TIP3    H227526   5.685   1.431   1.334
 9195TIP3   OH227527   2.534   3.221   0.756
 9195TIP3    H127528   2.517   3.128   0.740
 9195TIP3    H227529   2.530   3.230   0.851
 9196TIP3   OH227530   5.885   1.922   1.612
 9196TIP3    H127531   5.813   1.916   1.675
 9196TIP3    H227532   5.843   1.913   1.527
 9197TIP3   OH227533   3.467   2.716   1.025
 9197TIP3    H127534   3.383   2.673   1.038
 9197TIP3    H227535   3.449   2.809   1.042
 9198TIP3   OH227536   8.181   1.276   6.177
 9198TIP3    H127537   8.239   1.263   6.252
 9198TIP3    H227538   8.147   1.364   6.187
 9199TIP3   OH227539   8.112   4.959   6.386
 9199TIP3    H127540   8.075   5.022   6.448
 9199TIP3    H227541   8.161   5.013   6.324
 9200TIP3   OH227542   7.406   4.334   3.674
 9200TIP3    H127543   7.322   4.348   3.629
 9200TIP3    H227544   7.442   4.422   3.684
 9201TIP3   OH227545   1.724   0.355   3.079
 9201TIP3    H127546   1.643   0.305   3.071
 9201TIP3    H227547   1.770   0.316   3.153
 9202TIP3   OH227548   5.280   0.775   5.935
 9202TIP3    H127549   5.284   0.716   6.011
 9202TIP3    H227550   5.248   0.858   5.971
 9203TIP3   OH227551   4.962   4.257   0.327
 9203TIP3    H127552   4.945   4.169   0.294
 9203TIP3    H227553   4.920   4.259   0.413
 9204TIP3   OH227554   1.502   6.569   1.658
 9204TIP3    H127555   1.584   6.618   1.661
 9204TIP3    H227556   1.470   6.570   1.748
 9205TIP3   OH227557   6.477   6.446   3.026
 9205TIP3    H127558   6.561   6.450   3.073
 9205TIP3    H227559   6.502   6.451   2.934
 9206TIP3   OH227560   2.307   2.387   1.583
 9206TIP3    H127561   2.300   2.437   1.502
 9206TIP3    H227562   2.317   2.296   1.555
 9207TIP3   OH227563   2.541   2.706   5.747
 9207TIP3    H127564   2.624   2.666   5.721
 9207TIP3    H227565   2.500   2.731   5.664
 9208TIP3   OH227566   3.011   5.874   3.800
 9208TIP3    H127567   2.930   5.824   3.787
 9208TIP3    H227568   2.982   5.965   3.804
 9209TIP3   OH227569   6.618   3.784   0.353
 9209TIP3    H127570   6.555   3.793   0.424
 9209TIP3    H227571   6.696   3.831   0.383
 9210TIP3   OH227572   7.068   0.389   3.359
 9210TIP3    H127573   7.131   0.354   3.422
 9210TIP3    H227574   6.996   0.421   3.414
 9211TIP3   OH227575   4.804   2.885   2.214
 9211TIP3    H127576   4.863   2.811   2.230
 9211TIP3    H227577   4.757   2.861   2.135
 9212TIP3   OH227578   0.250   1.818   2.016
 9212TIP3    H127579   0.313   1.867   2.068
 9212TIP3    H227580   0.215   1.752   2.076
 9213TIP3   OH227581   5.997   4.921   4.582
 9213TIP3    H127582   6.036   5.007   4.600
 9213TIP3    H227583   6.022   4.902   4.491
 9214TIP3   OH227584   3.882   7.286   4.246
 9214TIP3    H127585   3.925   7.219   4.300
 9214TIP3    H227586   3.789   7.268   4.255
 9215TIP3   OH227587   3.648   4.909   4.827
 9215TIP3    H127588   3.709   4.836   4.840
 9215TIP3    H227589   3.696   4.971   4.772
 9216TIP3   OH227590   7.286   0.111   5.792
 9216TIP3    H127591   7.221   0.068   5.737
 9216TIP3    H227592   7.370   0.092   5.749
 9217TIP3   OH227593   3.754   6.648   5.591
 9217TIP3    H127594   3.786   6.559   5.581
 9217TIP3    H227595   3.667   6.648   5.552
 9218TIP3   OH227596   2.027   7.628   5.581
 9218TIP3    H127597   2.054   7.555   5.526
 9218TIP3    H227598   1.934   7.638   5.563
 9219TIP3   OH227599   2.123   7.292   0.811
 9219TIP3    H127600   2.049   7.234   0.793
 9219TIP3    H227601   2.200   7.237   0.799
 9220TIP3   OH227602   6.632   2.737   6.435
 9220TIP3    H127603   6.578   2.782   6.500
 9220TIP3    H227604   6.612   2.644   6.448
 9221TIP3   OH227605   7.006   7.114   0.523
 9221TIP3    H127606   6.918   7.077   0.531
 9221TIP3    H227607   7.034   7.128   0.614
 9222TIP3   OH227608   4.303   2.469   5.308
 9222TIP3    H127609   4.208   2.471   5.304
 9222TIP3    H227610   4.325   2.495   5.397
 9223TIP3   OH227611   6.851   2.968   3.612
 9223TIP3    H127612   6.851   2.914   3.691
 9223TIP3    H227613   6.943   2.991   3.598
 9224TIP3   OH227614   7.677   6.696   3.166
 9224TIP3    H127615   7.660   6.669   3.076
 9224TIP3    H227616   7.648   6.787   3.169
 9225TIP3   OH227617   5.671   6.221   6.100
 9225TIP3    H127618   5.607   6.173   6.048
 9225TIP3    H227619   5.623   6.246   6.179
 9226TIP3   OH227620   3.141   4.175   5.306
 9226TIP3    H127621   3.199   4.243   5.272
 9226TIP3    H227622   3.198   4.120   5.361
 9227TIP3   OH227623   5.174   3.405   3.591
 9227TIP3    H127624   5.250   3.384   3.644
 9227TIP3    H227625   5.207   3.466   3.525
 9228TIP3   OH227626   3.859   0.422   5.237
 9228TIP3    H127627   3.813   0.418   5.154
 9228TIP3    H227628   3.818   0.354   5.291
 9229TIP3   OH227629   1.282   3.203   1.880
 9229TIP3    H127630   1.344   3.274   1.892
 9229TIP3    H227631   1.300   3.143   1.953
 9230TIP3   OH227632   3.434   4.503   3.066
 9230TIP3    H127633   3.421   4.440   2.995
 9230TIP3    H227634   3.519   4.478   3.105
 9231TIP3   OH227635   1.273   2.748   1.806
 9231TIP3    H127636   1.214   2.823   1.803
 9231TIP3    H227637   1.299   2.734   1.715
 9232TIP3   OH227638   2.083   2.175   5.936
 9232TIP3    H127639   2.000   2.219   5.955
 9232TIP3    H227640   2.084   2.166   5.841
 9233TIP3   OH227641   0.085   3.847   5.478
 9233TIP3    H127642   0.020   3.834   5.547
 9233TIP3    H227643   0.070   3.936   5.447
 9234TIP3   OH227644   0.815   3.697   2.709
 9234TIP3    H127645   0.768   3.760   2.655
 9234TIP3    H227646   0.847   3.631   2.647
 9235TIP3   OH227647   2.059   0.460   4.588
 9235TIP3    H127648   1.969   0.453   4.621
 9235TIP3    H227649   2.071   0.554   4.572
 9236TIP3   OH227650   7.707   6.236   6.660
 9236TIP3    H127651   7.641   6.297   6.694
 9236TIP3    H227652   7.772   6.230   6.729
 9237TIP3   OH227653   2.323   1.515   1.224
 9237TIP3    H127654   2.291   1.451   1.161
 9237TIP3    H227655   2.326   1.597   1.174
 9238TIP3   OH227656   4.944   3.802   6.689
 9238TIP3    H127657   4.915   3.749   6.615
 9238TIP3    H227658   4.919   3.751   6.766
 9239TIP3   OH227659   5.283   5.668   1.849
 9239TIP3    H127660   5.338   5.594   1.874
 9239TIP3    H227661   5.335   5.716   1.786
 9240TIP3   OH227662   4.958   3.851   2.845
 9240TIP3    H127663   5.048   3.835   2.815
 9240TIP3    H227664   4.922   3.763   2.860
 9241TIP3   OH227665   2.987   3.320   0.853
 9241TIP3    H127666   2.976   3.413   0.837
 9241TIP3    H227667   2.964   3.278   0.771
 9242TIP3   OH227668   6.976   0.990   1.334
 9242TIP3    H127669   7.067   0.979   1.307
 9242TIP3    H227670   6.926   0.939   1.270
 9243TIP3   OH227671   8.293   3.920   1.128
 9243TIP3    H127672   8.210   3.897   1.171
 9243TIP3    H227673   8.270   3.993   1.070
 9244TIP3   OH227674   6.327   0.192   4.927
 9244TIP3    H127675   6.271   0.128   4.884
 9244TIP3    H227676   6.334   0.264   4.865
 9245TIP3   OH227677   4.309   3.522   0.218
 9245TIP3    H127678   4.310   3.565   0.133
 9245TIP3    H227679   4.232   3.558   0.262
 9246TIP3   OH227680   4.521   2.456   0.597
 9246TIP3    H127681   4.604   2.476   0.642
 9246TIP3    H227682   4.541   2.378   0.546
 9247TIP3   OH227683   2.558   3.727   2.036
 9247TIP3    H127684   2.481   3.774   2.003
 9247TIP3    H227685   2.524   3.672   2.107
 9248TIP3   OH227686   3.545   5.261   4.649
 9248TIP3    H127687   3.540   5.342   4.597
 9248TIP3    H227688   3.581   5.290   4.733
 9249TIP3   OH227689   7.904   2.641   4.002
 9249TIP3    H127690   7.857   2.695   3.938
 9249TIP3    H227691   7.976   2.697   4.033
 9250TIP3   OH227692   7.842   3.048   5.699
 9250TIP3    H127693   7.881   2.991   5.766
 9250TIP3    H227694   7.917   3.078   5.647
 9251TIP3   OH227695   0.448   5.177   3.289
 9251TIP3    H127696   0.464   5.083   3.278
 9251TIP3    H227697   0.378   5.197   3.227
 9252TIP3   OH227698   1.351   5.486   5.933
 9252TIP3    H127699   1.293   5.487   5.857
 9252TIP3    H227700   1.439   5.477   5.896
 9253TIP3   OH227701   0.935   6.678   0.800
 9253TIP3    H127702   0.883   6.713   0.872
 9253TIP3    H227703   1.020   6.659   0.839
 9254TIP3   OH227704   3.090   7.395   5.222
 9254TIP3    H127705   3.115   7.366   5.310
 9254TIP3    H227706   3.024   7.462   5.237
 9255TIP3   OH227707   3.712   5.229   1.835
 9255TIP3    H127708   3.652   5.248   1.763
 9255TIP3    H227709   3.780   5.175   1.796
 9256TIP3   OH227710   8.172   3.893   6.475
 9256TIP3    H127711   8.220   3.814   6.453
 9256TIP3    H227712   8.156   3.936   6.392
 9257TIP3   OH227713   1.540   3.895   1.095
 9257TIP3    H127714   1.542   3.851   1.010
 9257TIP3    H227715   1.613   3.858   1.144
 9258TIP3   OH227716   6.343   0.684   3.790
 9258TIP3    H127717   6.424   0.735   3.795
 9258TIP3    H227718   6.344   0.646   3.702
 9259TIP3   OH227719   7.134   5.908   6.014
 9259TIP3    H127720   7.184   5.846   5.962
 9259TIP3    H227721   7.200   5.968   6.049
 9260TIP3   OH227722   1.156   1.964   6.510
 9260TIP3    H127723   1.173   2.035   6.449
 9260TIP3    H227724   1.240   1.949   6.555
 9261TIP3   OH227725   7.700   1.424   5.116
 9261TIP3    H127726   7.744   1.387   5.192
 9261TIP3    H227727   7.680   1.514   5.141
 9262TIP3   OH227728   4.404   2.901   2.372
 9262TIP3    H127729   4.428   2.894   2.465
 9262TIP3    H227730   4.335   2.836   2.360
 9263TIP3   OH227731   5.748   1.902   4.844
 9263TIP3    H127732   5.824   1.904   4.903
 9263TIP3    H227733   5.710   1.989   4.851
 9264TIP3   OH227734   6.833   0.541   3.495
 9264TIP3    H127735   6.768   0.609   3.474
 9264TIP3    H227736   6.876   0.573   3.574
 9265TIP3   OH227737   3.313   2.178   0.765
 9265TIP3    H127738   3.391   2.214   0.724
 9265TIP3    H227739   3.333   2.177   0.859
 9266TIP3   OH227740   4.733   7.069   2.710
 9266TIP3    H127741   4.788   7.007   2.758
 9266TIP3    H227742   4.755   7.056   2.618
 9267TIP3   OH227743   6.225   7.295   2.817
 9267TIP3    H127744   6.267   7.222   2.861
 9267TIP3    H227745   6.273   7.372   2.847
 9268TIP3   OH227746   2.346   3.433   3.546
 9268TIP3    H127747   2.340   3.470   3.458
 9268TIP3    H227748   2.264   3.460   3.588
 9269TIP3   OH227749   2.463   6.968   4.444
 9269TIP3    H127750   2.521   6.982   4.519
 9269TIP3    H227751   2.401   6.902   4.474
 9270TIP3   OH227752   6.250   3.687   5.994
 9270TIP3    H127753   6.264   3.594   6.011
 9270TIP3    H227754   6.191   3.716   6.064
 9271TIP3   OH227755   5.297   1.441   0.184
 9271TIP3    H127756   5.206   1.413   0.191
 9271TIP3    H227757   5.292   1.536   0.173
 9272TIP3   OH227758   5.211   7.675   5.352
 9272TIP3    H127759   5.188   7.683   5.260
 9272TIP3    H227760   5.279   7.740   5.366
 9273TIP3   OH227761   6.960   3.380   2.435
 9273TIP3    H127762   6.979   3.453   2.494
 9273TIP3    H227763   7.028   3.386   2.367
 9274TIP3   OH227764   2.190   5.749   6.636
 9274TIP3    H127765   2.189   5.803   6.715
 9274TIP3    H227766   2.097   5.739   6.613
 9275TIP3   OH227767   0.039   6.372   3.854
 9275TIP3    H127768   0.107   6.410   3.798
 9275TIP3    H227769  -0.042   6.383   3.804
 9276TIP3   OH227770   0.886   6.199   6.021
 9276TIP3    H127771   0.819   6.253   6.063
 9276TIP3    H227772   0.874   6.112   6.059
 9277TIP3   OH227773   7.569   6.484   0.624
 9277TIP3    H127774   7.556   6.389   0.620
 9277TIP3    H227775   7.565   6.513   0.533
 9278TIP3   OH227776   1.860   0.996   5.426
 9278TIP3    H127777   1.848   1.004   5.521
 9278TIP3    H227778   1.775   1.021   5.390
 9279TIP3   OH227779   1.585   1.115   2.126
 9279TIP3    H127780   1.593   1.165   2.207
 9279TIP3    H227781   1.560   1.179   2.060
 9280TIP3   OH227782   3.304   0.144   2.491
 9280TIP3    H127783   3.232   0.191   2.533
 9280TIP3    H227784   3.294   0.162   2.398
 9281TIP3   OH227785   7.274   5.079   5.430
 9281TIP3    H127786   7.302   5.066   5.521
 9281TIP3    H227787   7.340   5.138   5.393
 9282TIP3   OH227788   4.471   5.100   2.803
 9282TIP3    H127789   4.384   5.070   2.777
 9282TIP3    H227790   4.457   5.189   2.835
 9283TIP3   OH227791   2.274   3.045   1.432
 9283TIP3    H127792   2.230   3.130   1.436
 9283TIP3    H227793   2.352   3.057   1.486
 9284TIP3   OH227794   2.882   0.157   1.902
 9284TIP3    H127795   2.926   0.221   1.958
 9284TIP3    H227796   2.790   0.183   1.902
 9285TIP3   OH227797   4.928   0.208   2.225
 9285TIP3    H127798   4.966   0.295   2.208
 9285TIP3    H227799   4.901   0.176   2.139
 9286TIP3   OH227800   3.515   3.237   0.162
 9286TIP3    H127801   3.554   3.235   0.249
 9286TIP3    H227802   3.473   3.151   0.152
 9287TIP3   OH227803   5.966   6.275   0.588
 9287TIP3    H127804   5.882   6.230   0.601
 9287TIP3    H227805   5.942   6.360   0.550
 9288TIP3   OH227806   7.693   1.791   4.569
 9288TIP3    H127807   7.772   1.751   4.604
 9288TIP3    H227808   7.687   1.758   4.479
 9289TIP3   OH227809   3.112   4.599   2.909
 9289TIP3    H127810   3.051   4.527   2.895
 9289TIP3    H227811   3.113   4.612   3.003
 9290TIP3   OH227812   6.832   7.377   3.308
 9290TIP3    H127813   6.902   7.334   3.259
 9290TIP3    H227814   6.778   7.305   3.341
 9291TIP3   OH227815   3.170   1.227   1.633
 9291TIP3    H127816   3.175   1.159   1.701
 9291TIP3    H227817   3.083   1.215   1.594
 9292TIP3   OH227818   7.428   2.779   3.866
 9292TIP3    H127819   7.485   2.791   3.942
 9292TIP3    H227820   7.339   2.788   3.900
 9293TIP3   OH227821   0.271   4.002   6.544
 9293TIP3    H127822   0.206   3.996   6.474
 9293TIP3    H227823   0.304   4.091   6.538
 9294TIP3   OH227824   1.845   3.527   6.104
 9294TIP3    H127825   1.784   3.565   6.041
 9294TIP3    H227826   1.875   3.446   6.063
 9295TIP3   OH227827   1.652   2.472   5.336
 9295TIP3    H127828   1.599   2.543   5.374
 9295TIP3    H227829   1.691   2.428   5.411
 9296TIP3   OH227830   4.583   3.269   0.505
 9296TIP3    H127831   4.515   3.289   0.569
 9296TIP3    H227832   4.583   3.173   0.498
 9297TIP3   OH227833   4.393   3.239   0.097
 9297TIP3    H127834   4.307   3.205   0.123
 9297TIP3    H227835   4.416   3.302   0.166
 9298TIP3   OH227836   6.898   6.747   4.162
 9298TIP3    H127837   6.827   6.783   4.216
 9298TIP3    H227838   6.936   6.678   4.216
 9299TIP3   OH227839   4.707   4.594   0.708
 9299TIP3    H127840   4.634   4.600   0.647
 9299TIP3    H227841   4.702   4.505   0.743
 9300TIP3   OH227842   1.822   4.886   3.363
 9300TIP3    H127843   1.808   4.920   3.275
 9300TIP3    H227844   1.837   4.964   3.417
 9301TIP3   OH227845   1.882   0.733   2.959
 9301TIP3    H127846   1.841   0.808   3.002
 9301TIP3    H227847   1.971   0.761   2.938
 9302TIP3   OH227848   0.771   0.788   1.292
 9302TIP3    H127849   0.724   0.720   1.243
 9302TIP3    H227850   0.747   0.870   1.249
 9303TIP3   OH227851   5.979   6.215   2.046
 9303TIP3    H127852   6.059   6.171   2.072
 9303TIP3    H227853   5.926   6.147   2.005
 9304TIP3   OH227854   3.441   6.577   2.542
 9304TIP3    H127855   3.524   6.539   2.571
 9304TIP3    H227856   3.378   6.505   2.546
 9305TIP3   OH227857   4.499   4.960   5.484
 9305TIP3    H127858   4.503   4.880   5.431
 9305TIP3    H227859   4.426   5.010   5.446
 9306TIP3   OH227860   6.985   4.595   4.801
 9306TIP3    H127861   7.005   4.534   4.872
 9306TIP3    H227862   6.890   4.609   4.807
 9307TIP3   OH227863   4.081   1.599   1.999
 9307TIP3    H127864   4.054   1.508   2.013
 9307TIP3    H227865   4.016   1.635   1.939
 9308TIP3   OH227866   3.123   5.634   1.467
 9308TIP3    H127867   3.172   5.715   1.478
 9308TIP3    H227868   3.188   5.571   1.435
 9309TIP3   OH227869   1.538   5.445   4.088
 9309TIP3    H127870   1.558   5.429   4.180
 9309TIP3    H227871   1.448   5.414   4.078
 9310TIP3   OH227872   8.073   2.244   1.674
 9310TIP3    H127873   8.136   2.172   1.678
 9310TIP3    H227874   8.053   2.265   1.765
 9311TIP3   OH227875   5.109   6.602   6.040
 9311TIP3    H127876   5.167   6.644   6.104
 9311TIP3    H227877   5.031   6.580   6.090
 9312TIP3   OH227878   0.412   0.258   6.119
 9312TIP3    H127879   0.324   0.298   6.125
 9312TIP3    H227880   0.422   0.236   6.027
 9313TIP3   OH227881   3.696   1.702   0.762
 9313TIP3    H127882   3.734   1.709   0.849
 9313TIP3    H227883   3.605   1.729   0.772
 9314TIP3   OH227884   6.717   6.430   3.300
 9314TIP3    H127885   6.762   6.451   3.218
 9314TIP3    H227886   6.676   6.513   3.326
 9315TIP3   OH227887   6.678   0.844   1.258
 9315TIP3    H127888   6.652   0.758   1.223
 9315TIP3    H227889   6.708   0.893   1.181
 9316TIP3   OH227890   2.174   0.714   2.929
 9316TIP3    H127891   2.239   0.649   2.958
 9316TIP3    H227892   2.157   0.692   2.838
 9317TIP3   OH227893   3.352   5.522   1.341
 9317TIP3    H127894   3.414   5.590   1.365
 9317TIP3    H227895   3.360   5.514   1.246
 9318TIP3   OH227896   6.363   7.230   4.104
 9318TIP3    H127897   6.285   7.177   4.120
 9318TIP3    H227898   6.363   7.296   4.173
 9319TIP3   OH227899   7.440   7.085   2.616
 9319TIP3    H127900   7.447   7.008   2.673
 9319TIP3    H227901   7.439   7.048   2.527
 9320TIP3   OH227902   1.070   0.741   6.659
 9320TIP3    H127903   1.146   0.701   6.699
 9320TIP3    H227904   1.076   0.718   6.566
 9321TIP3   OH227905   4.224   7.534   1.290
 9321TIP3    H127906   4.231   7.568   1.201
 9321TIP3    H227907   4.289   7.464   1.295
 9322TIP3   OH227908   3.741   5.961   4.200
 9322TIP3    H127909   3.698   6.023   4.140
 9322TIP3    H227910   3.670   5.904   4.229
 9323TIP3   OH227911   4.641   7.486   6.299
 9323TIP3    H127912   4.669   7.402   6.336
 9323TIP3    H227913   4.666   7.551   6.365
 9324TIP3   OH227914   2.287   5.747   6.050
 9324TIP3    H127915   2.209   5.787   6.089
 9324TIP3    H227916   2.285   5.656   6.082
 9325TIP3   OH227917   6.262   4.220   4.971
 9325TIP3    H127918   6.237   4.152   5.035
 9325TIP3    H227919   6.206   4.294   4.993
 9326TIP3   OH227920   0.357   2.906   5.045
 9326TIP3    H127921   0.319   2.818   5.046
 9326TIP3    H227922   0.447   2.892   5.014
 9327TIP3   OH227923   0.236   1.868   2.643
 9327TIP3    H127924   0.280   1.931   2.587
 9327TIP3    H227925   0.282   1.873   2.727
 9328TIP3   OH227926   6.597   3.706   4.640
 9328TIP3    H127927   6.676   3.682   4.591
 9328TIP3    H227928   6.625   3.778   4.696
 9329TIP3   OH227929   4.556   2.648   4.396
 9329TIP3    H127930   4.568   2.569   4.448
 9329TIP3    H227931   4.625   2.707   4.424
 9330TIP3   OH227932   3.747   2.429   6.320
 9330TIP3    H127933   3.841   2.435   6.308
 9330TIP3    H227934   3.733   2.345   6.364
 9331TIP3   OH227935   8.028   4.606   5.125
 9331TIP3    H127936   8.033   4.698   5.151
 9331TIP3    H227937   8.111   4.590   5.078
 9332TIP3   OH227938   8.013   0.113   6.441
 9332TIP3    H127939   7.998   0.021   6.420
 9332TIP3    H227940   8.108   0.124   6.436
 9333TIP3   OH227941   6.831   6.757   6.527
 9333TIP3    H127942   6.810   6.665   6.513
 9333TIP3    H227943   6.761   6.805   6.483
 9334TIP3   OH227944   1.131   3.459   1.318
 9334TIP3    H127945   1.057   3.473   1.377
 9334TIP3    H227946   1.153   3.546   1.286
 9335TIP3   OH227947   6.899   0.040   1.682
 9335TIP3    H127948   6.883   0.036   1.588
 9335TIP3    H227949   6.818   0.007   1.722
 9336TIP3   OH227950   5.568   5.116   5.085
 9336TIP3    H127951   5.517   5.078   5.156
 9336TIP3    H227952   5.651   5.141   5.126
 9337TIP3   OH227953   2.545   4.854   1.113
 9337TIP3    H127954   2.601   4.851   1.036
 9337TIP3    H227955   2.597   4.902   1.178
 9338TIP3   OH227956   0.339   4.354   0.720
 9338TIP3    H127957   0.318   4.386   0.632
 9338TIP3    H227958   0.324   4.259   0.714
 9339TIP3   OH227959   7.064   7.779   5.610
 9339TIP3    H127960   6.969   7.787   5.611
 9339TIP3    H227961   7.091   7.819   5.527
 9340TIP3   OH227962   1.238   1.076   1.581
 9340TIP3    H127963   1.237   1.033   1.495
 9340TIP3    H227964   1.203   1.010   1.641
 9341TIP3   OH227965   6.347   6.773   5.889
 9341TIP3    H127966   6.435   6.741   5.866
 9341TIP3    H227967   6.298   6.693   5.908
 9342TIP3   OH227968   0.527   4.906   3.294
 9342TIP3    H127969   0.611   4.862   3.299
 9342TIP3    H227970   0.484   4.885   3.377
 9343TIP3   OH227971   3.135   5.482   0.661
 9343TIP3    H127972   3.115   5.472   0.754
 9343TIP3    H227973   3.155   5.575   0.650
 9344TIP3   OH227974   6.519   4.030   0.029
 9344TIP3    H127975   6.577   3.955   0.037
 9344TIP3    H227976   6.523   4.073   0.114
 9345TIP3   OH227977   3.879   3.313   6.012
 9345TIP3    H127978   3.915   3.398   6.038
 9345TIP3    H227979   3.810   3.295   6.076
 9346TIP3   OH227980   6.729   6.391   6.230
 9346TIP3    H127981   6.661   6.416   6.292
 9346TIP3    H227982   6.734   6.296   6.237
 9347TIP3   OH227983   7.559   3.474   4.154
 9347TIP3    H127984   7.510   3.402   4.115
 9347TIP3    H227985   7.609   3.434   4.224
 9348TIP3   OH227986   6.163   1.523   0.926
 9348TIP3    H127987   6.141   1.513   0.834
 9348TIP3    H227988   6.203   1.439   0.950
 9349TIP3   OH227989   0.886   2.597   6.355
 9349TIP3    H127990   0.976   2.602   6.388
 9349TIP3    H227991   0.882   2.663   6.287
 9350TIP3   OH227992   7.949   6.974   4.617
 9350TIP3    H127993   7.863   6.965   4.657
 9350TIP3    H227994   7.956   6.900   4.558
 9351TIP3   OH227995   5.451   7.309   6.325
 9351TIP3    H127996   5.387   7.361   6.277
 9351TIP3    H227997   5.476   7.364   6.399
 9352TIP3   OH227998   2.207   4.894   5.705
 9352TIP3    H127999   2.175   4.984   5.707
 9352TIP3    H228000   2.283   4.895   5.763
 9353TIP3   OH228001   1.022   4.177   3.960
 9353TIP3    H128002   0.960   4.108   3.939
 9353TIP3    H228003   0.970   4.243   4.007
 9354TIP3   OH228004   5.578   6.936   4.778
 9354TIP3    H128005   5.651   6.884   4.743
 9354TIP3    H228006   5.519   6.871   4.817
 9355TIP3   OH228007   6.222   2.383   0.671
 9355TIP3    H128008   6.137   2.338   0.679
 9355TIP3    H228009   6.266   2.339   0.598
 9356TIP3   OH228010   5.261   4.244   6.748
 9356TIP3    H128011   5.261   4.326   6.698
 9356TIP3    H228012   5.346   4.205   6.729
 9357TIP3   OH228013   0.874   2.183   5.538
 9357TIP3    H128014   0.918   2.265   5.515
 9357TIP3    H228015   0.783   2.197   5.511
 9358TIP3   OH228016   0.962   3.905   4.746
 9358TIP3    H128017   1.025   3.913   4.674
 9358TIP3    H228018   0.916   3.988   4.746
 9359TIP3   OH228019   1.047   0.329   5.053
 9359TIP3    H128020   1.135   0.336   5.088
 9359TIP3    H228021   1.037   0.237   5.029
 9360TIP3   OH228022   7.827   5.255   2.991
 9360TIP3    H128023   7.784   5.285   3.071
 9360TIP3    H228024   7.889   5.325   2.970
 9361TIP3   OH228025   6.292   1.598   6.726
 9361TIP3    H128026   6.310   1.593   6.819
 9361TIP3    H228027   6.214   1.653   6.719
 9362TIP3   OH228028   7.750   5.394   3.916
 9362TIP3    H128029   7.725   5.406   3.824
 9362TIP3    H228030   7.829   5.447   3.926
 9363TIP3   OH228031   4.748   3.865   3.356
 9363TIP3    H128032   4.767   3.875   3.449
 9363TIP3    H228033   4.687   3.936   3.335
 9364TIP3   OH228034   2.362   6.062   3.983
 9364TIP3    H128035   2.362   6.061   4.078
 9364TIP3    H228036   2.432   6.002   3.958
 9365TIP3   OH228037   8.226   2.258   0.969
 9365TIP3    H128038   8.198   2.218   0.887
 9365TIP3    H228039   8.147   2.262   1.022
 9366TIP3   OH228040   2.333   2.169   1.129
 9366TIP3    H128041   2.316   2.116   1.207
 9366TIP3    H228042   2.265   2.143   1.067
 9367TIP3   OH228043   4.100   6.422   2.527
 9367TIP3    H128044   4.033   6.367   2.487
 9367TIP3    H228045   4.116   6.382   2.612
 9368TIP3   OH228046   4.708   2.974   5.751
 9368TIP3    H128047   4.694   2.904   5.814
 9368TIP3    H228048   4.803   2.983   5.746
 9369TIP3   OH228049   3.572   3.505   0.497
 9369TIP3    H128050   3.520   3.550   0.430
 9369TIP3    H228051   3.510   3.490   0.569
 9370TIP3   OH228052   4.164   5.166   6.095
 9370TIP3    H128053   4.176   5.105   6.168
 9370TIP3    H228054   4.117   5.116   6.029
 9371TIP3   OH228055   4.228   6.023   5.580
 9371TIP3    H128056   4.273   5.999   5.661
 9371TIP3    H228057   4.211   5.939   5.536
 9372TIP3   OH228058   2.132   3.776   4.374
 9372TIP3    H128059   2.072   3.832   4.422
 9372TIP3    H228060   2.164   3.713   4.439
 9373TIP3   OH228061   3.843   2.571   0.164
 9373TIP3    H128062   3.891   2.641   0.208
 9373TIP3    H228063   3.778   2.542   0.228
 9374TIP3   OH228064   3.959   0.760   3.597
 9374TIP3    H128065   4.029   0.809   3.639
 9374TIP3    H228066   4.005   0.699   3.538
 9375TIP3   OH228067   5.937   6.571   3.443
 9375TIP3    H128068   5.911   6.495   3.495
 9375TIP3    H228069   6.032   6.579   3.458
 9376TIP3   OH228070   5.065   2.694   3.970
 9376TIP3    H128071   4.984   2.677   3.923
 9376TIP3    H228072   5.063   2.632   4.043
 9377TIP3   OH228073   0.392   2.657   3.686
 9377TIP3    H128074   0.367   2.749   3.688
 9377TIP3    H228075   0.407   2.635   3.778
 9378TIP3   OH228076   0.362   1.130   4.921
 9378TIP3    H128077   0.296   1.070   4.886
 9378TIP3    H228078   0.377   1.192   4.849
 9379TIP3   OH228079   1.397   7.136   4.685
 9379TIP3    H128080   1.335   7.098   4.748
 9379TIP3    H228081   1.480   7.093   4.704
 9380TIP3   OH228082   2.676   4.509   2.099
 9380TIP3    H128083   2.725   4.430   2.121
 9380TIP3    H228084   2.588   4.478   2.079
 9381TIP3   OH228085   1.426   2.865   5.363
 9381TIP3    H128086   1.486   2.843   5.292
 9381TIP3    H228087   1.425   2.960   5.365
 9382TIP3   OH228088   3.774   7.623   2.867
 9382TIP3    H128089   3.694   7.671   2.890
 9382TIP3    H228090   3.742   7.542   2.827
 9383TIP3   OH228091   2.143   6.450   5.326
 9383TIP3    H128092   2.091   6.513   5.375
 9383TIP3    H228093   2.144   6.372   5.381
 9384TIP3   OH228094   5.466   3.462   6.646
 9384TIP3    H128095   5.493   3.392   6.587
 9384TIP3    H228096   5.371   3.454   6.651
 9385TIP3   OH228097   7.003   4.027   6.436
 9385TIP3    H128098   7.086   4.031   6.388
 9385TIP3    H228099   6.974   4.118   6.441
 9386TIP3   OH228100   6.085   0.039   1.476
 9386TIP3    H128101   6.067   0.127   1.445
 9386TIP3    H228102   6.090   0.047   1.571
 9387TIP3   OH228103   3.688   2.408   3.992
 9387TIP3    H128104   3.773   2.369   3.971
 9387TIP3    H228105   3.706   2.464   4.068
 9388TIP3   OH228106   8.233   3.168   5.761
 9388TIP3    H128107   8.271   3.151   5.847
 9388TIP3    H228108   8.156   3.221   5.779
 9389TIP3   OH228109   0.953   7.723   3.077
 9389TIP3    H128110   0.902   7.762   3.148
 9389TIP3    H228111   0.948   7.787   3.006
 9390TIP3   OH228112   6.891   5.938   6.110
 9390TIP3    H128113   6.879   5.888   6.191
 9390TIP3    H228114   6.979   5.915   6.081
 9391TIP3   OH228115   3.333   5.807   1.490
 9391TIP3    H128116   3.424   5.782   1.505
 9391TIP3    H228117   3.336   5.902   1.476
 9392TIP3   OH228118   5.196   7.706   4.604
 9392TIP3    H128119   5.253   7.629   4.612
 9392TIP3    H228120   5.221   7.762   4.677
 9393TIP3   OH228121   1.380   7.007   6.012
 9393TIP3    H128122   1.438   7.073   6.050
 9393TIP3    H228123   1.362   7.039   5.924
 9394TIP3   OH228124   5.199   6.504   3.612
 9394TIP3    H128125   5.253   6.500   3.691
 9394TIP3    H228126   5.220   6.589   3.573
 9395TIP3   OH228127   1.546   0.860   0.697
 9395TIP3    H128128   1.542   0.902   0.783
 9395TIP3    H228129   1.635   0.824   0.691
 9396TIP3   OH228130   8.053   4.405   6.710
 9396TIP3    H128131   8.125   4.393   6.648
 9396TIP3    H228132   8.010   4.319   6.715
 9397TIP3   OH228133   7.806   5.603   4.825
 9397TIP3    H128134   7.762   5.602   4.909
 9397TIP3    H228135   7.899   5.615   4.846
 9398TIP3   OH228136   2.111   3.579   6.506
 9398TIP3    H128137   2.103   3.577   6.411
 9398TIP3    H228138   2.198   3.543   6.524
 9399TIP3   OH228139   8.098   1.642   3.303
 9399TIP3    H128140   8.161   1.574   3.278
 9399TIP3    H228141   8.100   1.643   3.399
 9400TIP3   OH228142   2.530   7.177   6.082
 9400TIP3    H128143   2.461   7.163   6.147
 9400TIP3    H228144   2.548   7.089   6.047
 9401TIP3   OH228145   4.293   0.975   6.401
 9401TIP3    H128146   4.212   1.001   6.445
 9401TIP3    H228147   4.342   0.926   6.467
 9402TIP3   OH228148   0.459   4.120   0.964
 9402TIP3    H128149   0.365   4.125   0.943
 9402TIP3    H228150   0.499   4.086   0.884
 9403TIP3   OH228151   4.282   3.041   2.669
 9403TIP3    H128152   4.366   2.997   2.654
 9403TIP3    H228153   4.218   2.990   2.620
 9404TIP3   OH228154   7.482   3.884   3.335
 9404TIP3    H128155   7.553   3.906   3.276
 9404TIP3    H228156   7.466   3.791   3.320
 9405TIP3   OH228157   5.635   0.625   3.949
 9405TIP3    H128158   5.576   0.583   3.886
 9405TIP3    H228159   5.612   0.586   4.033
 9406TIP3   OH228160   2.886   3.491   1.111
 9406TIP3    H128161   2.852   3.402   1.117
 9406TIP3    H228162   2.822   3.545   1.157
 9407TIP3   OH228163   0.931   6.405   3.422
 9407TIP3    H128164   1.010   6.404   3.476
 9407TIP3    H228165   0.926   6.316   3.385
 9408TIP3   OH228166   3.813   1.968   4.267
 9408TIP3    H128167   3.899   1.947   4.301
 9408TIP3    H228168   3.829   1.998   4.178
 9409TIP3   OH228169   4.708   1.283   1.256
 9409TIP3    H128170   4.669   1.198   1.277
 9409TIP3    H228171   4.635   1.335   1.221
 9410TIP3   OH228172   3.227   6.293   0.191
 9410TIP3    H128173   3.264   6.208   0.165
 9410TIP3    H228174   3.274   6.356   0.136
 9411TIP3   OH228175   0.751   1.876   3.783
 9411TIP3    H128176   0.837   1.885   3.823
 9411TIP3    H228177   0.756   1.929   3.703
 9412TIP3   OH228178   4.056   4.391   5.578
 9412TIP3    H128179   4.040   4.302   5.547
 9412TIP3    H228180   3.977   4.414   5.627
 9413TIP3   OH228181   4.996   0.365   0.808
 9413TIP3    H128182   5.058   0.294   0.787
 9413TIP3    H228183   5.031   0.405   0.887
 9414TIP3   OH228184   4.449   1.390   4.447
 9414TIP3    H128185   4.394   1.313   4.434
 9414TIP3    H228186   4.538   1.355   4.458
 9415TIP3   OH228187  -0.032   6.880   0.450
 9415TIP3    H128188   0.044   6.840   0.492
 9415TIP3    H228189  -0.002   6.967   0.425
 9416TIP3   OH228190   1.090   6.576   1.835
 9416TIP3    H128191   1.144   6.625   1.773
 9416TIP3    H228192   1.120   6.604   1.921
 9417TIP3   OH228193   4.336   6.358   5.369
 9417TIP3    H128194   4.420   6.368   5.413
 9417TIP3    H228195   4.272   6.387   5.434
 9418TIP3   OH228196   1.413   7.760   1.887
 9418TIP3    H128197   1.383   7.849   1.906
 9418TIP3    H228198   1.473   7.739   1.959
 9419TIP3   OH228199   1.272   5.405   2.208
 9419TIP3    H128200   1.250   5.323   2.253
 9419TIP3    H228201   1.321   5.376   2.130
 9420TIP3   OH228202   0.312   1.974   3.791
 9420TIP3    H128203   0.325   1.956   3.884
 9420TIP3    H228204   0.322   1.889   3.749
 9421TIP3   OH228205   6.882   7.632  -0.020
 9421TIP3    H128206   6.963   7.643   0.030
 9421TIP3    H228207   6.903   7.666  -0.107
 9422TIP3   OH228208   3.720   7.331   2.827
 9422TIP3    H128209   3.741   7.240   2.810
 9422TIP3    H228210   3.637   7.329   2.874
 9423TIP3   OH228211   3.198   1.540   1.753
 9423TIP3    H128212   3.184   1.498   1.668
 9423TIP3    H228213   3.136   1.613   1.754
 9424TIP3   OH228214   2.714   3.516   5.084
 9424TIP3    H128215   2.799   3.472   5.095
 9424TIP3    H228216   2.734   3.596   5.037
 9425TIP3   OH228217   5.975   6.674   4.823
 9425TIP3    H128218   5.990   6.660   4.730
 9425TIP3    H228219   5.998   6.591   4.864
 9426TIP3   OH228220   6.575   4.168   3.445
 9426TIP3    H128221   6.515   4.106   3.404
 9426TIP3    H228222   6.650   4.115   3.472
 9427TIP3   OH228223   0.804   2.611   4.417
 9427TIP3    H128224   0.729   2.561   4.384
 9427TIP3    H228225   0.769   2.658   4.493
 9428TIP3   OH228226   4.549   0.012   1.218
 9428TIP3    H128227   4.603   0.091   1.205
 9428TIP3    H228228   4.597  -0.040   1.281
 9429TIP3   OH228229   6.840   5.250   2.067
 9429TIP3    H128230   6.920   5.301   2.079
 9429TIP3    H228231   6.818   5.217   2.154
 9430TIP3   OH228232   1.841   5.982   5.312
 9430TIP3    H128233   1.819   6.029   5.232
 9430TIP3    H228234   1.936   5.989   5.318
 9431TIP3   OH228235   1.370   4.562   6.340
 9431TIP3    H128236   1.380   4.475   6.379
 9431TIP3    H228237   1.324   4.546   6.257
 9432TIP3   OH228238   4.013   3.537   5.780
 9432TIP3    H128239   3.949   3.568   5.843
 9432TIP3    H228240   4.097   3.544   5.825
 9433TIP3   OH228241   3.078   3.784   2.804
 9433TIP3    H128242   3.038   3.729   2.870
 9433TIP3    H228243   3.092   3.868   2.848
 9434TIP3   OH228244   4.209   2.471   0.537
 9434TIP3    H128245   4.264   2.496   0.612
 9434TIP3    H228246   4.227   2.378   0.524
 9435TIP3   OH228247   3.919   4.975   3.351
 9435TIP3    H128248   3.924   4.961   3.256
 9435TIP3    H228249   3.881   5.062   3.360
 9436TIP3   OH228250   4.055   5.640   4.323
 9436TIP3    H128251   4.028   5.729   4.299
 9436TIP3    H228252   4.097   5.650   4.408
 9437TIP3   OH228253   8.117   6.387   0.698
 9437TIP3    H128254   8.045   6.445   0.673
 9437TIP3    H228255   8.192   6.446   0.710
 9438TIP3   OH228256   3.546   4.719   3.684
 9438TIP3    H128257   3.634   4.699   3.653
 9438TIP3    H228258   3.553   4.716   3.779
 9439TIP3   OH228259   4.438   5.458   3.076
 9439TIP3    H128260   4.413   5.380   3.125
 9439TIP3    H228261   4.486   5.425   3.000
 9440TIP3   OH228262   2.005   2.879   2.951
 9440TIP3    H128263   2.011   2.857   2.858
 9440TIP3    H228264   1.914   2.906   2.962
 9441TIP3   OH228265   8.277   5.039   3.335
 9441TIP3    H128266   8.183   5.021   3.342
 9441TIP3    H228267   8.289   5.067   3.244
 9442TIP3   OH228268   2.887   1.708   6.341
 9442TIP3    H128269   2.899   1.672   6.429
 9442TIP3    H228270   2.872   1.631   6.286
 9443TIP3   OH228271   6.550   2.602   0.196
 9443TIP3    H128272   6.456   2.601   0.210
 9443TIP3    H228273   6.570   2.515   0.162
 9444TIP3   OH228274   4.824   7.802   1.517
 9444TIP3    H128275   4.846   7.876   1.460
 9444TIP3    H228276   4.824   7.726   1.459
 9445TIP3   OH228277   5.746   4.192   1.244
 9445TIP3    H128278   5.714   4.106   1.219
 9445TIP3    H228279   5.695   4.253   1.191
 9446TIP3   OH228280   7.516   2.776   5.021
 9446TIP3    H128281   7.525   2.718   4.945
 9446TIP3    H228282   7.492   2.717   5.092
 9447TIP3   OH228283   4.584   1.935   5.589
 9447TIP3    H128284   4.489   1.932   5.588
 9447TIP3    H228285   4.611   1.852   5.627
 9448TIP3   OH228286   0.312   1.069   3.763
 9448TIP3    H128287   0.241   1.093   3.822
 9448TIP3    H228288   0.373   1.019   3.817
 9449TIP3   OH228289   8.292   1.370   2.528
 9449TIP3    H128290   8.330   1.318   2.599
 9449TIP3    H228291   8.289   1.309   2.454
 9450TIP3   OH228292   5.850   3.942   0.118
 9450TIP3    H128293   5.852   4.018   0.059
 9450TIP3    H228294   5.935   3.944   0.162
 9451TIP3   OH228295   5.803   4.055   4.271
 9451TIP3    H128296   5.869   3.998   4.231
 9451TIP3    H228297   5.742   3.994   4.313
 9452TIP3   OH228298   1.012   0.164   0.488
 9452TIP3    H128299   1.049   0.092   0.436
 9452TIP3    H228300   0.917   0.154   0.479
 9453TIP3   OH228301   2.394   6.848   5.720
 9453TIP3    H128302   2.355   6.926   5.680
 9453TIP3    H228303   2.389   6.781   5.652
 9454TIP3   OH228304   2.502   6.333   4.956
 9454TIP3    H128305   2.480   6.265   4.893
 9454TIP3    H228306   2.598   6.330   4.961
 9455TIP3   OH228307   3.438   7.825   6.280
 9455TIP3    H128308   3.471   7.756   6.222
 9455TIP3    H228309   3.368   7.783   6.330
 9456TIP3   OH228310   6.578   0.331   6.397
 9456TIP3    H128311   6.655   0.371   6.439
 9456TIP3    H228312   6.571   0.377   6.313
 9457TIP3   OH228313   7.066   2.980   3.289
 9457TIP3    H128314   7.047   2.936   3.372
 9457TIP3    H228315   7.122   2.920   3.241
 9458TIP3   OH228316   4.866   4.624   1.617
 9458TIP3    H128317   4.939   4.620   1.555
 9458TIP3    H228318   4.817   4.543   1.601
 9459TIP3   OH228319   0.603   5.878   4.017
 9459TIP3    H128320   0.585   5.968   3.990
 9459TIP3    H228321   0.561   5.870   4.103
 9460TIP3   OH228322   5.022   3.307   1.979
 9460TIP3    H128323   4.990   3.267   2.060
 9460TIP3    H228324   5.094   3.363   2.008
 9461TIP3   OH228325   6.323   2.709   6.155
 9461TIP3    H128326   6.410   2.684   6.125
 9461TIP3    H228327   6.334   2.797   6.191
 9462TIP3   OH228328   3.347   3.431   0.633
 9462TIP3    H128329   3.269   3.474   0.598
 9462TIP3    H228330   3.329   3.420   0.727
 9463TIP3   OH228331   1.026   5.298   6.075
 9463TIP3    H128332   1.050   5.308   6.167
 9463TIP3    H228333   1.039   5.384   6.037
 9464TIP3   OH228334   6.750   2.821   0.505
 9464TIP3    H128335   6.782   2.838   0.593
 9464TIP3    H228336   6.781   2.894   0.452
 9465TIP3   OH228337   5.553   7.720   3.842
 9465TIP3    H128338   5.634   7.681   3.811
 9465TIP3    H228339   5.517   7.656   3.903
 9466TIP3   OH228340   7.775   3.630   6.574
 9466TIP3    H128341   7.794   3.555   6.517
 9466TIP3    H228342   7.681   3.626   6.589
 9467TIP3   OH228343   3.449   4.560   5.986
 9467TIP3    H128344   3.419   4.638   6.032
 9467TIP3    H228345   3.544   4.572   5.978
 9468TIP3   OH228346   2.405   5.525   4.384
 9468TIP3    H128347   2.438   5.609   4.416
 9468TIP3    H228348   2.311   5.530   4.397
 9469TIP3   OH228349   8.225   7.534   6.347
 9469TIP3    H128350   8.190   7.472   6.282
 9469TIP3    H228351   8.247   7.480   6.422
 9470TIP3   OH228352   8.009   7.697   1.329
 9470TIP3    H128353   7.937   7.760   1.316
 9470TIP3    H228354   8.081   7.749   1.363
 9471TIP3   OH228355   3.553   1.006   0.369
 9471TIP3    H128356   3.513   0.976   0.287
 9471TIP3    H228357   3.644   0.976   0.364
 9472TIP3   OH228358   3.632   4.837   3.114
 9472TIP3    H128359   3.598   4.808   3.199
 9472TIP3    H228360   3.557   4.877   3.070
 9473TIP3   OH228361   6.056   3.500   4.117
 9473TIP3    H128362   6.041   3.595   4.114
 9473TIP3    H228363   6.009   3.466   4.041
 9474TIP3   OH228364   6.929   1.019   3.801
 9474TIP3    H128365   6.946   1.002   3.894
 9474TIP3    H228366   6.869   1.094   3.802
 9475TIP3   OH228367   0.637   4.039   6.565
 9475TIP3    H128368   0.600   3.998   6.643
 9475TIP3    H228369   0.571   4.103   6.538
 9476TIP3   OH228370   2.086   2.613   1.220
 9476TIP3    H128371   2.082   2.642   1.129
 9476TIP3    H228372   2.127   2.526   1.215
 9477TIP3   OH228373   5.174   1.051   3.020
 9477TIP3    H128374   5.132   1.100   3.090
 9477TIP3    H228375   5.182   0.962   3.054
 9478TIP3   OH228376   4.453   3.736   5.733
 9478TIP3    H128377   4.521   3.669   5.723
 9478TIP3    H228378   4.502   3.819   5.739
 9479TIP3   OH228379   3.518   4.981   5.228
 9479TIP3    H128380   3.558   5.005   5.145
 9479TIP3    H228381   3.450   5.047   5.242
 9480TIP3   OH228382   0.545   4.786   3.806
 9480TIP3    H128383   0.558   4.799   3.900
 9480TIP3    H228384   0.471   4.726   3.799
 9481TIP3   OH228385   8.234   2.028   1.710
 9481TIP3    H128386   8.208   1.938   1.729
 9481TIP3    H228387   8.325   2.034   1.737
 9482TIP3   OH228388   5.812   0.917   0.755
 9482TIP3    H128389   5.786   0.973   0.682
 9482TIP3    H228390   5.903   0.893   0.737
 9483TIP3   OH228391   3.318   1.564   2.915
 9483TIP3    H128392   3.396   1.514   2.890
 9483TIP3    H228393   3.348   1.655   2.919
 9484TIP3   OH228394   6.214   4.755   5.554
 9484TIP3    H128395   6.132   4.709   5.571
 9484TIP3    H228396   6.188   4.834   5.506
 9485TIP3   OH228397   2.301   1.962   4.190
 9485TIP3    H128398   2.210   1.992   4.187
 9485TIP3    H228399   2.298   1.875   4.229
 9486TIP3   OH228400   5.556   6.925   3.328
 9486TIP3    H128401   5.477   6.874   3.309
 9486TIP3    H228402   5.617   6.861   3.366
 9487TIP3   OH228403   7.567   5.863   1.084
 9487TIP3    H128404   7.551   5.907   1.001
 9487TIP3    H228405   7.571   5.935   1.148
 9488TIP3   OH228406   7.016   4.280   2.592
 9488TIP3    H128407   6.973   4.363   2.572
 9488TIP3    H228408   7.035   4.284   2.686
 9489TIP3   OH228409   2.359   4.651   0.645
 9489TIP3    H128410   2.377   4.706   0.722
 9489TIP3    H228411   2.313   4.575   0.680
 9490TIP3   OH228412   2.353   3.856   4.630
 9490TIP3    H128413   2.332   3.763   4.623
 9490TIP3    H228414   2.273   3.896   4.663
 9491TIP3   OH228415   1.949   5.057   4.098
 9491TIP3    H128416   1.919   5.069   4.188
 9491TIP3    H228417   1.987   4.969   4.097
 9492TIP3   OH228418   6.296   7.521   5.016
 9492TIP3    H128419   6.237   7.585   4.978
 9492TIP3    H228420   6.317   7.554   5.103
 9493TIP3   OH228421   5.337   1.527   4.131
 9493TIP3    H128422   5.294   1.446   4.158
 9493TIP3    H228423   5.408   1.540   4.194
 9494TIP3   OH228424   3.340   4.303   1.679
 9494TIP3    H128425   3.398   4.324   1.605
 9494TIP3    H228426   3.256   4.340   1.654
 9495TIP3   OH228427   5.530   0.750   2.492
 9495TIP3    H128428   5.567   0.741   2.580
 9495TIP3    H228429   5.468   0.823   2.499
 9496TIP3   OH228430   1.712   0.586   6.437
 9496TIP3    H128431   1.795   0.627   6.463
 9496TIP3    H228432   1.711   0.593   6.341
 9497TIP3   OH228433   3.468   6.152   2.498
 9497TIP3    H128434   3.469   6.140   2.592
 9497TIP3    H228435   3.550   6.112   2.467
 9498TIP3   OH228436   5.847   5.582   0.417
 9498TIP3    H128437   5.906   5.614   0.486
 9498TIP3    H228438   5.762   5.620   0.438
 9499TIP3   OH228439   8.012   5.050   0.924
 9499TIP3    H128440   8.078   4.982   0.915
 9499TIP3    H228441   7.970   5.056   0.838
 9500TIP3   OH228442   5.439   2.726   4.547
 9500TIP3    H128443   5.429   2.639   4.587
 9500TIP3    H228444   5.476   2.708   4.461
 9501TIP3   OH228445   2.968   1.489   5.181
 9501TIP3    H128446   2.994   1.458   5.094
 9501TIP3    H228447   3.039   1.462   5.239
 9502TIP3   OH228448   6.171   5.750   1.966
 9502TIP3    H128449   6.218   5.826   1.932
 9502TIP3    H228450   6.228   5.715   2.034
 9503TIP3   OH228451   6.678   1.530   3.246
 9503TIP3    H128452   6.637   1.604   3.200
 9503TIP3    H228453   6.760   1.515   3.198
 9504TIP3   OH228454   5.362   2.910   3.979
 9504TIP3    H128455   5.273   2.894   4.011
 9504TIP3    H228456   5.417   2.859   4.038
 9505TIP3   OH228457   7.798   1.450   2.280
 9505TIP3    H128458   7.843   1.473   2.361
 9505TIP3    H228459   7.868   1.429   2.219
 9506TIP3   OH228460   6.883   6.738   3.176
 9506TIP3    H128461   6.823   6.812   3.185
 9506TIP3    H228462   6.932   6.757   3.096
 9507TIP3   OH228463   1.739   0.545   5.844
 9507TIP3    H128464   1.803   0.543   5.773
 9507TIP3    H228465   1.667   0.491   5.812
 9508TIP3   OH228466   3.714   6.982   3.443
 9508TIP3    H128467   3.743   6.955   3.356
 9508TIP3    H228468   3.742   7.074   3.450
 9509TIP3   OH228469   1.197   4.711   3.493
 9509TIP3    H128470   1.266   4.733   3.429
 9509TIP3    H228471   1.241   4.655   3.557
 9510TIP3   OH228472   7.464   4.237   0.803
 9510TIP3    H128473   7.535   4.215   0.864
 9510TIP3    H228474   7.386   4.199   0.843
 9511TIP3   OH228475   2.592   6.138   1.380
 9511TIP3    H128476   2.583   6.201   1.309
 9511TIP3    H228477   2.571   6.187   1.459
 9512TIP3   OH228478   4.467   1.781   4.944
 9512TIP3    H128479   4.542   1.727   4.971
 9512TIP3    H228480   4.456   1.843   5.015
 9513TIP3   OH228481   7.165   0.946   3.702
 9513TIP3    H128482   7.144   0.905   3.618
 9513TIP3    H228483   7.082   0.981   3.733
 9514TIP3   OH228484   6.556   0.602   6.535
 9514TIP3    H128485   6.556   0.561   6.449
 9514TIP3    H228486   6.524   0.691   6.520
 9515TIP3   OH228487   5.214   2.727   5.950
 9515TIP3    H128488   5.307   2.702   5.954
 9515TIP3    H228489   5.169   2.647   5.923
 9516TIP3   OH228490   1.636   6.282   0.971
 9516TIP3    H128491   1.703   6.312   1.033
 9516TIP3    H228492   1.652   6.189   0.961
 9517TIP3   OH228493   4.336   2.295   3.171
 9517TIP3    H128494   4.352   2.244   3.092
 9517TIP3    H228495   4.331   2.386   3.140
 9518TIP3   OH228496   8.029   7.111   3.272
 9518TIP3    H128497   8.001   7.090   3.361
 9518TIP3    H228498   8.058   7.028   3.235
 9519TIP3   OH228499   8.066   0.140   1.683
 9519TIP3    H128500   8.143   0.135   1.739
 9519TIP3    H228501   8.100   0.135   1.594
 9520TIP3   OH228502   8.010   6.300   4.318
 9520TIP3    H128503   7.986   6.270   4.406
 9520TIP3    H228504   8.105   6.315   4.323
 9521TIP3   OH228505   4.931   5.397   2.259
 9521TIP3    H128506   4.886   5.480   2.242
 9521TIP3    H228507   4.904   5.340   2.187
 9522TIP3   OH228508   5.068   6.777   3.084
 9522TIP3    H128509   5.119   6.762   3.005
 9522TIP3    H228510   5.007   6.704   3.088
 9523TIP3   OH228511   3.624   7.647   1.072
 9523TIP3    H128512   3.588   7.559   1.059
 9523TIP3    H228513   3.547   7.703   1.080
 9524TIP3   OH228514   5.799   1.493   4.543
 9524TIP3    H128515   5.774   1.450   4.461
 9524TIP3    H228516   5.893   1.508   4.534
 9525TIP3   OH228517   2.539   7.053   5.136
 9525TIP3    H128518   2.482   7.003   5.194
 9525TIP3    H228519   2.614   7.077   5.190
 9526TIP3   OH228520   3.038   4.762   6.162
 9526TIP3    H128521   3.030   4.721   6.075
 9526TIP3    H228522   3.088   4.842   6.145
 9527TIP3   OH228523   3.994   5.095   5.906
 9527TIP3    H128524   3.927   5.129   5.965
 9527TIP3    H228525   3.973   5.134   5.821
 9528TIP3   OH228526   7.688   7.426   2.964
 9528TIP3    H128527   7.769   7.414   3.012
 9528TIP3    H228528   7.622   7.377   3.013
 9529TIP3   OH228529   5.402   6.679   2.605
 9529TIP3    H128530   5.348   6.618   2.655
 9529TIP3    H228531   5.424   6.631   2.524
 9530TIP3   OH228532   7.235   2.384   1.692
 9530TIP3    H128533   7.197   2.313   1.744
 9530TIP3    H228534   7.329   2.379   1.709
 9531TIP3   OH228535   6.441   3.051   5.633
 9531TIP3    H128536   6.507   3.107   5.674
 9531TIP3    H228537   6.476   3.032   5.546
 9532TIP3   OH228538   8.241   6.704   6.029
 9532TIP3    H128539   8.308   6.647   6.068
 9532TIP3    H228540   8.171   6.644   6.003
 9533TIP3   OH228541   0.300   3.592   3.377
 9533TIP3    H128542   0.254   3.535   3.315
 9533TIP3    H228543   0.357   3.646   3.322
 9534TIP3   OH228544   3.300   2.820   4.537
 9534TIP3    H128545   3.251   2.779   4.466
 9534TIP3    H228546   3.336   2.747   4.587
 9535TIP3   OH228547   6.326   6.130   4.910
 9535TIP3    H128548   6.341   6.053   4.965
 9535TIP3    H228549   6.315   6.095   4.822
 9536TIP3   OH228550   0.864   1.783   0.133
 9536TIP3    H128551   0.808   1.757   0.207
 9536TIP3    H228552   0.807   1.835   0.077
 9537TIP3   OH228553   1.643   1.517   3.086
 9537TIP3    H128554   1.650   1.455   3.013
 9537TIP3    H228555   1.675   1.599   3.050
 9538TIP3   OH228556   6.856   0.269   1.420
 9538TIP3    H128557   6.831   0.302   1.334
 9538TIP3    H228558   6.790   0.202   1.440
 9539TIP3   OH228559   0.046   4.527   3.825
 9539TIP3    H128560  -0.006   4.578   3.887
 9539TIP3    H228561   0.042   4.578   3.743
 9540TIP3   OH228562   2.705   7.027   2.996
 9540TIP3    H128563   2.696   6.932   2.995
 9540TIP3    H228564   2.784   7.043   3.048
 9541TIP3   OH228565   3.752   0.973   3.141
 9541TIP3    H128566   3.844   0.946   3.140
 9541TIP3    H228567   3.755   1.067   3.127
 9542TIP3   OH228568   5.956   3.511   1.636
 9542TIP3    H128569   5.901   3.584   1.609
 9542TIP3    H228570   5.982   3.532   1.726
 9543TIP3   OH228571   4.947   6.095   4.151
 9543TIP3    H128572   4.969   6.185   4.127
 9543TIP3    H228573   4.982   6.042   4.079
 9544TIP3   OH228574   1.763   4.332   1.354
 9544TIP3    H128575   1.767   4.241   1.326
 9544TIP3    H228576   1.758   4.382   1.273
 9545TIP3   OH228577   1.344   5.790   5.973
 9545TIP3    H128578   1.420   5.736   5.993
 9545TIP3    H228579   1.293   5.789   6.054
 9546TIP3   OH228580   6.304   3.426   3.844
 9546TIP3    H128581   6.253   3.379   3.910
 9546TIP3    H228582   6.299   3.371   3.766
 9547TIP3   OH228583   1.983   5.999   1.025
 9547TIP3    H128584   2.017   5.989   0.937
 9547TIP3    H228585   2.002   6.090   1.049
 9548TIP3   OH228586   0.451   0.973   2.998
 9548TIP3    H128587   0.487   0.973   3.086
 9548TIP3    H228588   0.388   0.900   2.997
 9549TIP3   OH228589   3.991   3.481   2.366
 9549TIP3    H128590   3.971   3.564   2.410
 9549TIP3    H228591   4.021   3.424   2.437
 9550TIP3   OH228592   4.082   5.951   0.545
 9550TIP3    H128593   4.106   5.861   0.568
 9550TIP3    H228594   4.044   5.987   0.625
 9551TIP3   OH228595   4.551   5.648   6.013
 9551TIP3    H128596   4.580   5.598   6.089
 9551TIP3    H228597   4.505   5.724   6.050
 9552TIP3   OH228598   1.116   3.449   5.589
 9552TIP3    H128599   1.054   3.517   5.562
 9552TIP3    H228600   1.132   3.399   5.509
 9553TIP3   OH228601   4.688   7.179   1.660
 9553TIP3    H128602   4.780   7.156   1.647
 9553TIP3    H228603   4.669   7.151   1.749
 9554TIP3   OH228604   5.635   6.140   6.484
 9554TIP3    H128605   5.599   6.227   6.500
 9554TIP3    H228606   5.727   6.148   6.507
 9555TIP3   OH228607   1.787   3.511   4.958
 9555TIP3    H128608   1.860   3.539   5.014
 9555TIP3    H228609   1.815   3.535   4.869
 9556TIP3   OH228610   4.651   2.457   2.106
 9556TIP3    H128611   4.621   2.470   2.196
 9556TIP3    H228612   4.644   2.543   2.065
 9557TIP3   OH228613   0.999   4.547   6.213
 9557TIP3    H128614   0.941   4.601   6.160
 9557TIP3    H228615   1.085   4.586   6.202
 9558TIP3   OH228616   2.987   7.727   3.509
 9558TIP3    H128617   2.918   7.660   3.508
 9558TIP3    H228618   3.025   7.720   3.597
 9559TIP3   OH228619   4.880   3.797   1.027
 9559TIP3    H128620   4.866   3.868   0.965
 9559TIP3    H228621   4.849   3.719   0.981
 9560TIP3   OH228622   5.421   0.331   1.019
 9560TIP3    H128623   5.350   0.340   1.083
 9560TIP3    H228624   5.498   0.364   1.065
 9561TIP3   OH228625   7.851   4.586   0.447
 9561TIP3    H128626   7.885   4.649   0.510
 9561TIP3    H228627   7.922   4.524   0.435
 9562TIP3   OH228628   0.920   2.416   0.006
 9562TIP3    H128629   0.892   2.374   0.087
 9562TIP3    H228630   0.971   2.491   0.034
 9563TIP3   OH228631   1.456   4.800   6.170
 9563TIP3    H128632   1.468   4.874   6.230
 9563TIP3    H228633   1.485   4.723   6.219
 9564TIP3   OH228634   0.373   5.178   3.909
 9564TIP3    H128635   0.451   5.130   3.937
 9564TIP3    H228636   0.300   5.122   3.934
 9565TIP3   OH228637   3.463   4.835   1.995
 9565TIP3    H128638   3.376   4.797   1.988
 9565TIP3    H228639   3.449   4.930   1.995
 9566TIP3   OH228640   3.354   5.632   6.570
 9566TIP3    H128641   3.443   5.665   6.569
 9566TIP3    H228642   3.350   5.575   6.647
 9567TIP3   OH228643   4.436   4.580   3.672
 9567TIP3    H128644   4.348   4.618   3.671
 9567TIP3    H228645   4.442   4.534   3.756
 9568TIP3   OH228646   2.193   4.912   3.623
 9568TIP3    H128647   2.177   4.844   3.557
 9568TIP3    H228648   2.286   4.930   3.617
 9569TIP3   OH228649   6.318   2.722   5.123
 9569TIP3    H128650   6.359   2.734   5.209
 9569TIP3    H228651   6.319   2.627   5.109
 9570TIP3   OH228652   2.289   4.960   3.107
 9570TIP3    H128653   2.301   4.867   3.128
 9570TIP3    H228654   2.366   4.982   3.055
 9571TIP3   OH228655   7.330   7.776   2.299
 9571TIP3    H128656   7.353   7.706   2.238
 9571TIP3    H228657   7.365   7.749   2.383
 9572TIP3   OH228658   1.774   5.057   1.267
 9572TIP3    H128659   1.750   5.049   1.175
 9572TIP3    H228660   1.870   5.061   1.266
 9573TIP3   OH228661   0.000   6.436   4.961
 9573TIP3    H128662  -0.087   6.413   4.993
 9573TIP3    H228663   0.058   6.422   5.037
 9574TIP3   OH228664   1.470   5.690   0.700
 9574TIP3    H128665   1.448   5.684   0.607
 9574TIP3    H228666   1.552   5.642   0.708
 9575TIP3   OH228667   3.429   5.594   0.473
 9575TIP3    H128668   3.402   5.684   0.456
 9575TIP3    H228669   3.369   5.541   0.420
 9576TIP3   OH228670   2.983   7.418   6.342
 9576TIP3    H128671   3.074   7.389   6.345
 9576TIP3    H228672   2.962   7.421   6.249
 9577TIP3   OH228673   7.447   7.031   4.809
 9577TIP3    H128674   7.437   7.078   4.727
 9577TIP3    H228675   7.536   7.053   4.838
 9578TIP3   OH228676   4.621   3.222   1.968
 9578TIP3    H128677   4.565   3.156   2.009
 9578TIP3    H228678   4.647   3.279   2.039
 9579TIP3   OH228679   8.064   5.058   1.213
 9579TIP3    H128680   8.082   5.145   1.178
 9579TIP3    H228681   8.074   5.068   1.308
 9580TIP3   OH228682   2.526   2.616   6.686
 9580TIP3    H128683   2.541   2.704   6.719
 9580TIP3    H228684   2.549   2.619   6.594
 9581TIP3   OH228685   5.697   7.056   0.028
 9581TIP3    H128686   5.739   7.010  -0.044
 9581TIP3    H228687   5.674   7.141  -0.008
 9582TIP3   OH228688   0.101   6.541   1.518
 9582TIP3    H128689   0.051   6.590   1.453
 9582TIP3    H228690   0.161   6.487   1.467
 9583TIP3   OH228691   3.096   7.226   3.252
 9583TIP3    H128692   3.191   7.220   3.248
 9583TIP3    H228693   3.073   7.292   3.187
 9584TIP3   OH228694   6.338   6.443   3.664
 9584TIP3    H128695   6.368   6.484   3.745
 9584TIP3    H228696   6.312   6.516   3.608
 9585TIP3   OH228697   4.488   3.601   2.169
 9585TIP3    H128698   4.516   3.653   2.244
 9585TIP3    H228699   4.420   3.543   2.204
 9586TIP3   OH228700   7.447   0.982   2.389
 9586TIP3    H128701   7.419   1.026   2.309
 9586TIP3    H228702   7.424   1.042   2.460
 9587TIP3   OH228703   4.616   3.382   3.049
 9587TIP3    H128704   4.615   3.307   2.989
 9587TIP3    H228705   4.693   3.367   3.104
 9588TIP3   OH228706   1.268   1.356   3.461
 9588TIP3    H128707   1.343   1.377   3.517
 9588TIP3    H228708   1.194   1.352   3.521
 9589TIP3   OH228709   0.007   2.633   5.765
 9589TIP3    H128710  -0.051   2.645   5.840
 9589TIP3    H228711   0.080   2.694   5.780
 9590TIP3   OH228712   8.029   2.720   1.447
 9590TIP3    H128713   8.025   2.631   1.414
 9590TIP3    H228714   7.949   2.731   1.499
 9591TIP3   OH228715   1.588   5.937   0.286
 9591TIP3    H128716   1.641   5.895   0.353
 9591TIP3    H228717   1.646   5.947   0.211
 9592TIP3   OH228718   6.434   0.461   2.552
 9592TIP3    H128719   6.413   0.367   2.552
 9592TIP3    H228720   6.476   0.477   2.468
 9593TIP3   OH228721   0.288   7.178   3.270
 9593TIP3    H128722   0.345   7.254   3.261
 9593TIP3    H228723   0.238   7.195   3.350
 9594TIP3   OH228724   5.321   0.727   0.613
 9594TIP3    H128725   5.352   0.817   0.608
 9594TIP3    H228726   5.391   0.675   0.572
 9595TIP3   OH228727   1.402   0.083   1.181
 9595TIP3    H128728   1.438   0.043   1.102
 9595TIP3    H228729   1.319   0.037   1.196
 9596TIP3   OH228730   1.746   1.515   4.333
 9596TIP3    H128731   1.690   1.509   4.256
 9596TIP3    H228732   1.711   1.449   4.393
 9597TIP3   OH228733   5.634   4.793   1.283
 9597TIP3    H128734   5.619   4.776   1.190
 9597TIP3    H228735   5.561   4.849   1.310
 9598TIP3   OH228736   6.518   4.978   0.826
 9598TIP3    H128737   6.550   5.032   0.898
 9598TIP3    H228738   6.587   4.913   0.812
 9599TIP3   OH228739   6.905   0.795   6.305
 9599TIP3    H128740   6.852   0.803   6.225
 9599TIP3    H228741   6.984   0.750   6.276
 9600TIP3   OH228742   3.831   7.758   1.206
 9600TIP3    H128743   3.752   7.706   1.190
 9600TIP3    H228744   3.895   7.724   1.143
 9601TIP3   OH228745   5.110   6.792   0.988
 9601TIP3    H128746   5.023   6.831   0.975
 9601TIP3    H228747   5.163   6.829   0.917
 9602TIP3   OH228748   0.547   4.014   4.136
 9602TIP3    H128749   0.484   4.032   4.066
 9602TIP3    H228750   0.622   3.974   4.092
 9603TIP3   OH228751   7.839   4.682   6.300
 9603TIP3    H128752   7.934   4.683   6.313
 9603TIP3    H228753   7.808   4.612   6.357
 9604TIP3   OH228754   3.232   6.476   3.875
 9604TIP3    H128755   3.152   6.529   3.865
 9604TIP3    H228756   3.226   6.440   3.963
 9605TIP3   OH228757   2.445   3.807   3.199
 9605TIP3    H128758   2.426   3.802   3.105
 9605TIP3    H228759   2.472   3.898   3.213
 9606TIP3   OH228760   8.180   5.255   0.337
 9606TIP3    H128761   8.141   5.337   0.305
 9606TIP3    H228762   8.202   5.206   0.258
 9607TIP3   OH228763   0.016   3.887   4.348
 9607TIP3    H128764  -0.006   3.947   4.419
 9607TIP3    H228765   0.061   3.814   4.390
 9608TIP3   OH228766   6.745   3.572   3.738
 9608TIP3    H128767   6.690   3.583   3.816
 9608TIP3    H228768   6.763   3.478   3.735
 9609TIP3   OH228769   2.432   7.227   0.620
 9609TIP3    H128770   2.442   7.308   0.670
 9609TIP3    H228771   2.382   7.169   0.678
 9610TIP3   OH228772   0.929   4.655   4.224
 9610TIP3    H128773   0.851   4.659   4.279
 9610TIP3    H228774   0.908   4.711   4.149
 9611TIP3   OH228775   2.626   7.290   2.407
 9611TIP3    H128776   2.611   7.259   2.497
 9611TIP3    H228777   2.721   7.297   2.400
 9612TIP3   OH228778   0.678   4.930   4.627
 9612TIP3    H128779   0.774   4.927   4.622
 9612TIP3    H228780   0.653   4.997   4.564
 9613TIP3   OH228781   4.376   1.068   2.732
 9613TIP3    H128782   4.326   1.139   2.773
 9613TIP3    H228783   4.344   0.989   2.774
 9614TIP3   OH228784   0.452   0.365   0.983
 9614TIP3    H128785   0.388   0.329   1.044
 9614TIP3    H228786   0.451   0.459   0.999
 9615TIP3   OH228787   0.313   1.732   6.550
 9615TIP3    H128788   0.303   1.827   6.552
 9615TIP3    H228789   0.274   1.706   6.466
 9616TIP3   OH228790   4.218   2.048   1.203
 9616TIP3    H128791   4.143   2.099   1.173
 9616TIP3    H228792   4.268   2.107   1.258
 9617TIP3   OH228793   0.525   4.959   0.957
 9617TIP3    H128794   0.438   4.963   0.998
 9617TIP3    H228795   0.585   4.943   1.029
 9618TIP3   OH228796   7.886   4.710   0.688
 9618TIP3    H128797   7.820   4.733   0.754
 9618TIP3    H228798   7.923   4.794   0.661
 9619TIP3   OH228799   7.097   1.224   1.937
 9619TIP3    H128800   7.003   1.204   1.933
 9619TIP3    H228801   7.100   1.317   1.960
 9620TIP3   OH228802   3.312   0.757   5.617
 9620TIP3    H128803   3.342   0.813   5.545
 9620TIP3    H228804   3.366   0.781   5.691
 9621TIP3   OH228805   7.670   5.501   2.893
 9621TIP3    H128806   7.708   5.588   2.893
 9621TIP3    H228807   7.575   5.516   2.900
 9622TIP3   OH228808   0.032   2.088   0.724
 9622TIP3    H128809   0.122   2.074   0.752
 9622TIP3    H228810   0.026   2.043   0.640
 9623TIP3   OH228811   0.199   0.727   2.704
 9623TIP3    H128812   0.107   0.747   2.686
 9623TIP3    H228813   0.211   0.638   2.670
 9624TIP3   OH228814   3.891   7.374   2.143
 9624TIP3    H128815   3.930   7.428   2.074
 9624TIP3    H228816   3.879   7.288   2.102
 9625TIP3   OH228817   4.390   3.160   6.134
 9625TIP3    H128818   4.476   3.194   6.108
 9625TIP3    H228819   4.410   3.095   6.202
 9626TIP3   OH228820   0.656   3.450   1.829
 9626TIP3    H128821   0.630   3.534   1.792
 9626TIP3    H228822   0.580   3.422   1.880
 9627TIP3   OH228823   5.880   7.778   4.394
 9627TIP3    H128824   5.865   7.805   4.304
 9627TIP3    H228825   5.805   7.722   4.416
 9628TIP3   OH228826   1.757   0.058   3.202
 9628TIP3    H128827   1.776  -0.022   3.154
 9628TIP3    H228828   1.843   0.094   3.226
 9629TIP3   OH228829   3.695   4.866   6.262
 9629TIP3    H128830   3.788   4.875   6.280
 9629TIP3    H228831   3.669   4.786   6.307
 9630TIP3   OH228832   4.314   1.687   3.013
 9630TIP3    H128833   4.383   1.680   3.079
 9630TIP3    H228834   4.261   1.762   3.040
 9631TIP3   OH228835   7.060   5.562   2.485
 9631TIP3    H128836   7.029   5.642   2.442
 9631TIP3    H228837   7.155   5.570   2.485
 9632TIP3   OH228838   5.037   7.576   2.763
 9632TIP3    H128839   5.097   7.620   2.701
 9632TIP3    H228840   4.986   7.648   2.801
 9633TIP3   OH228841   1.919   4.431   5.668
 9633TIP3    H128842   1.923   4.447   5.573
 9633TIP3    H228843   1.995   4.478   5.703
 9634TIP3   OH228844   4.932   0.754   6.693
 9634TIP3    H128845   4.903   0.671   6.732
 9634TIP3    H228846   5.028   0.751   6.699
 9635TIP3   OH228847   6.394   7.508   2.192
 9635TIP3    H128848   6.343   7.501   2.273
 9635TIP3    H228849   6.455   7.580   2.209
 9636TIP3   OH228850   2.436   6.922   3.658
 9636TIP3    H128851   2.401   6.899   3.744
 9636TIP3    H228852   2.457   7.015   3.665
 9637TIP3   OH228853   6.645   3.524   3.202
 9637TIP3    H128854   6.711   3.557   3.264
 9637TIP3    H228855   6.695   3.468   3.143
 9638TIP3   OH228856   3.392   0.896   5.133
 9638TIP3    H128857   3.299   0.914   5.116
 9638TIP3    H228858   3.412   0.820   5.078
 9639TIP3   OH228859   4.123   4.371   2.179
 9639TIP3    H128860   4.192   4.435   2.163
 9639TIP3    H228861   4.042   4.423   2.177
 9640TIP3   OH228862   3.628   3.531   3.516
 9640TIP3    H128863   3.547   3.556   3.470
 9640TIP3    H228864   3.634   3.436   3.506
 9641TIP3   OH228865   7.928   6.312   3.044
 9641TIP3    H128866   7.962   6.362   2.970
 9641TIP3    H228867   8.002   6.303   3.104
 9642TIP3   OH228868   3.319   6.598   0.027
 9642TIP3    H128869   3.355   6.594   0.116
 9642TIP3    H228870   3.383   6.551  -0.027
 9643TIP3   OH228871   7.053   2.225   4.434
 9643TIP3    H128872   7.091   2.153   4.383
 9643TIP3    H228873   7.127   2.285   4.449
 9644TIP3   OH228874   8.167   1.505   4.250
 9644TIP3    H128875   8.255   1.537   4.232
 9644TIP3    H228876   8.178   1.446   4.325
 9645TIP3   OH228877   6.389   0.423   1.392
 9645TIP3    H128878   6.430   0.470   1.465
 9645TIP3    H228879   6.344   0.350   1.434
 9646TIP3   OH228880   0.607   6.990   4.326
 9646TIP3    H128881   0.638   7.075   4.358
 9646TIP3    H228882   0.534   6.968   4.384
 9647TIP3   OH228883   2.412   3.053   3.248
 9647TIP3    H128884   2.348   3.103   3.196
 9647TIP3    H228885   2.485   3.114   3.260
 9648TIP3   OH228886   1.247   0.781   4.616
 9648TIP3    H128887   1.331   0.746   4.646
 9648TIP3    H228888   1.241   0.753   4.525
 9649TIP3   OH228889   4.990   1.021   3.971
 9649TIP3    H128890   5.082   1.003   3.954
 9649TIP3    H228891   4.968   0.965   4.046
 9650TIP3   OH228892   4.470   6.551   1.591
 9650TIP3    H128893   4.389   6.504   1.608
 9650TIP3    H228894   4.540   6.488   1.611
 9651TIP3   OH228895   3.147   7.012   3.841
 9651TIP3    H128896   3.127   6.920   3.859
 9651TIP3    H228897   3.243   7.016   3.841
 9652TIP3   OH228898   7.483   5.471   6.673
 9652TIP3    H128899   7.492   5.484   6.768
 9652TIP3    H228900   7.489   5.376   6.662
 9653TIP3   OH228901   6.018   1.698   3.624
 9653TIP3    H128902   6.006   1.765   3.690
 9653TIP3    H228903   6.025   1.616   3.673
 9654TIP3   OH228904   5.702   4.728   6.503
 9654TIP3    H128905   5.683   4.736   6.410
 9654TIP3    H228906   5.677   4.812   6.540
 9655TIP3   OH228907   5.103   4.053   4.584
 9655TIP3    H128908   5.176   4.110   4.608
 9655TIP3    H228909   5.056   4.037   4.666
 9656TIP3   OH228910   5.752   6.404   1.240
 9656TIP3    H128911   5.715   6.491   1.221
 9656TIP3    H228912   5.688   6.342   1.204
 9657TIP3   OH228913   5.209   1.981   1.749
 9657TIP3    H128914   5.205   2.036   1.671
 9657TIP3    H228915   5.120   1.985   1.785
 9658TIP3   OH228916   2.945   4.718   3.448
 9658TIP3    H128917   2.929   4.793   3.506
 9658TIP3    H228918   2.999   4.659   3.501
 9659TIP3   OH228919   6.399   6.106   0.211
 9659TIP3    H128920   6.424   6.065   0.294
 9659TIP3    H228921   6.481   6.134   0.172
 9660TIP3   OH228922   7.021   0.700   2.467
 9660TIP3    H128923   6.994   0.610   2.451
 9660TIP3    H228924   7.100   0.711   2.414
 9661TIP3   OH228925   5.430   6.861   5.064
 9661TIP3    H128926   5.476   6.834   5.144
 9661TIP3    H228927   5.481   6.822   4.993
 9662TIP3   OH228928   3.560   0.826   6.137
 9662TIP3    H128929   3.471   0.856   6.155
 9662TIP3    H228930   3.610   0.850   6.215
 9663TIP3   OH228931   7.189   5.405   3.429
 9663TIP3    H128932   7.228   5.426   3.514
 9663TIP3    H228933   7.150   5.318   3.441
 9664TIP3   OH228934   1.823   0.548   4.768
 9664TIP3    H128935   1.862   0.616   4.822
 9664TIP3    H228936   1.743   0.523   4.815
 9665TIP3   OH228937   6.163   1.166   1.301
 9665TIP3    H128938   6.104   1.092   1.288
 9665TIP3    H228939   6.250   1.132   1.280
 9666TIP3   OH228940   1.543   6.442   6.730
 9666TIP3    H128941   1.571   6.533   6.736
 9666TIP3    H228942   1.470   6.443   6.668
 9667TIP3   OH228943   6.326   3.986   3.396
 9667TIP3    H128944   6.337   3.968   3.303
 9667TIP3    H228945   6.377   3.918   3.441
 9668TIP3   OH228946   6.432   6.205   3.602
 9668TIP3    H128947   6.489   6.205   3.524
 9668TIP3    H228948   6.387   6.289   3.599
 9669TIP3   OH228949   2.591   1.476   2.549
 9669TIP3    H128950   2.625   1.441   2.632
 9669TIP3    H228951   2.496   1.475   2.560
 9670TIP3   OH228952   5.218   1.623   3.205
 9670TIP3    H128953   5.258   1.607   3.290
 9670TIP3    H228954   5.193   1.537   3.173
 9671TIP3   OH228955   2.482   5.981   2.147
 9671TIP3    H128956   2.491   5.892   2.182
 9671TIP3    H228957   2.508   5.974   2.055
 9672TIP3   OH228958   1.425   3.691   3.932
 9672TIP3    H128959   1.461   3.741   3.858
 9672TIP3    H228960   1.483   3.711   4.005
 9673TIP3   OH228961   1.512   6.387   4.776
 9673TIP3    H128962   1.559   6.470   4.787
 9673TIP3    H228963   1.421   6.414   4.763
 9674TIP3   OH228964   5.867   1.017   5.786
 9674TIP3    H128965   5.775   1.003   5.762
 9674TIP3    H228966   5.889   1.102   5.748
 9675TIP3   OH228967   4.432   5.635   2.797
 9675TIP3    H128968   4.496   5.698   2.832
 9675TIP3    H228969   4.347   5.671   2.822
 9676TIP3   OH228970   6.217   6.868   4.960
 9676TIP3    H128971   6.252   6.784   4.987
 9676TIP3    H228972   6.294   6.923   4.945
 9677TIP3   OH228973   3.114   0.004   2.837
 9677TIP3    H128974   3.197   0.027   2.878
 9677TIP3    H228975   3.048   0.036   2.898
 9678TIP3   OH228976   1.995   6.909   0.623
 9678TIP3    H128977   2.054   6.880   0.692
 9678TIP3    H228978   1.959   6.992   0.656
 9679TIP3   OH228979   1.657   0.521   4.973
 9679TIP3    H128980   1.642   0.596   5.030
 9679TIP3    H228981   1.578   0.468   4.982
 9680TIP3   OH228982   6.671   2.039   3.186
 9680TIP3    H128983   6.687   2.127   3.220
 9680TIP3    H228984   6.666   1.984   3.264
 9681TIP3   OH228985   4.671   5.646   2.042
 9681TIP3    H128986   4.641   5.570   2.092
 9681TIP3    H228987   4.712   5.703   2.107
 9682TIP3   OH228988   4.181   3.109   4.303
 9682TIP3    H128989   4.246   3.154   4.249
 9682TIP3    H228990   4.097   3.145   4.275
 9683TIP3   OH228991   8.208   6.842   6.466
 9683TIP3    H128992   8.170   6.882   6.544
 9683TIP3    H228993   8.232   6.917   6.411
 9684TIP3   OH228994   0.958   2.605   3.108
 9684TIP3    H128995   0.949   2.673   3.041
 9684TIP3    H228996   0.960   2.523   3.058
 9685TIP3   OH228997   2.559   6.314   5.310
 9685TIP3    H128998   2.528   6.229   5.279
 9685TIP3    H228999   2.625   6.341   5.246
 9686TIP3   OH229000   8.054   0.844   0.133
 9686TIP3    H129001   8.023   0.833   0.044
 9686TIP3    H229002   8.120   0.913   0.128
 9687TIP3   OH229003   2.877   5.801   0.094
 9687TIP3    H129004   2.917   5.716   0.075
 9687TIP3    H229005   2.923   5.863   0.037
 9688TIP3   OH229006   5.751   4.855   4.880
 9688TIP3    H129007   5.724   4.823   4.966
 9688TIP3    H229008   5.825   4.913   4.898
 9689TIP3   OH229009   5.976   0.268   1.327
 9689TIP3    H129010   5.896   0.321   1.331
 9689TIP3    H229011   6.047   0.332   1.324
 9690TIP3   OH229012   0.878   3.390   4.747
 9690TIP3    H129013   0.907   3.302   4.769
 9690TIP3    H229014   0.924   3.411   4.665
 9691TIP3   OH229015   4.520   0.399   6.156
 9691TIP3    H129016   4.540   0.478   6.106
 9691TIP3    H229017   4.603   0.354   6.165
 9692TIP3   OH229018   1.241   4.159   1.978
 9692TIP3    H129019   1.176   4.096   2.008
 9692TIP3    H229020   1.244   4.146   1.883
 9693TIP3   OH229021   0.749   1.661   1.266
 9693TIP3    H129022   0.756   1.661   1.170
 9693TIP3    H229023   0.840   1.657   1.296
 9694TIP3   OH229024   1.803   1.286   2.532
 9694TIP3    H129025   1.794   1.219   2.465
 9694TIP3    H229026   1.799   1.369   2.485
 9695TIP3   OH229027   0.240   5.565   6.320
 9695TIP3    H129028   0.159   5.590   6.274
 9695TIP3    H229029   0.296   5.643   6.312
 9696TIP3   OH229030   1.146   0.495   3.249
 9696TIP3    H129031   1.198   0.466   3.324
 9696TIP3    H229032   1.134   0.417   3.195
 9697TIP3   OH229033   6.773   5.518   0.382
 9697TIP3    H129034   6.813   5.560   0.306
 9697TIP3    H229035   6.741   5.434   0.348
 9698TIP3   OH229036   5.569   0.015   6.709
 9698TIP3    H129037   5.585   0.082   6.775
 9698TIP3    H229038   5.495   0.049   6.658
 9699TIP3   OH229039   2.357   5.786   5.205
 9699TIP3    H129040   2.337   5.714   5.265
 9699TIP3    H229041   2.381   5.743   5.123
 9700TIP3   OH229042   4.527   3.373   3.725
 9700TIP3    H129043   4.495   3.436   3.790
 9700TIP3    H229044   4.481   3.292   3.747
 9701TIP3   OH229045   5.054   0.720   5.125
 9701TIP3    H129046   5.001   0.726   5.204
 9701TIP3    H229047   4.991   0.701   5.055
 9702TIP3   OH229048   8.122   1.070   0.733
 9702TIP3    H129049   8.185   1.077   0.805
 9702TIP3    H229050   8.127   0.978   0.705
 9703TIP3   OH229051   5.731   7.569   3.666
 9703TIP3    H129052   5.792   7.583   3.594
 9703TIP3    H229053   5.670   7.504   3.634
 9704TIP3   OH229054   0.293   2.018   2.422
 9704TIP3    H129055   0.360   1.999   2.356
 9704TIP3    H229056   0.210   1.994   2.381
 9705TIP3   OH229057   5.210   6.333   0.843
 9705TIP3    H129058   5.117   6.354   0.834
 9705TIP3    H229059   5.254   6.419   0.841
 9706TIP3   OH229060   4.062   2.250   4.985
 9706TIP3    H129061   3.967   2.249   4.996
 9706TIP3    H229062   4.089   2.160   4.999
 9707TIP3   OH229063   5.146   3.950   0.180
 9707TIP3    H129064   5.084   3.917   0.115
 9707TIP3    H229065   5.209   3.879   0.193
 9708TIP3   OH229066   7.000   3.470   6.350
 9708TIP3    H129067   6.914   3.433   6.329
 9708TIP3    H229068   7.033   3.414   6.421
 9709TIP3   OH229069   5.452   5.915   3.434
 9709TIP3    H129070   5.366   5.902   3.393
 9709TIP3    H229071   5.514   5.880   3.370
 9710TIP3   OH229072   3.735   6.221   4.423
 9710TIP3    H129073   3.646   6.209   4.457
 9710TIP3    H229074   3.729   6.300   4.369
 9711TIP3   OH229075   1.516   0.291   1.660
 9711TIP3    H129076   1.481   0.218   1.712
 9711TIP3    H229077   1.609   0.292   1.681
 9712TIP3   OH229078   2.961   7.003   3.105
 9712TIP3    H129079   3.014   6.924   3.117
 9712TIP3    H229080   3.006   7.070   3.157
 9713TIP3   OH229081   5.439   6.579   3.158
 9713TIP3    H129082   5.355   6.535   3.143
 9713TIP3    H229083   5.424   6.670   3.131
 9714TIP3   OH229084   7.132   3.040   1.213
 9714TIP3    H129085   7.161   3.117   1.261
 9714TIP3    H229086   7.147   3.061   1.121
 9715TIP3   OH229087   7.739  -0.028   3.047
 9715TIP3    H129088   7.669  -0.049   3.109
 9715TIP3    H229089   7.754   0.066   3.059
 9716TIP3   OH229090   5.516   3.894   1.431
 9716TIP3    H129091   5.582   3.925   1.494
 9716TIP3    H229092   5.434   3.896   1.480
 9717TIP3   OH229093   6.518   2.989   6.398
 9717TIP3    H129094   6.562   2.970   6.315
 9717TIP3    H229095   6.428   2.962   6.384
 9718TIP3   OH229096   4.021   1.836   4.429
 9718TIP3    H129097   3.973   1.758   4.457
 9718TIP3    H229098   3.987   1.907   4.484
 9719TIP3   OH229099   4.056   7.216   5.621
 9719TIP3    H129100   3.970   7.230   5.661
 9719TIP3    H229101   4.042   7.236   5.528
 9720TIP3   OH229102   1.012   2.279   1.909
 9720TIP3    H129103   1.079   2.239   1.853
 9720TIP3    H229104   0.968   2.342   1.852
 9721TIP3   OH229105   2.650   7.533   6.135
 9721TIP3    H129106   2.558   7.506   6.134
 9721TIP3    H229107   2.685   7.504   6.051
 9722TIP3   OH229108   7.800   7.385   2.721
 9722TIP3    H129109   7.876   7.328   2.730
 9722TIP3    H229110   7.769   7.398   2.811
 9723TIP3   OH229111   5.191   3.335   1.157
 9723TIP3    H129112   5.167   3.268   1.221
 9723TIP3    H229113   5.277   3.366   1.187
 9724TIP3   OH229114   0.487   7.329   6.575
 9724TIP3    H129115   0.429   7.405   6.573
 9724TIP3    H229116   0.429   7.255   6.557
 9725TIP3   OH229117   3.912   7.790   3.416
 9725TIP3    H129118   3.860   7.854   3.368
 9725TIP3    H229119   3.884   7.799   3.507
 9726TIP3   OH229120   7.568   2.980   2.537
 9726TIP3    H129121   7.553   2.971   2.631
 9726TIP3    H229122   7.651   3.028   2.531
 9727TIP3   OH229123   7.590   3.307   0.259
 9727TIP3    H129124   7.495   3.311   0.272
 9727TIP3    H229125   7.625   3.382   0.308
 9728TIP3   OH229126   2.628   5.331   1.311
 9728TIP3    H129127   2.691   5.275   1.357
 9728TIP3    H229128   2.639   5.310   1.219
 9729TIP3   OH229129   1.344   1.026   5.496
 9729TIP3    H129130   1.352   1.035   5.591
 9729TIP3    H229131   1.254   0.995   5.482
 9730TIP3   OH229132   3.338   2.732   0.046
 9730TIP3    H129133   3.247   2.704   0.045
 9730TIP3    H229134   3.367   2.724  -0.045
 9731TIP3   OH229135   2.574   0.699   1.441
 9731TIP3    H129136   2.502   0.638   1.424
 9731TIP3    H229137   2.634   0.687   1.367
 9732TIP3   OH229138   8.103   4.570   1.743
 9732TIP3    H129139   8.084   4.488   1.788
 9732TIP3    H229140   8.036   4.576   1.675
 9733TIP3   OH229141   1.794   6.155   5.121
 9733TIP3    H129142   1.864   6.213   5.091
 9733TIP3    H229143   1.724   6.166   5.058
 9734TIP3   OH229144   5.843   4.946   4.078
 9734TIP3    H129145   5.803   4.945   3.992
 9734TIP3    H229146   5.799   5.017   4.125
 9735TIP3   OH229147   1.163   4.300   4.833
 9735TIP3    H129148   1.105   4.352   4.779
 9735TIP3    H229149   1.251   4.334   4.813
 9736TIP3   OH229150   3.208   5.392  -0.008
 9736TIP3    H129151   3.170   5.317   0.038
 9736TIP3    H229152   3.298   5.365  -0.027
 9737TIP3   OH229153   5.437   7.831   2.464
 9737TIP3    H129154   5.408   7.768   2.398
 9737TIP3    H229155   5.530   7.812   2.476
 9738TIP3   OH229156   7.493   0.154   3.833
 9738TIP3    H129157   7.555   0.182   3.766
 9738TIP3    H229158   7.429   0.100   3.786
 9739TIP3   OH229159   2.207   6.848   4.473
 9739TIP3    H129160   2.203   6.783   4.542
 9739TIP3    H229161   2.123   6.893   4.477
 9740TIP3   OH229162   2.842   4.423   2.633
 9740TIP3    H129163   2.830   4.436   2.727
 9740TIP3    H229164   2.909   4.488   2.608
 9741TIP3   OH229165   2.453   2.207   3.107
 9741TIP3    H129166   2.411   2.174   3.187
 9741TIP3    H229167   2.439   2.301   3.110
 9742TIP3   OH229168   5.997   3.591   3.158
 9742TIP3    H129169   5.956   3.593   3.244
 9742TIP3    H229170   6.071   3.532   3.168
 9743TIP3   OH229171   4.296   1.628   5.546
 9743TIP3    H129172   4.206   1.597   5.556
 9743TIP3    H229173   4.322   1.598   5.459
 9744TIP3   OH229174   3.776   3.096   4.647
 9744TIP3    H129175   3.766   3.170   4.706
 9744TIP3    H229176   3.861   3.058   4.670
 9745TIP3   OH229177   6.764   4.458   1.667
 9745TIP3    H129178   6.696   4.401   1.632
 9745TIP3    H229179   6.833   4.399   1.696
 9746TIP3   OH229180   7.787   1.161   3.964
 9746TIP3    H129181   7.808   1.110   4.043
 9746TIP3    H229182   7.871   1.198   3.936
 9747TIP3   OH229183   5.390   7.075   6.555
 9747TIP3    H129184   5.318   7.035   6.604
 9747TIP3    H229185   5.346   7.128   6.488
 9748TIP3   OH229186   8.138   3.377   3.056
 9748TIP3    H129187   8.123   3.282   3.054
 9748TIP3    H229188   8.061   3.412   3.101
 9749TIP3   OH229189   0.088   6.732   5.198
 9749TIP3    H129190   0.104   6.797   5.266
 9749TIP3    H229191   0.172   6.687   5.189
 9750TIP3   OH229192   2.465   1.572   0.334
 9750TIP3    H129193   2.447   1.516   0.259
 9750TIP3    H229194   2.475   1.660   0.298
 9751TIP3   OH229195   7.715   7.237   1.540
 9751TIP3    H129196   7.744   7.147   1.521
 9751TIP3    H229197   7.621   7.236   1.522
 9752TIP3   OH229198   7.219   6.349   0.674
 9752TIP3    H129199   7.309   6.322   0.655
 9752TIP3    H229200   7.164   6.285   0.627
 9753TIP3   OH229201   5.438   6.039   1.218
 9753TIP3    H129202   5.433   6.096   1.141
 9753TIP3    H229203   5.346   6.025   1.243
 9754TIP3   OH229204   6.379   5.556   3.600
 9754TIP3    H129205   6.322   5.495   3.554
 9754TIP3    H229206   6.412   5.614   3.531
 9755TIP3   OH229207   6.832   1.639   1.540
 9755TIP3    H129208   6.825   1.698   1.615
 9755TIP3    H229209   6.924   1.612   1.540
 9756TIP3   OH229210   1.215   0.525   6.522
 9756TIP3    H129211   1.293   0.580   6.526
 9756TIP3    H229212   1.211   0.481   6.606
 9757TIP3   OH229213   2.286   0.263   3.914
 9757TIP3    H129214   2.340   0.323   3.862
 9757TIP3    H229215   2.301   0.290   4.004
 9758TIP3   OH229216   6.129   5.520   5.184
 9758TIP3    H129217   6.047   5.557   5.153
 9758TIP3    H229218   6.115   5.501   5.276
 9759TIP3   OH229219   0.392   0.761   5.221
 9759TIP3    H129220   0.347   0.762   5.305
 9759TIP3    H229221   0.431   0.848   5.213
 9760TIP3   OH229222   5.612   1.611   2.671
 9760TIP3    H129223   5.701   1.634   2.699
 9760TIP3    H229224   5.555   1.673   2.717
 9761TIP3   OH229225   0.513   2.771   6.226
 9761TIP3    H129226   0.487   2.841   6.166
 9761TIP3    H229227   0.521   2.814   6.311
 9762TIP3   OH229228   0.310   5.583   0.146
 9762TIP3    H129229   0.345   5.510   0.197
 9762TIP3    H229230   0.217   5.587   0.171
 9763TIP3   OH229231   5.525   3.277   1.753
 9763TIP3    H129232   5.596   3.301   1.692
 9763TIP3    H229233   5.468   3.353   1.755
 9764TIP3   OH229234   3.614   3.995   6.122
 9764TIP3    H129235   3.525   3.985   6.156
 9764TIP3    H229236   3.653   4.061   6.178
 9765TIP3   OH229237   2.520   6.729   3.487
 9765TIP3    H129238   2.453   6.661   3.486
 9765TIP3    H229239   2.487   6.794   3.550
 9766TIP3   OH229240   1.860   3.652   5.320
 9766TIP3    H129241   1.766   3.658   5.334
 9766TIP3    H229242   1.898   3.669   5.406
 9767TIP3   OH229243   2.762   0.757   1.212
 9767TIP3    H129244   2.838   0.698   1.202
 9767TIP3    H229245   2.700   0.727   1.146
 9768TIP3   OH229246   3.743   5.253   2.118
 9768TIP3    H129247   3.713   5.250   2.027
 9768TIP3    H229248   3.672   5.295   2.166
 9769TIP3   OH229249   8.060   7.601   0.082
 9769TIP3    H129250   8.148   7.578   0.109
 9769TIP3    H229251   8.003   7.551   0.141
 9770TIP3   OH229252   3.321   3.249   3.201
 9770TIP3    H129253   3.299   3.295   3.120
 9770TIP3    H229254   3.270   3.295   3.268
 9771TIP3   OH229255   7.370   2.539   5.123
 9771TIP3    H129256   7.321   2.480   5.066
 9771TIP3    H229257   7.411   2.481   5.187
 9772TIP3   OH229258   6.191   4.324   1.649
 9772TIP3    H129259   6.164   4.372   1.727
 9772TIP3    H229260   6.139   4.244   1.651
 9773TIP3   OH229261   6.396   0.176   2.571
 9773TIP3    H129262   6.348   0.103   2.531
 9773TIP3    H229263   6.399   0.154   2.664
 9774TIP3   OH229264   1.021   6.197   3.107
 9774TIP3    H129265   0.996   6.144   3.031
 9774TIP3    H229266   1.088   6.144   3.151
 9775TIP3   OH229267   1.617   2.895   2.241
 9775TIP3    H129268   1.524   2.882   2.257
 9775TIP3    H229269   1.631   2.989   2.255
 9776TIP3   OH229270   4.103   4.357   4.766
 9776TIP3    H129271   4.054   4.325   4.690
 9776TIP3    H229272   4.171   4.292   4.780
 9777TIP3   OH229273   6.278   1.320   5.505
 9777TIP3    H129274   6.318   1.406   5.522
 9777TIP3    H229275   6.184   1.335   5.516
 9778TIP3   OH229276   6.223   1.084   0.659
 9778TIP3    H129277   6.138   1.111   0.626
 9778TIP3    H229278   6.286   1.138   0.612
 9779TIP3   OH229279   6.287   6.171   6.354
 9779TIP3    H129280   6.272   6.150   6.446
 9779TIP3    H229281   6.210   6.136   6.309
 9780TIP3   OH229282   4.768   7.112   0.597
 9780TIP3    H129283   4.685   7.137   0.556
 9780TIP3    H229284   4.764   7.150   0.685
 9781TIP3   OH229285   2.800   1.688   3.559
 9781TIP3    H129286   2.813   1.624   3.629
 9781TIP3    H229287   2.706   1.684   3.539
 9782TIP3   OH229288   6.452   4.981   6.731
 9782TIP3    H129289   6.488   5.036   6.800
 9782TIP3    H229290   6.456   4.892   6.766
 9783TIP3   OH229291   4.072   7.044   1.889
 9783TIP3    H129292   4.101   6.980   1.953
 9783TIP3    H229293   3.977   7.036   1.888
 9784TIP3   OH229294   6.804   2.342   5.019
 9784TIP3    H129295   6.813   2.293   4.938
 9784TIP3    H229296   6.737   2.294   5.069
 9785TIP3   OH229297   2.976   0.511   3.113
 9785TIP3    H129298   2.940   0.556   3.190
 9785TIP3    H229299   2.963   0.418   3.131
 9786TIP3   OH229300   8.298   3.400   5.298
 9786TIP3    H129301   8.343   3.442   5.371
 9786TIP3    H229302   8.340   3.436   5.220
 9787TIP3   OH229303   5.068   5.236   3.164
 9787TIP3    H129304   5.152   5.255   3.206
 9787TIP3    H229305   5.058   5.141   3.173
 9788TIP3   OH229306   0.033   2.424   6.450
 9788TIP3    H129307   0.049   2.480   6.374
 9788TIP3    H229308   0.046   2.481   6.526
 9789TIP3   OH229309   7.449   7.109   2.071
 9789TIP3    H129310   7.434   7.035   2.130
 9789TIP3    H229311   7.545   7.115   2.065
 9790TIP3   OH229312   3.166   2.811   6.429
 9790TIP3    H129313   3.260   2.798   6.439
 9790TIP3    H229314   3.139   2.743   6.367
 9791TIP3   OH229315   2.513   3.128   4.659
 9791TIP3    H129316   2.424   3.147   4.630
 9791TIP3    H229317   2.563   3.205   4.632
 9792TIP3   OH229318   5.113   6.797   2.783
 9792TIP3    H129319   5.165   6.719   2.763
 9792TIP3    H229320   5.041   6.795   2.720
 9793TIP3   OH229321   3.856   4.920   4.393
 9793TIP3    H129322   3.906   4.938   4.313
 9793TIP3    H229323   3.922   4.892   4.456
 9794TIP3   OH229324   3.662   7.528   3.317
 9794TIP3    H129325   3.693   7.618   3.309
 9794TIP3    H229326   3.711   7.480   3.251
 9795TIP3   OH229327   7.765   4.312   3.698
 9795TIP3    H129328   7.770   4.401   3.733
 9795TIP3    H229329   7.778   4.256   3.775
 9796TIP3   OH229330   2.024   3.046   6.261
 9796TIP3    H129331   1.955   3.107   6.287
 9796TIP3    H229332   2.061   3.015   6.343
 9797TIP3   OH229333   2.426   4.361   0.304
 9797TIP3    H129334   2.474   4.396   0.229
 9797TIP3    H229335   2.407   4.270   0.280
 9798TIP3   OH229336   6.976   3.656   0.692
 9798TIP3    H129337   7.070   3.634   0.688
 9798TIP3    H229338   6.973   3.738   0.740
 9799TIP3   OH229339   0.022   6.689   2.189
 9799TIP3    H129340   0.042   6.781   2.209
 9799TIP3    H229341   0.040   6.642   2.271
 9800TIP3   OH229342   2.348   0.132   6.584
 9800TIP3    H129343   2.343   0.190   6.659
 9800TIP3    H229344   2.441   0.112   6.574
 9801TIP3   OH229345   1.806   6.258   5.815
 9801TIP3    H129346   1.891   6.218   5.835
 9801TIP3    H229347   1.747   6.183   5.800
 9802TIP3   OH229348   5.789   0.792   4.170
 9802TIP3    H129349   5.831   0.707   4.186
 9802TIP3    H229350   5.760   0.787   4.079
 9803TIP3   OH229351   4.693   6.747   5.146
 9803TIP3    H129352   4.716   6.791   5.065
 9803TIP3    H229353   4.776   6.719   5.183
 9804TIP3   OH229354   2.750   0.307   5.225
 9804TIP3    H129355   2.756   0.213   5.244
 9804TIP3    H229356   2.835   0.342   5.252
 9805TIP3   OH229357   0.620   1.728   5.506
 9805TIP3    H129358   0.611   1.784   5.584
 9805TIP3    H229359   0.712   1.737   5.481
 9806TIP3   OH229360   2.653   4.906   5.883
 9806TIP3    H129361   2.690   4.911   5.971
 9806TIP3    H229362   2.632   4.996   5.860
 9807TIP3   OH229363   8.073   7.473   4.756
 9807TIP3    H129364   8.130   7.475   4.680
 9807TIP3    H229365   8.019   7.395   4.743
 9808TIP3   OH229366   6.572   3.383   2.189
 9808TIP3    H129367   6.564   3.462   2.135
 9808TIP3    H229368   6.608   3.414   2.271
 9809TIP3   OH229369   0.714   2.526   0.711
 9809TIP3    H129370   0.733   2.618   0.692
 9809TIP3    H229371   0.786   2.478   0.670
 9810TIP3   OH229372   0.176   1.166   3.993
 9810TIP3    H129373   0.210   1.119   4.070
 9810TIP3    H229374   0.119   1.233   4.029
 9811TIP3   OH229375   0.474   2.801   2.049
 9811TIP3    H129376   0.410   2.769   2.113
 9811TIP3    H229377   0.460   2.896   2.046
 9812TIP3   OH229378   5.849   6.918   6.345
 9812TIP3    H129379   5.929   6.911   6.398
 9812TIP3    H229380   5.795   6.982   6.392
 9813TIP3   OH229381   5.707   1.068   4.472
 9813TIP3    H129382   5.613   1.079   4.489
 9813TIP3    H229383   5.750   1.097   4.553
 9814TIP3   OH229384   7.516   4.276   3.341
 9814TIP3    H129385   7.590   4.227   3.377
 9814TIP3    H229386   7.451   4.209   3.320
 9815TIP3   OH229387   1.971   3.262   1.013
 9815TIP3    H129388   2.000   3.253   1.103
 9815TIP3    H229389   1.907   3.334   1.015
 9816TIP3   OH229390   7.087   3.977   5.156
 9816TIP3    H129391   7.088   4.072   5.154
 9816TIP3    H229392   6.996   3.954   5.175
 9817TIP3   OH229393   3.279   6.274   5.392
 9817TIP3    H129394   3.241   6.306   5.474
 9817TIP3    H229395   3.373   6.271   5.408
 9818TIP3   OH229396   5.353   1.320   6.015
 9818TIP3    H129397   5.363   1.226   6.033
 9818TIP3    H229398   5.332   1.324   5.921
 9819TIP3   OH229399   4.274   1.130   5.928
 9819TIP3    H129400   4.236   1.114   5.842
 9819TIP3    H229401   4.339   1.061   5.940
 9820TIP3   OH229402   5.200   0.892   4.783
 9820TIP3    H129403   5.254   0.940   4.846
 9820TIP3    H229404   5.110   0.916   4.806
 9821TIP3   OH229405   6.534   5.129   0.587
 9821TIP3    H129406   6.561   5.085   0.668
 9821TIP3    H229407   6.555   5.221   0.602
 9822TIP3   OH229408   3.161   6.883   6.149
 9822TIP3    H129409   3.131   6.927   6.069
 9822TIP3    H229410   3.081   6.846   6.187
 9823TIP3   OH229411   6.873   4.537   2.727
 9823TIP3    H129412   6.818   4.536   2.805
 9823TIP3    H229413   6.891   4.630   2.711
 9824TIP3   OH229414   7.316   4.911   0.186
 9824TIP3    H129415   7.393   4.926   0.130
 9824TIP3    H229416   7.241   4.921   0.127
 9825TIP3   OH229417   8.187   7.542   3.443
 9825TIP3    H129418   8.199   7.576   3.532
 9825TIP3    H229419   8.190   7.619   3.387
 9826TIP3   OH229420   4.577   0.801   2.389
 9826TIP3    H129421   4.619   0.808   2.475
 9826TIP3    H229422   4.518   0.726   2.397
 9827TIP3   OH229423   7.160   6.723   4.898
 9827TIP3    H129424   7.235   6.782   4.890
 9827TIP3    H229425   7.188   6.656   4.960
 9828TIP3   OH229426   2.002   5.571   6.205
 9828TIP3    H129427   1.946   5.530   6.139
 9828TIP3    H229428   2.081   5.517   6.207
 9829TIP3   OH229429   3.977   5.450   2.617
 9829TIP3    H129430   4.067   5.466   2.589
 9829TIP3    H229431   3.958   5.521   2.678
 9830TIP3   OH229432   2.899   7.467   1.009
 9830TIP3    H129433   2.842   7.535   0.973
 9830TIP3    H229434   2.899   7.483   1.103
 9831TIP3   OH229435   0.348   7.724   1.004
 9831TIP3    H129436   0.277   7.778   1.038
 9831TIP3    H229437   0.381   7.677   1.081
 9832TIP3   OH229438   0.471   7.223   1.980
 9832TIP3    H129439   0.522   7.249   1.903
 9832TIP3    H229440   0.472   7.127   1.979
 9833TIP3   OH229441   5.106   5.521   1.424
 9833TIP3    H129442   5.081   5.612   1.413
 9833TIP3    H229443   5.102   5.506   1.518
 9834TIP3   OH229444   6.761   5.800   5.110
 9834TIP3    H129445   6.735   5.851   5.186
 9834TIP3    H229446   6.812   5.727   5.146
 9835TIP3   OH229447   6.605   7.531   1.038
 9835TIP3    H129448   6.577   7.441   1.055
 9835TIP3    H229449   6.541   7.586   1.084
 9836TIP3   OH229450   3.322   2.526   5.653
 9836TIP3    H129451   3.266   2.545   5.578
 9836TIP3    H229452   3.291   2.586   5.721
 9837TIP3   OH229453   2.788   5.025   1.984
 9837TIP3    H129454   2.720   4.959   2.000
 9837TIP3    H229455   2.795   5.072   2.067
 9838TIP3   OH229456   7.731   0.417   0.743
 9838TIP3    H129457   7.663   0.386   0.683
 9838TIP3    H229458   7.810   0.371   0.715
 9839TIP3   OH229459   6.308   3.730   5.712
 9839TIP3    H129460   6.351   3.646   5.695
 9839TIP3    H229461   6.278   3.723   5.803
 9840TIP3   OH229462   7.112   4.015   3.564
 9840TIP3    H129463   7.111   3.943   3.626
 9840TIP3    H229464   7.200   4.016   3.528
 9841TIP3   OH229465   0.859   6.797   2.793
 9841TIP3    H129466   0.776   6.844   2.803
 9841TIP3    H229467   0.885   6.814   2.703
 9842TIP3   OH229468   3.043   3.217   3.331
 9842TIP3    H129469   2.970   3.165   3.296
 9842TIP3    H229470   3.002   3.279   3.391
 9843TIP3   OH229471   2.498   4.292   2.203
 9843TIP3    H129472   2.573   4.262   2.255
 9843TIP3    H229473   2.454   4.212   2.175
 9844TIP3   OH229474   3.479   4.431   1.097
 9844TIP3    H129475   3.507   4.356   1.045
 9844TIP3    H229476   3.384   4.423   1.102
 9845TIP3   OH229477   2.275   2.570   4.128
 9845TIP3    H129478   2.285   2.609   4.215
 9845TIP3    H229479   2.265   2.476   4.146
 9846TIP3   OH229480   0.503   7.407   3.292
 9846TIP3    H129481   0.576   7.360   3.250
 9846TIP3    H229482   0.521   7.499   3.275
 9847TIP3   OH229483   7.655   6.614   2.674
 9847TIP3    H129484   7.570   6.591   2.635
 9847TIP3    H229485   7.718   6.601   2.603
 9848TIP3   OH229486   5.846   5.453   1.707
 9848TIP3    H129487   5.879   5.543   1.697
 9848TIP3    H229488   5.848   5.437   1.801
 9849TIP3   OH229489   2.502   0.012   4.245
 9849TIP3    H129490   2.481   0.039   4.335
 9849TIP3    H229491   2.568   0.075   4.216
 9850TIP3   OH229492   2.478   5.685   5.858
 9850TIP3    H129493   2.409   5.725   5.911
 9850TIP3    H229494   2.551   5.748   5.862
 9851TIP3   OH229495   4.725   0.312   1.444
 9851TIP3    H129496   4.746   0.406   1.441
 9851TIP3    H229497   4.634   0.310   1.475
 9852TIP3   OH229498   1.707   6.030   0.894
 9852TIP3    H129499   1.693   6.022   0.800
 9852TIP3    H229500   1.802   6.021   0.905
 9853TIP3   OH229501   6.863   1.136   4.211
 9853TIP3    H129502   6.907   1.074   4.153
 9853TIP3    H229503   6.782   1.092   4.237
 9854TIP3   OH229504   7.572   5.647   3.938
 9854TIP3    H129505   7.601   5.651   3.847
 9854TIP3    H229506   7.644   5.604   3.984
 9855TIP3   OH229507   0.038   2.893   5.534
 9855TIP3    H129508   0.088   2.937   5.602
 9855TIP3    H229509   0.000   2.964   5.482
 9856TIP3   OH229510   6.658   5.935   0.863
 9856TIP3    H129511   6.575   5.981   0.856
 9856TIP3    H229512   6.655   5.893   0.950
 9857TIP3   OH229513   0.019   7.358   6.118
 9857TIP3    H129514   0.094   7.377   6.174
 9857TIP3    H229515   0.021   7.426   6.050
 9858TIP3   OH229516   7.847   2.771   1.632
 9858TIP3    H129517   7.887   2.759   1.718
 9858TIP3    H229518   7.758   2.802   1.651
 9859TIP3   OH229519   0.192   3.388   3.246
 9859TIP3    H129520   0.139   3.322   3.201
 9859TIP3    H229521   0.225   3.343   3.324
 9860TIP3   OH229522   4.525   7.346   5.217
 9860TIP3    H129523   4.486   7.396   5.144
 9860TIP3    H229524   4.486   7.385   5.295
 9861TIP3   OH229525   6.816   0.803   4.388
 9861TIP3    H129526   6.766   0.846   4.458
 9861TIP3    H229527   6.788   0.849   4.309
 9862TIP3   OH229528   3.425   7.526   2.542
 9862TIP3    H129529   3.332   7.526   2.520
 9862TIP3    H229530   3.427   7.526   2.638
 9863TIP3   OH229531   2.997   4.854   6.414
 9863TIP3    H129532   3.001   4.835   6.320
 9863TIP3    H229533   2.960   4.943   6.418
 9864TIP3   OH229534   2.806   6.411   4.318
 9864TIP3    H129535   2.727   6.428   4.266
 9864TIP3    H229536   2.844   6.497   4.332
 9865TIP3   OH229537   7.627   3.189   3.642
 9865TIP3    H129538   7.620   3.266   3.698
 9865TIP3    H229539   7.553   3.134   3.667
 9866TIP3   OH229540   2.489   1.277   0.343
 9866TIP3    H129541   2.545   1.233   0.279
 9866TIP3    H229542   2.543   1.350   0.375
 9867TIP3   OH229543   2.243   5.159   6.431
 9867TIP3    H129544   2.191   5.126   6.358
 9867TIP3    H229545   2.318   5.202   6.389
 9868TIP3   OH229546   4.851   5.445   5.102
 9868TIP3    H129547   4.866   5.350   5.111
 9868TIP3    H229548   4.937   5.484   5.117
 9869TIP3   OH229549   6.304   5.344   4.615
 9869TIP3    H129550   6.234   5.314   4.673
 9869TIP3    H229551   6.296   5.289   4.537
 9870TIP3   OH229552   6.765   6.283   1.936
 9870TIP3    H129553   6.777   6.249   2.025
 9870TIP3    H229554   6.850   6.319   1.913
 9871TIP3   OH229555   6.586   4.864   0.207
 9871TIP3    H129556   6.507   4.842   0.256
 9871TIP3    H229557   6.630   4.930   0.261
 9872TIP3   OH229558   7.392   0.631   5.774
 9872TIP3    H129559   7.411   0.556   5.717
 9872TIP3    H229560   7.439   0.613   5.855
 9873TIP3   OH229561   3.278   3.540   2.447
 9873TIP3    H129562   3.308   3.468   2.392
 9873TIP3    H229563   3.328   3.616   2.417
 9874TIP3   OH229564   3.621   3.627   2.417
 9874TIP3    H129565   3.680   3.694   2.384
 9874TIP3    H229566   3.534   3.655   2.389
 9875TIP3   OH229567   2.775   5.176   0.886
 9875TIP3    H129568   2.702   5.233   0.865
 9875TIP3    H229569   2.828   5.227   0.948
 9876TIP3   OH229570   4.088   5.747   1.803
 9876TIP3    H129571   4.024   5.685   1.769
 9876TIP3    H229572   4.165   5.734   1.748
 9877TIP3   OH229573   6.472   1.805   4.192
 9877TIP3    H129574   6.558   1.811   4.233
 9877TIP3    H229575   6.457   1.892   4.154
 9878TIP3   OH229576   2.792   4.218   0.606
 9878TIP3    H129577   2.870   4.170   0.636
 9878TIP3    H229578   2.764   4.267   0.684
 9879TIP3   OH229579   3.440   6.328   1.486
 9879TIP3    H129580   3.464   6.365   1.571
 9879TIP3    H229581   3.348   6.353   1.475
 9880TIP3   OH229582   2.811   5.778   5.607
 9880TIP3    H129583   2.890   5.746   5.651
 9880TIP3    H229584   2.826   5.872   5.597
 9881TIP3   OH229585   8.063   7.051   2.951
 9881TIP3    H129586   8.077   7.006   3.035
 9881TIP3    H229587   7.987   7.007   2.913
 9882TIP3   OH229588   0.376   1.201   1.100
 9882TIP3    H129589   0.432   1.205   1.022
 9882TIP3    H229590   0.300   1.254   1.078
 9883TIP3   OH229591   0.091   7.311   6.602
 9883TIP3    H129592   0.133   7.239   6.554
 9883TIP3    H229593  -0.003   7.292   6.594
 9884TIP3   OH229594   2.639   7.852   4.404
 9884TIP3    H129595   2.623   7.760   4.424
 9884TIP3    H229596   2.696   7.850   4.327
 9885TIP3   OH229597   0.660   3.344   2.977
 9885TIP3    H129598   0.721   3.274   2.997
 9885TIP3    H229599   0.589   3.302   2.929
 9886TIP3   OH229600   6.041   5.936   5.078
 9886TIP3    H129601   6.079   6.018   5.110
 9886TIP3    H229602   6.113   5.873   5.082
 9887TIP3   OH229603   1.426   2.853   4.213
 9887TIP3    H129604   1.443   2.834   4.121
 9887TIP3    H229605   1.341   2.898   4.213
 9888TIP3   OH229606   4.949   6.893   3.328
 9888TIP3    H129607   5.007   6.866   3.257
 9888TIP3    H229608   4.999   6.876   3.408
 9889TIP3   OH229609   3.851   4.216   0.695
 9889TIP3    H129610   3.915   4.145   0.699
 9889TIP3    H229611   3.840   4.234   0.601
 9890TIP3   OH229612   5.150   4.405   2.207
 9890TIP3    H129613   5.086   4.455   2.156
 9890TIP3    H229614   5.227   4.401   2.151
 9891TIP3   OH229615   5.189   1.397   6.241
 9891TIP3    H129616   5.258   1.378   6.304
 9891TIP3    H229617   5.231   1.390   6.156
 9892TIP3   OH229618   1.326   5.018   1.786
 9892TIP3    H129619   1.412   5.012   1.828
 9892TIP3    H229620   1.266   5.039   1.858
 9893TIP3   OH229621   1.519   0.098   1.988
 9893TIP3    H129622   1.452   0.164   1.971
 9893TIP3    H229623   1.532   0.055   1.903
 9894TIP3   OH229624   6.578   0.492   2.788
 9894TIP3    H129625   6.544   0.458   2.705
 9894TIP3    H229626   6.509   0.473   2.851
 9895TIP3   OH229627   5.388   5.420   1.858
 9895TIP3    H129628   5.320   5.360   1.827
 9895TIP3    H229629   5.434   5.370   1.926
 9896TIP3   OH229630   0.415   1.276   5.350
 9896TIP3    H129631   0.339   1.269   5.293
 9896TIP3    H229632   0.449   1.186   5.356
 9897TIP3   OH229633   5.253   5.873   5.115
 9897TIP3    H129634   5.279   5.798   5.062
 9897TIP3    H229635   5.157   5.870   5.114
 9898TIP3   OH229636   7.093   1.889   0.281
 9898TIP3    H129637   7.131   1.815   0.234
 9898TIP3    H229638   7.118   1.966   0.229
 9899TIP3   OH229639   3.918   5.621   2.175
 9899TIP3    H129640   3.901   5.583   2.261
 9899TIP3    H229641   3.831   5.631   2.136
 9900TIP3   OH229642   8.280   2.580   1.761
 9900TIP3    H129643   8.347   2.551   1.698
 9900TIP3    H229644   8.284   2.675   1.757
 9901TIP3   OH229645   7.867   1.373   5.314
 9901TIP3    H129646   7.935   1.433   5.344
 9901TIP3    H229647   7.886   1.290   5.358
 9902TIP3   OH229648   1.645   7.044   0.072
 9902TIP3    H129649   1.688   7.052  -0.013
 9902TIP3    H229650   1.716   7.046   0.136
 9903TIP3   OH229651   1.689   0.339   3.990
 9903TIP3    H129652   1.676   0.249   4.019
 9903TIP3    H229653   1.697   0.333   3.895
 9904TIP3   OH229654   8.136   4.624   1.138
 9904TIP3    H129655   8.089   4.689   1.086
 9904TIP3    H229656   8.068   4.565   1.169
 9905TIP3   OH229657   7.896   3.123   3.536
 9905TIP3    H129658   7.807   3.147   3.512
 9905TIP3    H229659   7.946   3.129   3.455
 9906TIP3   OH229660   2.900   6.206   0.332
 9906TIP3    H129661   2.991   6.226   0.310
 9906TIP3    H229662   2.891   6.235   0.422
 9907TIP3   OH229663   3.169   5.398   2.110
 9907TIP3    H129664   3.100   5.464   2.123
 9907TIP3    H229665   3.245   5.448   2.081
 9908TIP3   OH229666   2.800   5.832   1.938
 9908TIP3    H129667   2.839   5.919   1.948
 9908TIP3    H229668   2.789   5.822   1.844
 9909TIP3   OH229669   7.816   6.537   6.620
 9909TIP3    H129670   7.794   6.444   6.616
 9909TIP3    H229671   7.872   6.553   6.544
 9910TIP3   OH229672   3.592   2.869   4.191
 9910TIP3    H129673   3.561   2.903   4.275
 9910TIP3    H229674   3.513   2.843   4.144
 9911TIP3   OH229675   3.979   7.731   4.620
 9911TIP3    H129676   3.903   7.775   4.658
 9911TIP3    H229677   4.036   7.802   4.591
 9912TIP3   OH229678   1.135   1.256   0.867
 9912TIP3    H129679   1.184   1.319   0.919
 9912TIP3    H229680   1.046   1.291   0.862
 9913TIP3   OH229681   6.995   7.638   1.327
 9913TIP3    H129682   7.030   7.726   1.342
 9913TIP3    H229683   6.970   7.608   1.414
 9914TIP3   OH229684   7.784   5.130   4.884
 9914TIP3    H129685   7.755   5.183   4.810
 9914TIP3    H229686   7.733   5.162   4.959
 9915TIP3   OH229687   4.543   1.849   6.125
 9915TIP3    H129688   4.479   1.780   6.112
 9915TIP3    H229689   4.524   1.913   6.056
 9916TIP3   OH229690   2.128   7.625   1.225
 9916TIP3    H129691   2.185   7.684   1.176
 9916TIP3    H229692   2.078   7.683   1.283
 9917TIP3   OH229693   2.282   1.711   2.789
 9917TIP3    H129694   2.340   1.763   2.844
 9917TIP3    H229695   2.263   1.768   2.715
 9918TIP3   OH229696   3.114   4.948   0.137
 9918TIP3    H129697   3.091   4.934   0.046
 9918TIP3    H229698   3.081   4.871   0.183
 9919TIP3   OH229699   6.651   5.297   3.277
 9919TIP3    H129700   6.679   5.210   3.306
 9919TIP3    H229701   6.732   5.347   3.271
 9920TIP3   OH229702   3.234   5.326   5.539
 9920TIP3    H129703   3.280   5.339   5.622
 9920TIP3    H229704   3.188   5.243   5.550
 9921TIP3   OH229705   0.714   7.020   0.390
 9921TIP3    H129706   0.801   7.002   0.354
 9921TIP3    H229707   0.724   7.007   0.484
 9922TIP3   OH229708   4.876   3.539   6.095
 9922TIP3    H129709   4.855   3.601   6.025
 9922TIP3    H229710   4.960   3.570   6.129
 9923TIP3   OH229711   5.035   2.263   3.181
 9923TIP3    H129712   4.939   2.264   3.184
 9923TIP3    H229713   5.062   2.308   3.261
 9924TIP3   OH229714   5.285   5.309   4.222
 9924TIP3    H129715   5.325   5.396   4.215
 9924TIP3    H229716   5.194   5.327   4.245
 9925TIP3   OH229717   3.200   6.489   6.051
 9925TIP3    H129718   3.220   6.401   6.083
 9925TIP3    H229719   3.190   6.542   6.130
 9926TIP3   OH229720   4.025   3.223   5.408
 9926TIP3    H129721   4.054   3.164   5.339
 9926TIP3    H229722   4.038   3.173   5.489
 9927TIP3   OH229723   4.590   3.970   5.767
 9927TIP3    H129724   4.667   3.964   5.711
 9927TIP3    H229725   4.614   4.032   5.836
 9928TIP3   OH229726   2.862   0.920   0.823
 9928TIP3    H129727   2.950   0.952   0.803
 9928TIP3    H229728   2.859   0.832   0.785
 9929TIP3   OH229729   0.025   2.315   1.335
 9929TIP3    H129730   0.117   2.329   1.311
 9929TIP3    H229731   0.019   2.222   1.357
 9930TIP3   OH229732   6.700   3.155   2.101
 9930TIP3    H129733   6.761   3.122   2.167
 9930TIP3    H229734   6.669   3.239   2.136
 9931TIP3   OH229735   8.041   5.239   3.256
 9931TIP3    H129736   8.074   5.311   3.202
 9931TIP3    H229737   8.001   5.179   3.194
 9932TIP3   OH229738   0.958   0.673   5.627
 9932TIP3    H129739   1.034   0.616   5.640
 9932TIP3    H229740   0.958   0.691   5.533
 9933TIP3   OH229741   0.409   5.806   6.403
 9933TIP3    H129742   0.406   5.890   6.357
 9933TIP3    H229743   0.340   5.812   6.468
 9934TIP3   OH229744   0.944   4.805   2.045
 9934TIP3    H129745   1.017   4.760   2.003
 9934TIP3    H229746   0.876   4.810   1.978
 9935TIP3   OH229747   0.163   0.095   3.768
 9935TIP3    H129748   0.208   0.136   3.842
 9935TIP3    H229749   0.088   0.050   3.808
 9936TIP3   OH229750   1.572   6.218   0.326
 9936TIP3    H129751   1.571   6.122   0.326
 9936TIP3    H229752   1.582   6.242   0.234
 9937TIP3   OH229753   3.730   4.394   0.182
 9937TIP3    H129754   3.649   4.437   0.211
 9937TIP3    H229755   3.799   4.436   0.233
 9938TIP3   OH229756   5.407   2.204   6.156
 9938TIP3    H129757   5.425   2.110   6.157
 9938TIP3    H229758   5.397   2.225   6.063
 9939TIP3   OH229759   3.295   6.823   2.160
 9939TIP3    H129760   3.296   6.878   2.239
 9939TIP3    H229761   3.302   6.734   2.193
 9940TIP3   OH229762   4.068   7.488   3.642
 9940TIP3    H129763   3.978   7.464   3.664
 9940TIP3    H229764   4.119   7.465   3.720
 9941TIP3   OH229765   7.541   1.247   5.008
 9941TIP3    H129766   7.617   1.294   5.043
 9941TIP3    H229767   7.546   1.261   4.914
 9942TIP3   OH229768   2.183   1.994   1.337
 9942TIP3    H129769   2.213   2.010   1.427
 9942TIP3    H229770   2.181   1.898   1.330
 9943TIP3   OH229771   2.927   6.652   6.731
 9943TIP3    H129772   2.908   6.580   6.671
 9943TIP3    H229773   2.876   6.726   6.697
 9944TIP3   OH229774   1.595   7.466   5.485
 9944TIP3    H129775   1.518   7.442   5.536
 9944TIP3    H229776   1.646   7.385   5.478
 9945TIP3   OH229777   1.833   4.024   3.783
 9945TIP3    H129778   1.898   4.078   3.827
 9945TIP3    H229779   1.760   4.084   3.765
 9946TIP3   OH229780   8.051   1.751   3.928
 9946TIP3    H129781   8.134   1.783   3.891
 9946TIP3    H229782   8.024   1.681   3.869
 9947TIP3   OH229783   6.278   3.615   2.115
 9947TIP3    H129784   6.344   3.643   2.050
 9947TIP3    H229785   6.315   3.642   2.199
 9948TIP3   OH229786   5.095   3.608   1.049
 9948TIP3    H129787   5.000   3.620   1.053
 9948TIP3    H229788   5.111   3.526   1.096
 9949TIP3   OH229789   3.343   7.133   3.278
 9949TIP3    H129790   3.358   7.042   3.303
 9949TIP3    H229791   3.428   7.165   3.250
 9950TIP3   OH229792   1.475   0.925   2.328
 9950TIP3    H129793   1.542   0.912   2.395
 9950TIP3    H229794   1.515   0.984   2.264
 9951TIP3   OH229795   0.731   0.506   6.329
 9951TIP3    H129796   0.818   0.466   6.336
 9951TIP3    H229797   0.679   0.442   6.279
 9952TIP3   OH229798   6.824   7.766   1.812
 9952TIP3    H129799   6.779   7.708   1.750
 9952TIP3    H229800   6.916   7.758   1.789
 9953TIP3   OH229801   4.040   3.164   3.821
 9953TIP3    H129802   3.993   3.248   3.819
 9953TIP3    H229803   3.973   3.100   3.845
 9954TIP3   OH229804   7.212   3.523   3.121
 9954TIP3    H129805   7.179   3.612   3.106
 9954TIP3    H229806   7.171   3.470   3.052
 9955TIP3   OH229807   6.223   1.291   4.519
 9955TIP3    H129808   6.264   1.318   4.601
 9955TIP3    H229809   6.286   1.231   4.478
 9956TIP3   OH229810   0.555   2.970   6.047
 9956TIP3    H129811   0.487   3.036   6.058
 9956TIP3    H229812   0.607   3.002   5.973
 9957TIP3   OH229813   2.152   2.099   1.832
 9957TIP3    H129814   2.067   2.140   1.847
 9957TIP3    H229815   2.147   2.015   1.876
 9958TIP3   OH229816   5.536   5.233   4.819
 9958TIP3    H129817   5.537   5.155   4.875
 9958TIP3    H229818   5.461   5.284   4.850
 9959TIP3   OH229819   7.340   7.088   0.102
 9959TIP3    H129820   7.248   7.085   0.077
 9959TIP3    H229821   7.341   7.070   0.196
 9960TIP3   OH229822   1.734   2.023   6.581
 9960TIP3    H129823   1.645   2.031   6.614
 9960TIP3    H229824   1.737   1.937   6.539
 9961TIP3   OH229825   1.704   6.436   5.259
 9961TIP3    H129826   1.782   6.485   5.235
 9961TIP3    H229827   1.710   6.355   5.208
 9962TIP3   OH229828   2.487   3.674   5.231
 9962TIP3    H129829   2.477   3.690   5.137
 9962TIP3    H229830   2.518   3.757   5.267
 9963TIP3   OH229831   2.538   5.872   2.697
 9963TIP3    H129832   2.487   5.930   2.753
 9963TIP3    H229833   2.479   5.852   2.624
 9964TIP3   OH229834   5.357   7.077   2.761
 9964TIP3    H129835   5.395   7.150   2.810
 9964TIP3    H229836   5.415   7.003   2.779
 9965TIP3   OH229837   1.739   1.936   4.107
 9965TIP3    H129838   1.696   1.992   4.043
 9965TIP3    H229839   1.674   1.926   4.177
 9966TIP3   OH229840   6.497   2.554   0.992
 9966TIP3    H129841   6.533   2.470   1.021
 9966TIP3    H229842   6.574   2.605   0.966
 9967TIP3   OH229843   2.269   1.351   6.360
 9967TIP3    H129844   2.283   1.386   6.449
 9967TIP3    H229845   2.175   1.331   6.357
 9968TIP3   OH229846   4.654   1.747   2.826
 9968TIP3    H129847   4.636   1.661   2.865
 9968TIP3    H229848   4.745   1.765   2.852
 9969TIP3   OH229849   3.204   7.298   2.512
 9969TIP3    H129850   3.273   7.343   2.560
 9969TIP3    H229851   3.235   7.207   2.506
 9970TIP3   OH229852   4.629   3.536   3.501
 9970TIP3    H129853   4.648   3.448   3.535
 9970TIP3    H229854   4.586   3.580   3.575
 9971TIP3   OH229855   3.423   1.644   3.304
 9971TIP3    H129856   3.488   1.627   3.236
 9971TIP3    H229857   3.342   1.606   3.269
 9972TIP3   OH229858   5.312   0.390   0.577
 9972TIP3    H129859   5.284   0.357   0.492
 9972TIP3    H229860   5.360   0.470   0.558
 9973TIP3   OH229861   6.025   5.067   5.780
 9973TIP3    H129862   6.023   4.981   5.823
 9973TIP3    H229863   6.009   5.129   5.851
 9974TIP3   OH229864   0.308   6.128   6.547
 9974TIP3    H129865   0.294   6.113   6.453
 9974TIP3    H229866   0.351   6.213   6.552
 9975TIP3   OH229867   7.146   7.455   1.177
 9975TIP3    H129868   7.087   7.519   1.218
 9975TIP3    H229869   7.181   7.500   1.101
 9976TIP3   OH229870   8.027   7.585   2.703
 9976TIP3    H129871   7.954   7.525   2.717
 9976TIP3    H229872   8.045   7.622   2.789
 9977TIP3   OH229873   1.580   2.398   6.072
 9977TIP3    H129874   1.640   2.446   6.128
 9977TIP3    H229875   1.569   2.313   6.114
 9978TIP3   OH229876   1.063   5.822   0.593
 9978TIP3    H129877   1.074   5.862   0.507
 9978TIP3    H229878   1.053   5.897   0.653
 9979TIP3   OH229879   1.786   2.934   0.062
 9979TIP3    H129880   1.753   2.972  -0.020
 9979TIP3    H229881   1.728   2.968   0.129
 9980TIP3   OH229882   2.455   2.537   2.210
 9980TIP3    H129883   2.381   2.598   2.214
 9980TIP3    H229884   2.532   2.591   2.225
 9981TIP3   OH229885   1.495   3.648   2.883
 9981TIP3    H129886   1.586   3.650   2.912
 9981TIP3    H229887   1.447   3.608   2.955
 9982TIP3   OH229888   6.950   3.917   4.540
 9982TIP3    H129889   6.908   3.988   4.493
 9982TIP3    H229890   6.935   3.937   4.633
 9983TIP3   OH229891   1.440   0.202   5.184
 9983TIP3    H129892   1.462   0.268   5.119
 9983TIP3    H229893   1.408   0.128   5.133
 9984TIP3   OH229894   2.284   4.708   0.949
 9984TIP3    H129895   2.195   4.714   0.984
 9984TIP3    H229896   2.299   4.793   0.907
 9985TIP3   OH229897   7.427   1.895   1.406
 9985TIP3    H129898   7.381   1.926   1.484
 9985TIP3    H229899   7.431   1.800   1.416
 9986TIP3   OH229900   4.517   1.987   5.889
 9986TIP3    H129901   4.545   1.958   5.802
 9986TIP3    H229902   4.566   2.068   5.903
 9987TIP3   OH229903   1.236   7.331   0.796
 9987TIP3    H129904   1.190   7.342   0.712
 9987TIP3    H229905   1.237   7.419   0.834
 9988TIP3   OH229906   5.760   1.776   5.662
 9988TIP3    H129907   5.684   1.748   5.712
 9988TIP3    H229908   5.764   1.715   5.588
 9989TIP3   OH229909   8.080   4.754   0.171
 9989TIP3    H129910   8.139   4.816   0.213
 9989TIP3    H229911   8.070   4.683   0.235
 9990TIP3   OH229912   1.085   1.041   5.590
 9990TIP3    H129913   1.098   1.035   5.685
 9990TIP3    H229914   0.990   1.046   5.579
 9991TIP3   OH229915   7.334   6.543   2.014
 9991TIP3    H129916   7.422   6.530   1.979
 9991TIP3    H229917   7.280   6.479   1.968
 9992TIP3   OH229918   6.776   0.270   6.121
 9992TIP3    H129919   6.717   0.312   6.058
 9992TIP3    H229920   6.767   0.177   6.104
 9993TIP3   OH229921   3.483   7.550   5.507
 9993TIP3    H129922   3.497   7.459   5.478
 9993TIP3    H229923   3.465   7.542   5.601
 9994TIP3   OH229924   8.132   2.479   5.223
 9994TIP3    H129925   8.093   2.443   5.143
 9994TIP3    H229926   8.222   2.501   5.198
 9995TIP3   OH229927   4.479   1.204   6.685
 9995TIP3    H129928   4.410   1.216   6.620
 9995TIP3    H229929   4.462   1.118   6.723
 9996TIP3   OH229930   5.326   3.669   3.794
 9996TIP3    H129931   5.375   3.588   3.811
 9996TIP3    H229932   5.243   3.656   3.840
 9997TIP3   OH229933   6.486   3.872   1.567
 9997TIP3    H129934   6.393   3.892   1.566
 9997TIP3    H229935   6.527   3.948   1.607
 9998TIP3   OH229936   1.525   6.881   4.810
 9998TIP3    H129937   1.438   6.844   4.794
 9998TIP3    H229938   1.537   6.877   4.905
 9999TIP3   OH229939   3.237   2.468   4.609
 9999TIP3    H129940   3.302   2.502   4.670
 9999TIP3    H229941   3.190   2.545   4.578
10000TIP3   OH229942   2.734   4.283   2.387
10000TIP3    H129943   2.792   4.208   2.403
10000TIP3    H229944   2.745   4.338   2.464
10001TIP3   OH229945   4.066   6.956   2.983
10001TIP3    H129946   4.094   6.921   3.068
10001TIP3    H229947   4.089   7.049   2.988
10002TIP3   OH229948   5.590   0.900   3.835
10002TIP3    H129949   5.613   0.824   3.890
10002TIP3    H229950   5.580   0.864   3.747
10003TIP3   OH229951   7.345   0.425   3.090
10003TIP3    H129952   7.405   0.426   3.016
10003TIP3    H229953   7.326   0.518   3.106
10004TIP3   OH229954   5.860   0.820   2.260
10004TIP3    H129955   5.832   0.762   2.331
10004TIP3    H229956   5.906   0.763   2.199
10005TIP3   OH229957   2.005   2.508   1.710
10005TIP3    H129958   1.984   2.527   1.619
10005TIP3    H229959   2.093   2.544   1.723
10006TIP3   OH229960   6.180   2.316   1.501
10006TIP3    H129961   6.160   2.401   1.462
10006TIP3    H229962   6.102   2.295   1.553
10007TIP3   OH229963   6.502   1.453   6.625
10007TIP3    H129964   6.426   1.491   6.669
10007TIP3    H229965   6.541   1.526   6.577
10008TIP3   OH229966   5.061   7.173   2.519
10008TIP3    H129967   5.028   7.091   2.484
10008TIP3    H229968   4.991   7.237   2.503
10009TIP3   OH229969   3.664   6.145   1.213
10009TIP3    H129970   3.745   6.195   1.222
10009TIP3    H229971   3.691   6.062   1.174
10010TIP3   OH229972   3.083   1.509   1.097
10010TIP3    H129973   3.126   1.565   1.162
10010TIP3    H229974   3.072   1.566   1.020
10011TIP3   OH229975   5.033   2.463   1.896
10011TIP3    H129976   4.962   2.527   1.887
10011TIP3    H229977   4.997   2.395   1.952
10012TIP3   OH229978   2.330   0.092   0.930
10012TIP3    H129979   2.318   0.118   0.839
10012TIP3    H229980   2.275   0.152   0.980
10013TIP3   OH229981   0.706   2.462   2.149
10013TIP3    H129982   0.753   2.508   2.219
10013TIP3    H229983   0.627   2.428   2.192
10014TIP3   OH229984   5.036   3.138   6.434
10014TIP3    H129985   5.035   3.136   6.338
10014TIP3    H229986   5.008   3.227   6.457
10015TIP3   OH229987   4.942   2.208   0.518
10015TIP3    H129988   4.922   2.148   0.590
10015TIP3    H229989   5.007   2.268   0.555
10016TIP3   OH229990   7.064   2.065   2.123
10016TIP3    H129991   7.041   1.974   2.142
10016TIP3    H229992   7.156   2.072   2.149
10017TIP3   OH229993   1.886   1.099   4.370
10017TIP3    H129994   1.838   1.023   4.338
10017TIP3    H229995   1.833   1.174   4.344
10018TIP3   OH229996   6.785   5.949   3.486
10018TIP3    H129997   6.751   5.994   3.409
10018TIP3    H229998   6.737   5.866   3.489
10019TIP3   OH229999   4.785   7.195   6.256
10019TIP3    H130000   4.817   7.284   6.246
10019TIP3    H230001   4.690   7.203   6.248
10020TIP3   OH230002   6.419   3.543   5.517
10020TIP3    H130003   6.409   3.453   5.484
10020TIP3    H230004   6.514   3.555   5.524
10021TIP3   OH230005   1.206   2.880   3.108
10021TIP3    H130006   1.148   2.956   3.105
10021TIP3    H230007   1.246   2.878   3.021
10022TIP3   OH230008   1.263   2.256   4.780
10022TIP3    H130009   1.240   2.345   4.755
10022TIP3    H230010   1.197   2.201   4.737
10023TIP3   OH230011   7.674   6.066   2.297
10023TIP3    H130012   7.599   6.012   2.322
10023TIP3    H230013   7.639   6.155   2.296
10024TIP3   OH230014   2.185   5.133   2.590
10024TIP3    H130015   2.186   5.155   2.497
10024TIP3    H230016   2.110   5.182   2.625
10025TIP3   OH230017   5.951   3.924   6.466
10025TIP3    H130018   5.863   3.915   6.503
10025TIP3    H230019   5.967   3.840   6.422
10026TIP3   OH230020   5.218   5.583   3.579
10026TIP3    H130021   5.160   5.557   3.650
10026TIP3    H230022   5.281   5.511   3.572
10027TIP3   OH230023   2.997   1.153   1.977
10027TIP3    H130024   3.084   1.173   1.942
10027TIP3    H230025   3.010   1.074   2.029
10028TIP3   OH230026   2.090   4.219   2.763
10028TIP3    H130027   2.145   4.229   2.686
10028TIP3    H230028   2.148   4.183   2.830
10029TIP3   OH230029   5.085   2.259   2.238
10029TIP3    H130030   5.007   2.305   2.206
10029TIP3    H230031   5.149   2.270   2.168
10030TIP3   OH230032   1.090   3.545   2.148
10030TIP3    H130033   1.161   3.554   2.084
10030TIP3    H230034   1.131   3.564   2.232
10031TIP3   OH230035   1.690   1.114   1.320
10031TIP3    H130036   1.766   1.151   1.365
10031TIP3    H230037   1.718   1.105   1.229
10032TIP3   OH230038   1.499   3.359   1.965
10032TIP3    H130039   1.510   3.442   2.011
10032TIP3    H230040   1.588   3.331   1.944
10033TIP3   OH230041   7.340   3.644   0.490
10033TIP3    H130042   7.334   3.738   0.507
10033TIP3    H230043   7.290   3.603   0.560
10034TIP3   OH230044   0.721   0.014   5.458
10034TIP3    H130045   0.628   0.034   5.446
10034TIP3    H230046   0.760   0.098   5.482
10035TIP3   OH230047   4.124   6.351   0.840
10035TIP3    H130048   4.119   6.393   0.754
10035TIP3    H230049   4.034   6.324   0.859
10036TIP3   OH230050   6.048   0.519   5.056
10036TIP3    H130051   6.084   0.439   5.094
10036TIP3    H230052   5.981   0.489   4.996
10037TIP3   OH230053   6.238   2.045   5.469
10037TIP3    H130054   6.187   1.967   5.447
10037TIP3    H230055   6.185   2.091   5.535
10038TIP3   OH230056   6.490   7.275   1.752
10038TIP3    H130057   6.462   7.229   1.831
10038TIP3    H230058   6.448   7.226   1.681
10039TIP3   OH230059   6.719   1.109   0.835
10039TIP3    H130060   6.787   1.118   0.768
10039TIP3    H230061   6.712   1.197   0.872
10040TIP3   OH230062   2.309   1.481   6.589
10040TIP3    H130063   2.392   1.520   6.619
10040TIP3    H230064   2.247   1.502   6.659
10041TIP3   OH230065   2.426   5.613   6.670
10041TIP3    H130066   2.418   5.528   6.712
10041TIP3    H230067   2.347   5.661   6.696
10042TIP3   OH230068   6.886   1.174   6.577
10042TIP3    H130069   6.797   1.207   6.587
10042TIP3    H230070   6.920   1.220   6.501
10043TIP3   OH230071   6.628   6.017   2.685
10043TIP3    H130072   6.693   6.044   2.620
10043TIP3    H230073   6.597   5.932   2.654
10044TIP3   OH230074   1.309   0.688   2.304
10044TIP3    H130075   1.349   0.772   2.280
10044TIP3    H230076   1.249   0.709   2.376
10045TIP3   OH230077   1.125   2.721   0.981
10045TIP3    H130078   1.067   2.695   0.910
10045TIP3    H230079   1.114   2.653   1.047
10046TIP3   OH230080   0.016   5.805   4.659
10046TIP3    H130081  -0.040   5.727   4.650
10046TIP3    H230082   0.094   5.773   4.704
10047TIP3   OH230083   6.496   5.735   1.516
10047TIP3    H130084   6.496   5.661   1.576
10047TIP3    H230085   6.463   5.808   1.568
10048TIP3   OH230086   0.170   4.850   3.847
10048TIP3    H130087   0.091   4.797   3.855
10048TIP3    H230088   0.145   4.921   3.788
10049TIP3   OH230089   4.477   0.780   3.268
10049TIP3    H130090   4.498   0.713   3.203
10049TIP3    H230091   4.451   0.856   3.216
10050TIP3   OH230092   2.126   5.489   3.127
10050TIP3    H130093   2.040   5.511   3.163
10050TIP3    H230094   2.143   5.400   3.158
10051TIP3   OH230095   7.993   0.771   5.459
10051TIP3    H130096   8.033   0.759   5.373
10051TIP3    H230097   8.058   0.820   5.510
10052TIP3   OH230098   3.364   6.157   1.901
10052TIP3    H130099   3.322   6.242   1.892
10052TIP3    H230100   3.291   6.094   1.903
10053TIP3   OH230101   0.919   4.088   5.730
10053TIP3    H130102   0.991   4.098   5.792
10053TIP3    H230103   0.903   4.176   5.697
10054TIP3   OH230104   7.230   5.091   5.699
10054TIP3    H130105   7.199   5.001   5.703
10054TIP3    H230106   7.160   5.143   5.740
10055TIP3   OH230107   0.577   2.730   4.926
10055TIP3    H130108   0.551   2.704   4.838
10055TIP3    H230109   0.650   2.790   4.913
10056TIP3   OH230110   5.912   6.191   5.960
10056TIP3    H130111   5.838   6.243   5.993
10056TIP3    H230112   5.983   6.254   5.950
10057TIP3   OH230113   3.717   7.617   2.559
10057TIP3    H130114   3.623   7.598   2.552
10057TIP3    H230115   3.757   7.564   2.491
10058TIP3   OH230116   3.732   0.803   0.002
10058TIP3    H130117   3.803   0.746   0.032
10058TIP3    H230118   3.655   0.772   0.050
10059TIP3   OH230119   8.051   3.988   3.441
10059TIP3    H130120   8.099   3.921   3.393
10059TIP3    H230121   8.082   4.071   3.405
10060TIP3   OH230122   0.283   0.601   4.171
10060TIP3    H130123   0.362   0.578   4.221
10060TIP3    H230124   0.212   0.554   4.215
10061TIP3   OH230125   0.536   6.161   0.814
10061TIP3    H130126   0.454   6.113   0.827
10061TIP3    H230127   0.605   6.096   0.823
10062TIP3   OH230128   3.285   3.524   4.015
10062TIP3    H130129   3.305   3.505   3.924
10062TIP3    H230130   3.228   3.453   4.043
10063TIP3   OH230131   2.410   3.739   4.974
10063TIP3    H130132   2.329   3.705   4.936
10063TIP3    H230133   2.474   3.733   4.904
10064TIP3   OH230134   3.033   1.634   4.756
10064TIP3    H130135   3.101   1.632   4.689
10064TIP3    H230136   2.959   1.676   4.713
10065TIP3   OH230137   2.935   0.033   1.149
10065TIP3    H130138   2.846   0.064   1.131
10065TIP3    H230139   2.952   0.059   1.240
10066TIP3   OH230140   6.870   4.032   4.769
10066TIP3    H130141   6.865   4.120   4.805
10066TIP3    H230142   6.785   3.992   4.790
10067TIP3   OH230143   7.421   0.366   2.589
10067TIP3    H130144   7.452   0.322   2.668
10067TIP3    H230145   7.443   0.458   2.603
10068TIP3   OH230146   5.693   6.244   3.439
10068TIP3    H130147   5.696   6.308   3.368
10068TIP3    H230148   5.770   6.189   3.424
10069TIP3   OH230149   7.849   5.673   5.770
10069TIP3    H130150   7.879   5.629   5.849
10069TIP3    H230151   7.907   5.749   5.761
10070TIP3   OH230152   1.802   1.709   5.288
10070TIP3    H130153   1.894   1.683   5.278
10070TIP3    H230154   1.802   1.770   5.361
10071TIP3   OH230155   3.004   5.592   3.434
10071TIP3    H130156   2.962   5.669   3.474
10071TIP3    H230157   3.015   5.616   3.342
10072TIP3   OH230158   7.738   3.565   2.943
10072TIP3    H130159   7.783   3.646   2.967
10072TIP3    H230160   7.671   3.592   2.880
10073TIP3   OH230161   0.200   3.884   4.711
10073TIP3    H130162   0.272   3.869   4.650
10073TIP3    H230163   0.235   3.861   4.797
10074TIP3   OH230164   2.768   6.334   4.993
10074TIP3    H130165   2.791   6.242   4.991
10074TIP3    H230166   2.830   6.374   5.054
10075TIP3   OH230167   2.861   0.550   4.385
10075TIP3    H130168   2.927   0.532   4.319
10075TIP3    H230169   2.846   0.644   4.379
10076TIP3   OH230170   3.816   5.957   0.427
10076TIP3    H130171   3.883   5.895   0.456
10076TIP3    H230172   3.787   5.924   0.342
10077TIP3   OH230173   0.187   3.147   1.802
10077TIP3    H130174   0.262   3.183   1.851
10077TIP3    H230175   0.184   3.198   1.722
10078TIP3   OH230176   7.129   5.990   5.039
10078TIP3    H130177   7.198   6.029   4.985
10078TIP3    H230178   7.068   5.951   4.976
10079TIP3   OH230179   8.022   5.788   4.008
10079TIP3    H130180   7.952   5.732   3.977
10079TIP3    H230181   8.086   5.728   4.047
10080TIP3   OH230182   3.301   6.893   3.388
10080TIP3    H130183   3.246   6.935   3.454
10080TIP3    H230184   3.241   6.873   3.316
10081TIP3   OH230185   6.074   3.853   3.843
10081TIP3    H130186   6.039   3.800   3.771
10081TIP3    H230187   6.111   3.931   3.800
10082TIP3   OH230188   3.600   1.625   2.823
10082TIP3    H130189   3.636   1.700   2.775
10082TIP3    H230190   3.630   1.549   2.773
10083TIP3   OH230191   2.592   4.004   5.506
10083TIP3    H130192   2.589   3.967   5.418
10083TIP3    H230193   2.507   3.984   5.544
10084TIP3   OH230194   1.894   0.505   5.640
10084TIP3    H130195   1.843   0.437   5.595
10084TIP3    H230196   1.886   0.582   5.584
10085TIP3   OH230197   5.019   6.607   0.171
10085TIP3    H130198   5.045   6.659   0.095
10085TIP3    H230199   5.053   6.519   0.154
10086TIP3   OH230200   7.426   1.247   1.904
10086TIP3    H130201   7.349   1.191   1.913
10086TIP3    H230202   7.441   1.252   1.809
10087TIP3   OH230203   4.974   3.396   0.355
10087TIP3    H130204   5.068   3.408   0.369
10087TIP3    H230205   4.958   3.432   0.267
10088TIP3   OH230206   3.392   4.665   5.012
10088TIP3    H130207   3.362   4.576   5.025
10088TIP3    H230208   3.477   4.669   5.057
10089TIP3   OH230209   4.453   4.619   6.079
10089TIP3    H130210   4.421   4.548   6.134
10089TIP3    H230211   4.514   4.668   6.134
10090TIP3   OH230212   6.590   1.352   2.890
10090TIP3    H130213   6.677   1.371   2.855
10090TIP3    H230214   6.593   1.259   2.913
10091TIP3   OH230215   7.576   1.961   0.564
10091TIP3    H130216   7.574   1.872   0.528
10091TIP3    H230217   7.487   1.993   0.552
10092TIP3   OH230218   6.811   6.086   4.157
10092TIP3    H130219   6.832   6.008   4.208
10092TIP3    H230220   6.854   6.072   4.073
10093TIP3   OH230221   0.740   0.717   2.372
10093TIP3    H130222   0.685   0.756   2.440
10093TIP3    H230223   0.707   0.754   2.290
10094TIP3   OH230224   4.012   6.730   0.813
10094TIP3    H130225   4.055   6.667   0.754
10094TIP3    H230226   3.945   6.679   0.858
10095TIP3   OH230227   1.891   4.683   3.169
10095TIP3    H130228   1.832   4.681   3.244
10095TIP3    H230229   1.889   4.593   3.135
10096TIP3   OH230230   5.674   2.454   3.951
10096TIP3    H130231   5.638   2.435   3.864
10096TIP3    H230232   5.603   2.434   4.012
10097TIP3   OH230233   5.286   1.779   3.541
10097TIP3    H130234   5.264   1.828   3.462
10097TIP3    H230235   5.213   1.717   3.552
10098TIP3   OH230236   3.171   7.606   2.474
10098TIP3    H130237   3.120   7.629   2.396
10098TIP3    H230238   3.113   7.549   2.525
10099TIP3   OH230239   3.402   3.901   0.838
10099TIP3    H130240   3.348   3.824   0.820
10099TIP3    H230241   3.416   3.941   0.752
10100TIP3   OH230242   6.149   2.031   2.674
10100TIP3    H130243   6.144   1.984   2.591
10100TIP3    H230244   6.182   1.967   2.737
10101TIP3   OH230245   0.698   2.201   0.578
10101TIP3    H130246   0.771   2.260   0.597
10101TIP3    H230247   0.730   2.143   0.509
10102TIP3   OH230248   5.974   5.957   2.169
10102TIP3    H130249   6.063   5.984   2.145
10102TIP3    H230250   5.947   6.021   2.236
10103TIP3   OH230251   0.637   3.289   4.526
10103TIP3    H130252   0.587   3.250   4.454
10103TIP3    H230253   0.722   3.309   4.488
10104TIP3   OH230254   6.213   0.564   4.185
10104TIP3    H130255   6.191   0.637   4.243
10104TIP3    H230256   6.174   0.487   4.228
10105TIP3   OH230257   0.467   3.375   6.092
10105TIP3    H130258   0.507   3.462   6.103
10105TIP3    H230259   0.426   3.378   6.006
10106TIP3   OH230260   7.662   5.958   0.831
10106TIP3    H130261   7.626   5.943   0.744
10106TIP3    H230262   7.708   5.877   0.853
10107TIP3   OH230263   3.389   3.485   6.548
10107TIP3    H130264   3.327   3.421   6.580
10107TIP3    H230265   3.431   3.520   6.627
10108TIP3   OH230266   6.979   0.199   0.567
10108TIP3    H130267   6.916   0.266   0.540
10108TIP3    H230268   6.961   0.125   0.509
10109TIP3   OH230269   3.498   7.474   4.644
10109TIP3    H130270   3.525   7.517   4.725
10109TIP3    H230271   3.498   7.544   4.579
10110TIP3   OH230272   5.931   4.714   6.156
10110TIP3    H130273   5.948   4.742   6.246
10110TIP3    H230274   5.986   4.636   6.144
10111TIP3   OH230275   1.532   1.672   3.273
10111TIP3    H130276   1.448   1.637   3.302
10111TIP3    H230277   1.559   1.612   3.203
10112TIP3   OH230278   0.069   5.560   1.338
10112TIP3    H130279   0.041   5.470   1.325
10112TIP3    H230280   0.110   5.585   1.255
10113TIP3   OH230281   5.032   2.081   4.625
10113TIP3    H130282   5.008   2.002   4.673
10113TIP3    H230283   4.949   2.120   4.599
10114TIP3   OH230284   0.153   5.447   2.838
10114TIP3    H130285   0.061   5.470   2.830
10114TIP3    H230286   0.162   5.368   2.784
10115TIP3   OH230287   2.374   0.761   1.167
10115TIP3    H130288   2.300   0.803   1.124
10115TIP3    H230289   2.349   0.669   1.173
10116TIP3   OH230290   1.491   4.427   1.391
10116TIP3    H130291   1.417   4.373   1.363
10116TIP3    H230292   1.568   4.372   1.377
10117TIP3   OH230293   4.430   6.593   2.604
10117TIP3    H130294   4.377   6.673   2.605
10117TIP3    H230295   4.401   6.544   2.680
10118TIP3   OH230296   4.111   2.016   6.226
10118TIP3    H130297   4.118   1.927   6.261
10118TIP3    H230298   4.198   2.055   6.240
10119TIP3   OH230299   4.568   2.892   6.061
10119TIP3    H130300   4.566   2.811   6.112
10119TIP3    H230301   4.511   2.875   5.986
10120TIP3   OH230302   7.291   5.596   3.827
10120TIP3    H130303   7.323   5.634   3.745
10120TIP3    H230304   7.369   5.588   3.882
10121TIP3   OH230305   2.474   4.876   4.859
10121TIP3    H130306   2.499   4.896   4.950
10121TIP3    H230307   2.410   4.943   4.837
10122TIP3   OH230308   1.264   6.825   1.762
10122TIP3    H130309   1.324   6.864   1.700
10122TIP3    H230310   1.317   6.808   1.840
10123TIP3   OH230311   7.000   7.005   5.603
10123TIP3    H130312   6.965   6.943   5.666
10123TIP3    H230313   6.942   6.997   5.527
10124TIP3   OH230314   6.216   6.830   2.747
10124TIP3    H130315   6.284   6.786   2.798
10124TIP3    H230316   6.258   6.849   2.663
10125TIP3   OH230317   6.112   7.423   6.082
10125TIP3    H130318   6.126   7.393   5.992
10125TIP3    H230319   6.168   7.366   6.135
10126TIP3   OH230320   6.965   4.220   3.490
10126TIP3    H130321   7.027   4.149   3.505
10126TIP3    H230322   6.881   4.176   3.477
10127TIP3   OH230323   3.931   2.156   3.772
10127TIP3    H130324   4.020   2.190   3.780
10127TIP3    H230325   3.931   2.108   3.689
10128TIP3   OH230326   6.240   5.603   0.520
10128TIP3    H130327   6.201   5.685   0.549
10128TIP3    H230328   6.273   5.562   0.600
10129TIP3   OH230329   7.564   6.244   4.526
10129TIP3    H130330   7.563   6.269   4.433
10129TIP3    H230331   7.515   6.312   4.570
10130TIP3   OH230332   8.192   3.448   0.266
10130TIP3    H130333   8.262   3.423   0.205
10130TIP3    H230334   8.163   3.365   0.303
10131TIP3   OH230335   4.991   0.559   6.409
10131TIP3    H130336   4.909   0.520   6.438
10131TIP3    H230337   5.019   0.505   6.335
10132TIP3   OH230338   2.282   7.390   1.331
10132TIP3    H130339   2.318   7.452   1.395
10132TIP3    H230340   2.357   7.336   1.306
10133TIP3   OH230341   6.677   1.184   2.306
10133TIP3    H130342   6.703   1.117   2.244
10133TIP3    H230343   6.592   1.215   2.274
10134TIP3   OH230344   7.209   4.620   5.863
10134TIP3    H130345   7.136   4.557   5.861
10134TIP3    H230346   7.250   4.607   5.948
10135TIP3   OH230347   6.728   5.494   4.087
10135TIP3    H130348   6.796   5.429   4.069
10135TIP3    H230349   6.693   5.468   4.173
10136TIP3   OH230350   0.421   4.336   3.822
10136TIP3    H130351   0.326   4.345   3.838
10136TIP3    H230352   0.460   4.347   3.909
10137TIP3   OH230353   0.422   1.632   0.727
10137TIP3    H130354   0.376   1.593   0.801
10137TIP3    H230355   0.369   1.609   0.651
10138TIP3   OH230356   6.714   1.703   0.238
10138TIP3    H130357   6.697   1.650   0.316
10138TIP3    H230358   6.664   1.784   0.252
10139TIP3   OH230359   1.412   3.237   4.345
10139TIP3    H130360   1.498   3.249   4.384
10139TIP3    H230361   1.402   3.142   4.338
10140TIP3   OH230362   0.226   1.674   2.248
10140TIP3    H130363   0.228   1.756   2.297
10140TIP3    H230364   0.301   1.624   2.281
10141TIP3   OH230365   4.026   4.880   2.416
10141TIP3    H130366   3.972   4.956   2.394
10141TIP3    H230367   4.028   4.878   2.511
10142TIP3   OH230368   3.856   2.178   2.499
10142TIP3    H130369   3.829   2.219   2.417
10142TIP3    H230370   3.820   2.090   2.495
10143TIP3   OH230371   7.970   7.174   2.460
10143TIP3    H130372   7.891   7.226   2.474
10143TIP3    H230373   7.939   7.096   2.414
10144TIP3   OH230374   4.825   5.977   3.046
10144TIP3    H130375   4.878   6.020   2.979
10144TIP3    H230376   4.874   5.897   3.067
10145TIP3   OH230377   2.191   3.370   0.542
10145TIP3    H130378   2.128   3.436   0.571
10145TIP3    H230379   2.146   3.321   0.474
10146TIP3   OH230380   7.741   6.441   1.093
10146TIP3    H130381   7.704   6.370   1.040
10146TIP3    H230382   7.774   6.504   1.029
10147TIP3   OH230383   4.726   3.236   1.231
10147TIP3    H130384   4.751   3.147   1.257
10147TIP3    H230385   4.643   3.252   1.276
10148TIP3   OH230386   3.826   2.633   3.716
10148TIP3    H130387   3.918   2.610   3.703
10148TIP3    H230388   3.826   2.683   3.798
10149TIP3   OH230389   0.132   0.439   6.742
10149TIP3    H130390   0.113   0.347   6.722
10149TIP3    H230391   0.086   0.488   6.674
10150TIP3   OH230392   8.070   5.746   0.368
10150TIP3    H130393   8.138   5.694   0.412
10150TIP3    H230394   7.999   5.753   0.432
10151TIP3   OH230395   7.490   2.799   0.570
10151TIP3    H130396   7.398   2.781   0.588
10151TIP3    H230397   7.514   2.866   0.635
10152TIP3   OH230398   1.464   4.741   4.049
10152TIP3    H130399   1.533   4.767   3.989
10152TIP3    H230400   1.466   4.645   4.048
10153TIP3   OH230401   2.349   5.012   1.667
10153TIP3    H130402   2.361   5.032   1.574
10153TIP3    H230403   2.257   4.986   1.675
10154TIP3   OH230404   5.347   3.354   5.134
10154TIP3    H130405   5.442   3.348   5.146
10154TIP3    H230406   5.331   3.447   5.117
10155TIP3   OH230407   5.271   3.379   4.044
10155TIP3    H130408   5.192   3.433   4.042
10155TIP3    H230409   5.289   3.360   3.952
10156TIP3   OH230410   5.050   4.732   1.946
10156TIP3    H130411   4.970   4.686   1.973
10156TIP3    H230412   5.086   4.767   2.027
10157TIP3   OH230413   7.513   7.272   3.108
10157TIP3    H130414   7.570   7.239   3.177
10157TIP3    H230415   7.438   7.213   3.109
10158TIP3   OH230416   3.742   1.489   1.381
10158TIP3    H130417   3.738   1.567   1.436
10158TIP3    H230418   3.721   1.520   1.293
10159TIP3   OH230419   4.151   6.411   3.679
10159TIP3    H130420   4.155   6.427   3.585
10159TIP3    H230421   4.097   6.332   3.687
10160TIP3   OH230422   6.272   7.487   4.224
10160TIP3    H130423   6.180   7.473   4.205
10160TIP3    H230424   6.274   7.564   4.280
10161TIP3   OH230425   5.496   1.207   5.307
10161TIP3    H130426   5.450   1.283   5.343
10161TIP3    H230427   5.583   1.241   5.284
10162TIP3   OH230428   6.659   7.669   2.120
10162TIP3    H130429   6.729   7.630   2.068
10162TIP3    H230430   6.703   7.705   2.196
10163TIP3   OH230431   7.831   1.941   2.252
10163TIP3    H130432   7.847   1.933   2.158
10163TIP3    H230433   7.789   2.026   2.263
10164TIP3   OH230434   3.050   5.804   1.679
10164TIP3    H130435   3.038   5.713   1.650
10164TIP3    H230436   3.098   5.846   1.609
10165TIP3   OH230437   5.291   3.556   3.401
10165TIP3    H130438   5.308   3.624   3.466
10165TIP3    H230439   5.378   3.520   3.382
10166TIP3   OH230440   3.385   5.113   2.266
10166TIP3    H130441   3.290   5.098   2.271
10166TIP3    H230442   3.408   5.095   2.175
10167TIP3   OH230443   7.384   3.278   2.458
10167TIP3    H130444   7.320   3.305   2.393
10167TIP3    H230445   7.436   3.210   2.415
10168TIP3   OH230446   7.237   2.012   5.588
10168TIP3    H130447   7.200   1.974   5.508
10168TIP3    H230448   7.283   1.939   5.630
10169TIP3   OH230449   7.244   5.721   1.601
10169TIP3    H130450   7.251   5.770   1.519
10169TIP3    H230451   7.184   5.649   1.580
10170TIP3   OH230452   0.553   6.139   4.365
10170TIP3    H130453   0.482   6.075   4.360
10170TIP3    H230454   0.549   6.171   4.455
10171TIP3   OH230455   4.779   2.585   2.411
10171TIP3    H130456   4.687   2.592   2.385
10171TIP3    H230457   4.828   2.603   2.331
10172TIP3   OH230458   0.648   1.080   5.045
10172TIP3    H130459   0.653   0.990   5.077
10172TIP3    H230460   0.565   1.084   4.998
10173TIP3   OH230461   7.464   4.094   1.730
10173TIP3    H130462   7.494   4.049   1.651
10173TIP3    H230463   7.520   4.058   1.800
10174TIP3   OH230464   7.143   7.000   4.169
10174TIP3    H130465   7.095   7.067   4.217
10174TIP3    H230466   7.203   7.049   4.113
10175TIP3   OH230467   1.116   0.133   1.817
10175TIP3    H130468   1.115   0.145   1.912
10175TIP3    H230469   1.200   0.091   1.799
10176TIP3   OH230470   5.027   7.711   0.059
10176TIP3    H130471   5.019   7.718   0.154
10176TIP3    H230472   4.969   7.779   0.025
10177TIP3   OH230473   2.332   0.050   5.641
10177TIP3    H130474   2.321   0.143   5.662
10177TIP3    H230475   2.368   0.012   5.721
10178TIP3   OH230476   1.501   1.159   5.150
10178TIP3    H130477   1.506   1.125   5.061
10178TIP3    H230478   1.553   1.240   5.148
10179TIP3   OH230479   4.944   7.104   6.029
10179TIP3    H130480   4.892   7.027   6.049
10179TIP3    H230481   4.885   7.178   6.045
10180TIP3   OH230482   7.675   7.639   3.945
10180TIP3    H130483   7.740   7.708   3.951
10180TIP3    H230484   7.598   7.675   3.990
10181TIP3   OH230485   6.921   7.191   3.092
10181TIP3    H130486   6.986   7.156   3.032
10181TIP3    H230487   6.921   7.131   3.166
10182TIP3   OH230488   8.180   5.807   1.265
10182TIP3    H130489   8.271   5.791   1.290
10182TIP3    H230490   8.186   5.859   1.185
10183TIP3   OH230491   5.303   4.228   4.698
10183TIP3    H130492   5.312   4.236   4.792
10183TIP3    H230493   5.392   4.210   4.666
10184TIP3   OH230494   0.715   6.860   0.641
10184TIP3    H130495   0.780   6.792   0.621
10184TIP3    H230496   0.679   6.834   0.725
10185TIP3   OH230497   1.943   1.985   5.175
10185TIP3    H130498   1.976   2.073   5.157
10185TIP3    H230499   1.929   1.984   5.270
10186TIP3   OH230500   7.463   3.451   0.804
10186TIP3    H130501   7.462   3.439   0.899
10186TIP3    H230502   7.522   3.525   0.789
10187TIP3   OH230503   7.107   2.524   4.733
10187TIP3    H130504   7.031   2.467   4.733
10187TIP3    H230505   7.140   2.520   4.823
10188TIP3   OH230506   6.288   5.767   6.552
10188TIP3    H130507   6.247   5.823   6.619
10188TIP3    H230508   6.283   5.679   6.588
10189TIP3   OH230509   7.608   2.660   1.928
10189TIP3    H130510   7.660   2.598   1.979
10189TIP3    H230511   7.672   2.701   1.869
10190TIP3   OH230512   1.174   3.664   3.885
10190TIP3    H130513   1.268   3.683   3.881
10190TIP3    H230514   1.165   3.602   3.957
10191TIP3   OH230515   4.820   0.679   5.314
10191TIP3    H130516   4.841   0.748   5.377
10191TIP3    H230517   4.859   0.600   5.351
10192TIP3   OH230518   2.183   7.303   5.510
10192TIP3    H130519   2.259   7.300   5.567
10192TIP3    H230520   2.213   7.262   5.428
10193TIP3   OH230521   4.805   3.752   2.511
10193TIP3    H130522   4.894   3.731   2.537
10193TIP3    H230523   4.757   3.761   2.594
10194TIP3   OH230524   4.601   2.761   3.707
10194TIP3    H130525   4.573   2.674   3.677
10194TIP3    H230526   4.565   2.821   3.643
10195TIP3   OH230527   2.658   0.191   6.302
10195TIP3    H130528   2.661   0.135   6.380
10195TIP3    H230529   2.580   0.245   6.315
10196TIP3   OH230530   1.198   6.096   4.085
10196TIP3    H130531   1.271   6.083   4.024
10196TIP3    H230532   1.227   6.054   4.165
10197TIP3   OH230533   1.109   1.698   2.240
10197TIP3    H130534   1.069   1.781   2.212
10197TIP3    H230535   1.068   1.632   2.184
10198TIP3   OH230536   2.057   3.564   0.702
10198TIP3    H130537   2.017   3.645   0.735
10198TIP3    H230538   1.989   3.523   0.649
10199TIP3   OH230539   1.549   2.497   4.607
10199TIP3    H130540   1.612   2.489   4.678
10199TIP3    H230541   1.544   2.410   4.568
10200TIP3   OH230542   7.916   4.893   5.792
10200TIP3    H130543   7.871   4.951   5.853
10200TIP3    H230544   7.939   4.950   5.718
10201TIP3   OH230545   2.327   0.417   5.160
10201TIP3    H130546   2.369   0.457   5.084
10201TIP3    H230547   2.375   0.335   5.174
10202TIP3   OH230548   4.224   3.616   0.791
10202TIP3    H130549   4.316   3.603   0.767
10202TIP3    H230550   4.211   3.711   0.788
10203TIP3   OH230551   7.528   4.250   3.912
10203TIP3    H130552   7.465   4.183   3.884
10203TIP3    H230553   7.549   4.298   3.831
10204TIP3   OH230554   7.632   4.578   4.568
10204TIP3    H130555   7.570   4.521   4.614
10204TIP3    H230556   7.666   4.524   4.497
10205TIP3   OH230557   4.904   7.608   5.449
10205TIP3    H130558   4.998   7.621   5.441
10205TIP3    H230559   4.894   7.515   5.469
10206TIP3   OH230560   3.082   1.898   4.228
10206TIP3    H130561   3.061   1.984   4.191
10206TIP3    H230562   3.021   1.838   4.187
10207TIP3   OH230563   3.554   2.941   5.049
10207TIP3    H130564   3.549   2.850   5.077
10207TIP3    H230565   3.606   2.985   5.117
10208TIP3   OH230566   5.117   2.932   5.640
10208TIP3    H130567   5.043   2.932   5.701
10208TIP3    H230568   5.188   2.974   5.687
10209TIP3   OH230569   0.708   6.794   0.905
10209TIP3    H130570   0.630   6.741   0.887
10209TIP3    H230571   0.725   6.780   0.998
10210TIP3   OH230572   0.926   7.109   1.200
10210TIP3    H130573   0.885   7.160   1.130
10210TIP3    H230574   1.016   7.141   1.203
10211TIP3   OH230575   7.174   1.002   2.112
10211TIP3    H130576   7.140   1.086   2.081
10211TIP3    H230577   7.163   0.942   2.039
10212TIP3   OH230578   5.065   2.772   0.641
10212TIP3    H130579   5.147   2.723   0.634
10212TIP3    H230580   5.057   2.816   0.556
10213TIP3   OH230581   4.758   2.180   2.672
10213TIP3    H130582   4.755   2.156   2.580
10213TIP3    H230583   4.690   2.127   2.713
10214TIP3   OH230584   2.104   1.134   0.088
10214TIP3    H130585   2.012   1.128   0.111
10214TIP3    H230586   2.149   1.146   0.171
10215TIP3   OH230587   5.293   5.462   6.114
10215TIP3    H130588   5.319   5.397   6.179
10215TIP3    H230589   5.371   5.515   6.099
10216TIP3   OH230590   1.110   0.261   0.221
10216TIP3    H130591   1.058   0.341   0.216
10216TIP3    H230592   1.047   0.191   0.238
10217TIP3   OH230593   3.580   0.047   5.270
10217TIP3    H130594   3.504   0.073   5.217
10217TIP3    H230595   3.543   0.027   5.356
10218TIP3   OH230596   4.990   3.198   3.606
10218TIP3    H130597   5.057   3.266   3.594
10218TIP3    H230598   4.909   3.240   3.576
10219TIP3   OH230599   4.022   1.141   4.708
10219TIP3    H130600   4.117   1.149   4.720
10219TIP3    H230601   3.986   1.164   4.794
10220TIP3   OH230602   2.252   6.887   2.960
10220TIP3    H130603   2.312   6.825   3.001
10220TIP3    H230604   2.209   6.836   2.890
10221TIP3   OH230605   0.092   7.287   4.652
10221TIP3    H130606   0.038   7.216   4.686
10221TIP3    H230607   0.092   7.275   4.557
10222TIP3   OH230608   1.979   1.473   3.719
10222TIP3    H130609   2.022   1.513   3.794
10222TIP3    H230610   1.903   1.528   3.702
10223TIP3   OH230611   0.245   3.756   5.212
10223TIP3    H130612   0.286   3.677   5.247
10223TIP3    H230613   0.167   3.769   5.265
10224TIP3   OH230614   7.996   6.799   3.878
10224TIP3    H130615   8.075   6.820   3.829
10224TIP3    H230616   7.989   6.868   3.943
10225TIP3   OH230617   2.137   2.940   5.453
10225TIP3    H130618   2.148   2.904   5.540
10225TIP3    H230619   2.217   2.917   5.406
10226TIP3   OH230620   4.478   3.962   2.653
10226TIP3    H130621   4.543   3.902   2.688
10226TIP3    H230622   4.462   3.931   2.564
10227TIP3   OH230623   0.856   5.642   5.360
10227TIP3    H130624   0.808   5.607   5.286
10227TIP3    H230625   0.938   5.593   5.362
10228TIP3   OH230626   7.930   0.318   0.575
10228TIP3    H130627   7.997   0.378   0.609
10228TIP3    H230628   7.961   0.296   0.487
10229TIP3   OH230629   0.158   1.610   2.626
10229TIP3    H130630   0.064   1.627   2.635
10229TIP3    H230631   0.196   1.694   2.604
10230TIP3   OH230632   1.930   7.243   3.977
10230TIP3    H130633   1.910   7.331   3.946
10230TIP3    H230634   1.857   7.189   3.946
10231TIP3   OH230635   1.970   4.443   2.988
10231TIP3    H130636   2.023   4.393   3.051
10231TIP3    H230637   2.022   4.442   2.908
10232TIP3   OH230638   4.696   0.028   3.071
10232TIP3    H130639   4.721   0.068   2.988
10232TIP3    H230640   4.623   0.081   3.103
10233TIP3   OH230641   1.929   2.300   1.880
10233TIP3    H130642   1.908   2.360   1.951
10233TIP3    H230643   1.962   2.356   1.809
10234TIP3   OH230644   1.658   2.100   4.671
10234TIP3    H130645   1.578   2.139   4.635
10234TIP3    H230646   1.721   2.104   4.599
10235TIP3   OH230647   3.706   7.438   1.399
10235TIP3    H130648   3.734   7.377   1.467
10235TIP3    H230649   3.777   7.436   1.334
10236TIP3   OH230650   8.099   2.433   3.187
10236TIP3    H130651   8.175   2.473   3.144
10236TIP3    H230652   8.032   2.432   3.118
10237TIP3   OH230653   4.661   5.694   1.535
10237TIP3    H130654   4.592   5.727   1.593
10237TIP3    H230655   4.732   5.670   1.595
10238TIP3   OH230656   5.875   1.401   0.826
10238TIP3    H130657   5.964   1.421   0.799
10238TIP3    H230658   5.884   1.343   0.901
10239TIP3   OH230659   6.707   0.340   3.818
10239TIP3    H130660   6.714   0.280   3.744
10239TIP3    H230661   6.681   0.285   3.892
10240TIP3   OH230662   0.527   6.547   4.760
10240TIP3    H130663   0.446   6.521   4.715
10240TIP3    H230664   0.574   6.601   4.696
10241TIP3   OH230665   4.321   4.060   1.718
10241TIP3    H130666   4.417   4.063   1.717
10241TIP3    H230667   4.296   4.101   1.801
10242TIP3   OH230668   7.015   0.481   2.276
10242TIP3    H130669   7.064   0.421   2.219
10242TIP3    H230670   6.938   0.505   2.225
10243TIP3   OH230671   0.694   6.351   1.632
10243TIP3    H130672   0.756   6.423   1.617
10243TIP3    H230673   0.612   6.395   1.657
10244TIP3   OH230674   0.093   4.676   4.166
10244TIP3    H130675   0.023   4.716   4.114
10244TIP3    H230676   0.165   4.740   4.162
10245TIP3   OH230677   4.396   0.297   2.870
10245TIP3    H130678   4.392   0.201   2.873
10245TIP3    H230679   4.446   0.316   2.791
10246TIP3   OH230680   0.026   7.520   5.897
10246TIP3    H130681   0.014   7.515   5.802
10246TIP3    H230682   0.070   7.604   5.911
10247TIP3   OH230683   2.033   1.651   2.976
10247TIP3    H130684   2.123   1.640   2.944
10247TIP3    H230685   1.982   1.669   2.897
10248TIP3   OH230686   3.899   7.465   0.422
10248TIP3    H130687   3.909   7.439   0.513
10248TIP3    H230688   3.805   7.474   0.409
10249TIP3   OH230689   4.295   2.597   3.155
10249TIP3    H130690   4.342   2.635   3.229
10249TIP3    H230691   4.208   2.638   3.157
10250TIP3   OH230692   4.602   1.023   1.175
10250TIP3    H130693   4.515   0.985   1.169
10250TIP3    H230694   4.655   0.972   1.114
10251TIP3   OH230695   3.156   4.634   6.374
10251TIP3    H130696   3.081   4.607   6.322
10251TIP3    H230697   3.127   4.714   6.418
10252TIP3   OH230698   2.721   6.120   3.716
10252TIP3    H130699   2.678   6.188   3.663
10252TIP3    H230700   2.814   6.140   3.709
10253TIP3   OH230701   1.604   5.982   2.217
10253TIP3    H130702   1.534   6.001   2.155
10253TIP3    H230703   1.598   6.052   2.282
10254TIP3   OH230704   5.785   5.723   5.910
10254TIP3    H130705   5.780   5.808   5.866
10254TIP3    H230706   5.851   5.736   5.978
10255TIP3   OH230707   0.313   3.777   6.680
10255TIP3    H130708   0.402   3.796   6.707
10255TIP3    H230709   0.302   3.823   6.596
10256TIP3   OH230710   7.026   0.065  -0.007
10256TIP3    H130711   7.097   0.002  -0.020
10256TIP3    H230712   7.061   0.127   0.057
10257TIP3   OH230713   0.211   5.981   2.633
10257TIP3    H130714   0.192   5.899   2.677
10257TIP3    H230715   0.143   5.989   2.566
10258TIP3   OH230716   0.326   5.968   3.729
10258TIP3    H130717   0.412   5.965   3.688
10258TIP3    H230718   0.303   6.061   3.732
10259TIP3   OH230719   6.190   7.286   6.314
10259TIP3    H130720   6.154   7.204   6.347
10259TIP3    H230721   6.165   7.351   6.381
10260TIP3   OH230722   2.922   3.114   4.613
10260TIP3    H130723   2.910   3.033   4.562
10260TIP3    H230724   3.006   3.103   4.656
10261TIP3   OH230725   0.631   5.382   0.572
10261TIP3    H130726   0.697   5.315   0.553
10261TIP3    H230727   0.678   5.465   0.567
10262TIP3   OH230728   7.106   7.654   0.144
10262TIP3    H130729   7.143   7.573   0.178
10262TIP3    H230730   7.097   7.711   0.220
10263TIP3   OH230731   3.255   2.374   1.859
10263TIP3    H130732   3.214   2.310   1.800
10263TIP3    H230733   3.320   2.419   1.804
10264TIP3   OH230734   7.224   2.487   2.026
10264TIP3    H130735   7.234   2.531   1.941
10264TIP3    H230736   7.172   2.409   2.006
10265TIP3   OH230737   0.226   2.644   2.843
10265TIP3    H130738   0.273   2.713   2.797
10265TIP3    H230739   0.236   2.566   2.788
10266TIP3   OH230740   4.044   4.615   0.671
10266TIP3    H130741   4.085   4.670   0.738
10266TIP3    H230742   4.081   4.528   0.685
10267TIP3   OH230743   4.809   5.641   5.475
10267TIP3    H130744   4.752   5.634   5.399
10267TIP3    H230745   4.827   5.735   5.483
10268TIP3   OH230746   5.111   5.500   4.464
10268TIP3    H130747   5.130   5.573   4.405
10268TIP3    H230748   5.041   5.533   4.521
10269TIP3   OH230749   0.545   1.769   3.121
10269TIP3    H130750   0.609   1.753   3.052
10269TIP3    H230751   0.588   1.739   3.201
10270TIP3   OH230752   5.204   5.846   3.363
10270TIP3    H130753   5.223   5.770   3.309
10270TIP3    H230754   5.115   5.832   3.395
10271TIP3   OH230755   2.267   1.246   2.091
10271TIP3    H130756   2.257   1.213   2.181
10271TIP3    H230757   2.309   1.331   2.102
10272TIP3   OH230758   3.496   4.786   4.096
10272TIP3    H130759   3.566   4.742   4.048
10272TIP3    H230760   3.524   4.783   4.187
10273TIP3   OH230761   6.303   5.496   0.001
10273TIP3    H130762   6.220   5.512   0.046
10273TIP3    H230763   6.314   5.401   0.005
10274TIP3   OH230764   3.173   5.880   6.148
10274TIP3    H130765   3.221   5.943   6.202
10274TIP3    H230766   3.085   5.880   6.184
10275TIP3   OH230767   0.938   7.279   6.622
10275TIP3    H130768   0.955   7.227   6.544
10275TIP3    H230769   0.990   7.358   6.611
10276TIP3   OH230770   5.194   6.476   2.683
10276TIP3    H130771   5.113   6.441   2.721
10276TIP3    H230772   5.206   6.426   2.602
10277TIP3   OH230773   6.007   7.653   0.481
10277TIP3    H130774   6.070   7.717   0.450
10277TIP3    H230775   6.015   7.579   0.421
10278TIP3   OH230776   5.231   4.647   1.017
10278TIP3    H130777   5.149   4.605   0.992
10278TIP3    H230778   5.220   4.738   0.990
10279TIP3   OH230779   2.222   0.345   2.679
10279TIP3    H130780   2.196   0.281   2.745
10279TIP3    H230781   2.224   0.295   2.597
10280TIP3   OH230782   7.437   6.942   0.792
10280TIP3    H130783   7.474   7.030   0.786
10280TIP3    H230784   7.350   6.956   0.831
10281TIP3   OH230785   1.939   3.357   3.846
10281TIP3    H130786   1.860   3.411   3.850
10281TIP3    H230787   1.963   3.342   3.937
10282TIP3   OH230788   3.614   1.283   5.608
10282TIP3    H130789   3.556   1.243   5.543
10282TIP3    H230790   3.614   1.221   5.681
10283TIP3   OH230791   2.694   2.030   1.392
10283TIP3    H130792   2.629   2.009   1.459
10283TIP3    H230793   2.693   1.955   1.333
10284TIP3   OH230794   0.314   4.640   3.928
10284TIP3    H130795   0.266   4.720   3.909
10284TIP3    H230796   0.256   4.569   3.901
10285TIP3   OH230797   4.333   5.386   4.310
10285TIP3    H130798   4.339   5.316   4.244
10285TIP3    H230799   4.376   5.461   4.269
10286TIP3   OH230800   2.341   6.102   1.657
10286TIP3    H130801   2.434   6.126   1.663
10286TIP3    H230802   2.305   6.123   1.743
10287TIP3   OH230803   0.392   0.626   6.151
10287TIP3    H130804   0.436   0.612   6.068
10287TIP3    H230805   0.300   0.603   6.134
10288TIP3   OH230806   7.130   3.288   4.371
10288TIP3    H130807   7.189   3.217   4.396
10288TIP3    H230808   7.101   3.266   4.282
10289TIP3   OH230809   4.344   6.653   6.655
10289TIP3    H130810   4.438   6.639   6.641
10289TIP3    H230811   4.335   6.667   6.749
10290TIP3   OH230812   0.712   5.719   1.056
10290TIP3    H130813   0.685   5.769   1.132
10290TIP3    H230814   0.748   5.638   1.092
10291TIP3   OH230815   2.717   6.368   2.327
10291TIP3    H130816   2.736   6.422   2.404
10291TIP3    H230817   2.779   6.398   2.261
10292TIP3   OH230818   0.559   2.813   6.475
10292TIP3    H130819   0.577   2.902   6.505
10292TIP3    H230820   0.612   2.757   6.530
10293TIP3   OH230821   7.271   4.056   3.295
10293TIP3    H130822   7.189   4.008   3.285
10293TIP3    H230823   7.338   3.989   3.298
10294TIP3   OH230824   6.364   0.158   4.216
10294TIP3    H130825   6.364   0.080   4.271
10294TIP3    H230826   6.453   0.194   4.224
10295TIP3   OH230827   0.912   6.601   6.083
10295TIP3    H130828   0.831   6.582   6.129
10295TIP3    H230829   0.904   6.553   6.000
10296TIP3   OH230830   0.644   3.281   1.191
10296TIP3    H130831   0.568   3.270   1.247
10296TIP3    H230832   0.621   3.353   1.132
10297TIP3   OH230833   7.619   6.341   2.249
10297TIP3    H130834   7.602   6.427   2.287
10297TIP3    H230835   7.713   6.326   2.266
10298TIP3   OH230836   4.118   1.720   5.855
10298TIP3    H130837   4.085   1.701   5.943
10298TIP3    H230838   4.171   1.799   5.865
10299TIP3   OH230839   7.571   1.458   2.031
10299TIP3    H130840   7.510   1.393   1.995
10299TIP3    H230841   7.610   1.499   1.954
10300TIP3   OH230842   4.435   2.203   3.740
10300TIP3    H130843   4.449   2.214   3.646
10300TIP3    H230844   4.510   2.151   3.769
10301TIP3   OH230845   6.164   2.125   3.141
10301TIP3    H130846   6.238   2.169   3.182
10301TIP3    H230847   6.153   2.168   3.057
10302TIP3   OH230848   6.977   4.897   4.122
10302TIP3    H130849   6.934   4.881   4.206
10302TIP3    H230850   6.983   4.811   4.081
10303TIP3   OH230851   7.711   2.060   3.996
10303TIP3    H130852   7.757   2.065   4.079
10303TIP3    H230853   7.662   2.142   3.990
10304TIP3   OH230854   5.107   2.568   2.736
10304TIP3    H130855   5.055   2.635   2.779
10304TIP3    H230856   5.046   2.524   2.677
10305TIP3   OH230857   6.697   1.421   6.278
10305TIP3    H130858   6.730   1.441   6.365
10305TIP3    H230859   6.730   1.492   6.223
10306TIP3   OH230860   4.041   6.861   3.440
10306TIP3    H130861   4.043   6.928   3.509
10306TIP3    H230862   3.976   6.798   3.469
10307TIP3   OH230863   6.971   3.123   2.203
10307TIP3    H130864   6.955   3.029   2.205
10307TIP3    H230865   7.066   3.131   2.206
10308TIP3   OH230866   1.378   4.909   6.446
10308TIP3    H130867   1.427   4.829   6.463
10308TIP3    H230868   1.295   4.898   6.493
10309TIP3   OH230869   6.010   1.467   5.530
10309TIP3    H130870   5.924   1.506   5.515
10309TIP3    H230871   6.033   1.494   5.619
10310TIP3   OH230872   4.148   0.419   0.705
10310TIP3    H130873   4.170   0.327   0.718
10310TIP3    H230874   4.225   0.466   0.736
10311TIP3   OH230875   0.640   3.728   1.756
10311TIP3    H130876   0.605   3.763   1.838
10311TIP3    H230877   0.574   3.750   1.690
10312TIP3   OH230878   6.996   5.744   5.458
10312TIP3    H130879   6.980   5.719   5.367
10312TIP3    H230880   7.069   5.806   5.453
10313TIP3   OH230881   2.652   4.202   3.074
10313TIP3    H130882   2.561   4.201   3.044
10313TIP3    H230883   2.651   4.148   3.153
10314TIP3   OH230884   4.351   0.771   1.912
10314TIP3    H130885   4.321   0.837   1.849
10314TIP3    H230886   4.270   0.732   1.945
10315TIP3   OH230887   4.705   7.646   0.117
10315TIP3    H130888   4.610   7.646   0.107
10315TIP3    H230889   4.737   7.601   0.039
10316TIP3   OH230890   2.944   2.978   1.352
10316TIP3    H130891   2.946   3.070   1.379
10316TIP3    H230892   3.030   2.963   1.313
10317TIP3   OH230893   2.594   2.396   4.347
10317TIP3    H130894   2.576   2.433   4.261
10317TIP3    H230895   2.671   2.341   4.333
10318TIP3   OH230896   5.784   2.286   2.137
10318TIP3    H130897   5.743   2.340   2.204
10318TIP3    H230898   5.838   2.224   2.186
10319TIP3   OH230899   3.611   2.398   0.669
10319TIP3    H130900   3.695   2.446   0.666
10319TIP3    H230901   3.613   2.353   0.753
10320TIP3   OH230902   6.610   3.973   4.845
10320TIP3    H130903   6.552   3.984   4.769
10320TIP3    H230904   6.560   4.010   4.918
10321TIP3   OH230905   0.728   5.883   5.094
10321TIP3    H130906   0.662   5.832   5.142
10321TIP3    H230907   0.716   5.973   5.124
10322TIP3   OH230908   5.687   7.246   2.746
10322TIP3    H130909   5.672   7.335   2.715
10322TIP3    H230910   5.657   7.247   2.837
10323TIP3   OH230911   6.708   3.547   4.878
10323TIP3    H130912   6.799   3.532   4.851
10323TIP3    H230913   6.657   3.528   4.800
10324TIP3   OH230914   5.066   6.810   3.567
10324TIP3    H130915   5.036   6.813   3.658
10324TIP3    H230916   5.161   6.817   3.574
10325TIP3   OH230917   0.975   2.885   2.729
10325TIP3    H130918   1.013   2.963   2.689
10325TIP3    H230919   0.899   2.917   2.777
10326TIP3   OH230920   5.468   5.871   6.147
10326TIP3    H130921   5.488   5.781   6.123
10326TIP3    H230922   5.421   5.864   6.230
10327TIP3   OH230923   3.893   0.637   0.165
10327TIP3    H130924   3.882   0.601   0.254
10327TIP3    H230925   3.981   0.611   0.140
10328TIP3   OH230926   7.650   5.401   3.666
10328TIP3    H130927   7.659   5.448   3.583
10328TIP3    H230928   7.587   5.332   3.648
10329TIP3   OH230929   1.717   2.453   4.805
10329TIP3    H130930   1.807   2.436   4.778
10329TIP3    H230931   1.716   2.435   4.899
10330TIP3   OH230932   2.389   3.498   5.449
10330TIP3    H130933   2.419   3.413   5.481
10330TIP3    H230934   2.422   3.503   5.359
10331TIP3   OH230935   2.086   7.436   6.493
10331TIP3    H130936   2.174   7.467   6.469
10331TIP3    H230937   2.101   7.350   6.532
10332TIP3   OH230938   1.391   2.890   2.899
10332TIP3    H130939   1.426   2.804   2.877
10332TIP3    H230940   1.463   2.950   2.881
10333TIP3   OH230941   8.142   4.291   0.582
10333TIP3    H130942   8.095   4.208   0.578
10333TIP3    H230943   8.105   4.343   0.510
10334TIP3   OH230944   0.999   0.037   4.964
10334TIP3    H130945   0.904   0.027   4.968
10334TIP3    H230946   1.032  -0.022   5.032
10335TIP3   OH230947   1.844   6.383   2.020
10335TIP3    H130948   1.769   6.424   2.063
10335TIP3    H230949   1.883   6.328   2.088
10336TIP3   OH230950   0.409   0.911   4.111
10336TIP3    H130951   0.413   0.823   4.073
10336TIP3    H230952   0.366   0.898   4.196
10337TIP3   OH230953   3.795   3.754   1.001
10337TIP3    H130954   3.826   3.844   0.989
10337TIP3    H230955   3.873   3.700   0.995
10338TIP3   OH230956   2.615   3.365   0.017
10338TIP3    H130957   2.611   3.281   0.063
10338TIP3    H230958   2.699   3.363  -0.029
10339TIP3   OH230959   3.118   1.754   0.377
10339TIP3    H130960   3.195   1.703   0.350
10339TIP3    H230961   3.052   1.736   0.310
10340TIP3   OH230962   3.200   1.595   0.813
10340TIP3    H130963   3.113   1.632   0.829
10340TIP3    H230964   3.199   1.572   0.720
10341TIP3   OH230965   3.528   1.652   5.645
10341TIP3    H130966   3.535   1.745   5.626
10341TIP3    H230967   3.475   1.647   5.724
10342TIP3   OH230968   2.330   0.179   3.550
10342TIP3    H130969   2.333   0.083   3.556
10342TIP3    H230970   2.292   0.196   3.464
10343TIP3   OH230971   0.938   5.462   4.022
10343TIP3    H130972   0.880   5.414   3.963
10343TIP3    H230973   1.021   5.469   3.975
10344TIP3   OH230974   6.435   1.073   5.155
10344TIP3    H130975   6.501   1.015   5.194
10344TIP3    H230976   6.466   1.161   5.176
10345TIP3   OH230977   6.686   6.513   2.513
10345TIP3    H130978   6.713   6.501   2.422
10345TIP3    H230979   6.767   6.508   2.563
10346TIP3   OH230980   0.972   6.832   4.925
10346TIP3    H130981   0.912   6.887   4.976
10346TIP3    H230982   1.023   6.785   4.991
10347TIP3   OH230983   3.390   5.796   3.650
10347TIP3    H130984   3.348   5.710   3.650
10347TIP3    H230985   3.433   5.802   3.565
10348TIP3   OH230986   5.924   4.087   1.804
10348TIP3    H130987   6.012   4.053   1.787
10348TIP3    H230988   5.912   4.077   1.898
10349TIP3   OH230989   7.789   0.908   4.909
10349TIP3    H130990   7.785   0.975   4.978
10349TIP3    H230991   7.857   0.848   4.938
10350TIP3   OH230992   0.528   0.106   0.779
10350TIP3    H130993   0.498   0.018   0.803
10350TIP3    H230994   0.558   0.097   0.689
10351TIP3   OH230995   6.372   3.567   2.839
10351TIP3    H130996   6.300   3.614   2.796
10351TIP3    H230997   6.360   3.588   2.932
10352TIP3   OH230998   8.060   0.777   5.747
10352TIP3    H130999   8.073   0.691   5.785
10352TIP3    H231000   8.093   0.838   5.813
10353TIP3   OH231001   1.136   3.317   0.777
10353TIP3    H131002   1.153   3.235   0.732
10353TIP3    H231003   1.068   3.360   0.725
10354TIP3   OH231004   0.650   0.211   6.693
10354TIP3    H131005   0.633   0.164   6.775
10354TIP3    H231006   0.569   0.259   6.675
10355TIP3   OH231007   4.078   4.410   6.177
10355TIP3    H131008   4.053   4.450   6.093
10355TIP3    H231009   4.081   4.316   6.158
10356TIP3   OH231010   0.063   5.102   4.950
10356TIP3    H131011   0.071   5.009   4.974
10356TIP3    H231012   0.151   5.128   4.924
10357TIP3   OH231013   3.066   2.050   6.199
10357TIP3    H131014   3.085   2.047   6.105
10357TIP3    H231015   2.995   1.988   6.212
10358TIP3   OH231016   4.930   2.568   0.322
10358TIP3    H131017   4.953   2.562   0.229
10358TIP3    H231018   4.901   2.659   0.333
10359TIP3   OH231019   1.474   3.898   1.448
10359TIP3    H131020   1.444   3.810   1.469
10359TIP3    H231021   1.490   3.896   1.354
10360TIP3   OH231022   1.181   7.603   2.211
10360TIP3    H131023   1.227   7.588   2.293
10360TIP3    H231024   1.244   7.576   2.143
10361TIP3   OH231025   8.197   0.383   4.162
10361TIP3    H131026   8.172   0.351   4.075
10361TIP3    H231027   8.117   0.422   4.198
10362TIP3   OH231028   5.083   5.120   1.412
10362TIP3    H131029   5.028   5.198   1.409
10362TIP3    H231030   5.042   5.064   1.479
10363TIP3   OH231031   3.762   6.413   5.296
10363TIP3    H131032   3.729   6.503   5.296
10363TIP3    H231033   3.821   6.410   5.221
10364TIP3   OH231034   7.384   5.003   0.645
10364TIP3    H131035   7.395   4.928   0.587
10364TIP3    H231036   7.470   5.043   0.650
10365TIP3   OH231037   6.205   4.024   1.529
10365TIP3    H131038   6.131   3.974   1.494
10365TIP3    H231039   6.232   4.079   1.456
10366TIP3   OH231040   0.774   1.215   1.473
10366TIP3    H131041   0.827   1.291   1.449
10366TIP3    H231042   0.836   1.143   1.480
10367TIP3   OH231043   1.290   2.783   5.620
10367TIP3    H131044   1.336   2.773   5.537
10367TIP3    H231045   1.358   2.804   5.683
10368TIP3   OH231046   3.253   1.315   0.362
10368TIP3    H131047   3.283   1.290   0.449
10368TIP3    H231048   3.163   1.282   0.357
10369TIP3   OH231049   6.157   6.429   2.304
10369TIP3    H131050   6.155   6.464   2.215
10369TIP3    H231051   6.106   6.348   2.300
10370TIP3   OH231052   6.519   7.866   0.217
10370TIP3    H131053   6.440   7.819   0.189
10370TIP3    H231054   6.580   7.797   0.243
10371TIP3   OH231055   1.677   6.903   5.733
10371TIP3    H131056   1.736   6.940   5.798
10371TIP3    H231057   1.589   6.920   5.768
10372TIP3   OH231058   4.814   5.643   2.311
10372TIP3    H131059   4.870   5.719   2.321
10372TIP3    H231060   4.741   5.658   2.371
10373TIP3   OH231061   7.445   3.255   4.361
10373TIP3    H131062   7.511   3.242   4.428
10373TIP3    H231063   7.403   3.338   4.383
10374TIP3   OH231064   2.917   5.453   1.288
10374TIP3    H131065   2.970   5.426   1.363
10374TIP3    H231066   2.903   5.547   1.302
10375TIP3   OH231067   6.174   2.874   4.459
10375TIP3    H131068   6.226   2.901   4.534
10375TIP3    H231069   6.119   2.803   4.492
10376TIP3   OH231070   4.292   4.141   2.742
10376TIP3    H131071   4.306   4.207   2.674
10376TIP3    H231072   4.368   4.082   2.733
10377TIP3   OH231073   4.186   2.462   1.259
10377TIP3    H131074   4.215   2.531   1.200
10377TIP3    H231075   4.123   2.505   1.317
10378TIP3   OH231076   0.166   3.917   1.976
10378TIP3    H131077   0.249   3.930   2.023
10378TIP3    H231078   0.152   3.999   1.929
10379TIP3   OH231079   6.252   4.627   3.852
10379TIP3    H131080   6.178   4.579   3.815
10379TIP3    H231081   6.233   4.719   3.835
10380TIP3   OH231082   0.762   5.435   6.612
10380TIP3    H131083   0.767   5.351   6.567
10380TIP3    H231084   0.678   5.473   6.584
10381TIP3   OH231085   2.799   3.774   6.222
10381TIP3    H131086   2.812   3.691   6.176
10381TIP3    H231087   2.716   3.762   6.269
10382TIP3   OH231088   2.597   1.340   1.470
10382TIP3    H131089   2.550   1.380   1.544
10382TIP3    H231090   2.602   1.247   1.492
10383TIP3   OH231091   3.484   3.715   4.426
10383TIP3    H131092   3.478   3.633   4.475
10383TIP3    H231093   3.434   3.699   4.345
10384TIP3   OH231094   7.902   0.151   5.914
10384TIP3    H131095   7.996   0.160   5.931
10384TIP3    H231096   7.884   0.058   5.929
10385TIP3   OH231097   5.305   6.259   4.077
10385TIP3    H131098   5.292   6.322   4.148
10385TIP3    H231099   5.234   6.276   4.016
10386TIP3   OH231100   8.091   7.073   1.038
10386TIP3    H131101   8.169   7.083   1.092
10386TIP3    H231102   8.062   6.983   1.053
10387TIP3   OH231103   6.302   7.469   2.460
10387TIP3    H131104   6.295   7.374   2.468
10387TIP3    H231105   6.215   7.502   2.482
10388TIP3   OH231106   7.071   1.465   2.086
10388TIP3    H131107   7.004   1.417   2.134
10388TIP3    H231108   7.114   1.519   2.152
10389TIP3   OH231109   8.139   2.131   4.941
10389TIP3    H131110   8.151   2.226   4.938
10389TIP3    H231111   8.044   2.119   4.938
10390TIP3   OH231112   3.543   6.474   5.777
10390TIP3    H131113   3.610   6.509   5.836
10390TIP3    H231114   3.590   6.413   5.721
10391TIP3   OH231115   2.026   6.124   4.445
10391TIP3    H131116   2.101   6.183   4.441
10391TIP3    H231117   2.064   6.036   4.434
10392TIP3   OH231118   0.332   5.888   2.246
10392TIP3    H131119   0.361   5.943   2.174
10392TIP3    H231120   0.413   5.865   2.292
10393TIP3   OH231121   7.804   5.867   5.350
10393TIP3    H131122   7.740   5.797   5.364
10393TIP3    H231123   7.751   5.944   5.328
10394TIP3   OH231124   2.095   3.182   6.646
10394TIP3    H131125   2.138   3.097   6.657
10394TIP3    H231126   2.004   3.166   6.671
10395TIP3   OH231127   0.309   0.928   6.670
10395TIP3    H131128   0.369   0.856   6.689
10395TIP3    H231129   0.237   0.887   6.623
10396TIP3   OH231130   3.977   3.330   6.587
10396TIP3    H131131   3.996   3.243   6.553
10396TIP3    H231132   3.924   3.372   6.519
10397TIP3   OH231133   1.262   6.765   4.828
10397TIP3    H131134   1.207   6.843   4.825
10397TIP3    H231135   1.272   6.746   4.921
10398TIP3   OH231136   8.116   3.441   0.743
10398TIP3    H131137   8.176   3.395   0.801
10398TIP3    H231138   8.087   3.374   0.681
10399TIP3   OH231139   2.881   2.454   3.563
10399TIP3    H131140   2.800   2.463   3.513
10399TIP3    H231141   2.931   2.533   3.541
10400TIP3   OH231142   1.372   2.599   0.915
10400TIP3    H131143   1.404   2.570   1.001
10400TIP3    H231144   1.289   2.642   0.933
10401TIP3   OH231145   2.332   3.837   1.875
10401TIP3    H131146   2.236   3.830   1.875
10401TIP3    H231147   2.349   3.929   1.856
10402TIP3   OH231148   1.345   1.512   1.984
10402TIP3    H131149   1.355   1.576   1.914
10402TIP3    H231150   1.261   1.469   1.966
10403TIP3   OH231151   4.537   2.039   5.093
10403TIP3    H131152   4.527   2.085   5.010
10403TIP3    H231153   4.564   2.106   5.155
10404TIP3   OH231154   3.303   6.773   2.882
10404TIP3    H131155   3.230   6.750   2.939
10404TIP3    H231156   3.313   6.868   2.893
10405TIP3   OH231157   4.882   4.826   2.933
10405TIP3    H131158   4.880   4.855   3.024
10405TIP3    H231159   4.921   4.739   2.936
10406TIP3   OH231160   0.212   4.115   1.233
10406TIP3    H131161   0.184   4.127   1.142
10406TIP3    H231162   0.240   4.202   1.260
10407TIP3   OH231163   5.608   4.840   0.195
10407TIP3    H131164   5.563   4.875   0.272
10407TIP3    H231165   5.540   4.794   0.146
10408TIP3   OH231166   7.129   4.684   2.347
10408TIP3    H131167   7.144   4.653   2.436
10408TIP3    H231168   7.108   4.777   2.358
10409TIP3   OH231169   6.058   7.580   5.720
10409TIP3    H131170   6.075   7.527   5.642
10409TIP3    H231171   5.985   7.637   5.695
10410TIP3   OH231172   8.094   0.346   5.250
10410TIP3    H131173   8.061   0.355   5.339
10410TIP3    H231174   8.189   0.337   5.260
10411TIP3   OH231175   0.787   3.086   0.196
10411TIP3    H131176   0.720   3.114   0.259
10411TIP3    H231177   0.753   3.114   0.111
10412TIP3   OH231178   4.432   6.744   3.645
10412TIP3    H131179   4.411   6.652   3.630
10412TIP3    H231180   4.523   6.743   3.674
10413TIP3   OH231181   8.172   1.436   0.250
10413TIP3    H131182   8.106   1.421   0.318
10413TIP3    H231183   8.240   1.371   0.267
10414TIP3   OH231184   1.343   4.674   5.237
10414TIP3    H131185   1.437   4.685   5.245
10414TIP3    H231186   1.321   4.711   5.152
10415TIP3   OH231187   7.190   5.777   1.092
10415TIP3    H131188   7.269   5.737   1.055
10415TIP3    H231189   7.204   5.773   1.187
10416TIP3   OH231190   1.739   5.705   1.578
10416TIP3    H131191   1.689   5.669   1.651
10416TIP3    H231192   1.767   5.628   1.528
10417TIP3   OH231193   3.538   5.422   0.761
10417TIP3    H131194   3.615   5.397   0.811
10417TIP3    H231195   3.572   5.471   0.686
10418TIP3   OH231196   4.955   2.659   2.174
10418TIP3    H131197   4.944   2.637   2.081
10418TIP3    H231198   5.046   2.686   2.181
10419TIP3   OH231199   6.885   1.351   2.228
10419TIP3    H131200   6.797   1.380   2.253
10419TIP3    H231201   6.892   1.262   2.262
10420TIP3   OH231202   7.939   3.378   5.033
10420TIP3    H131203   7.847   3.359   5.051
10420TIP3    H231204   7.986   3.302   5.068
10421TIP3   OH231205   4.345   3.134   5.155
10421TIP3    H131206   4.250   3.120   5.160
10421TIP3    H231207   4.375   3.122   5.245
10422TIP3   OH231208   5.929   2.453   2.859
10422TIP3    H131209   5.923   2.454   2.954
10422TIP3    H231210   5.928   2.545   2.833
10423TIP3   OH231211   6.720   4.566   4.753
10423TIP3    H131212   6.665   4.535   4.825
10423TIP3    H231213   6.661   4.572   4.678
10424TIP3   OH231214   7.941   0.713   5.002
10424TIP3    H131215   7.971   0.729   5.091
10424TIP3    H231216   7.961   0.621   4.986
10425TIP3   OH231217   6.292   5.388   4.999
10425TIP3    H131218   6.235   5.430   5.064
10425TIP3    H231219   6.311   5.458   4.936
10426TIP3   OH231220   8.077   1.228   6.491
10426TIP3    H131221   8.076   1.222   6.586
10426TIP3    H231222   8.144   1.294   6.471
10427TIP3   OH231223   0.272   2.011   6.493
10427TIP3    H131224   0.240   2.095   6.525
10427TIP3    H231225   0.366   2.024   6.480
10428TIP3   OH231226   4.552   7.262   3.392
10428TIP3    H131227   4.597   7.180   3.372
10428TIP3    H231228   4.578   7.322   3.323
10429TIP3   OH231229   4.113   7.380   1.729
10429TIP3    H131230   4.190   7.329   1.752
10429TIP3    H231231   4.046   7.314   1.707
10430TIP3   OH231232   0.569   6.366   3.333
10430TIP3    H131233   0.598   6.452   3.363
10430TIP3    H231234   0.644   6.330   3.286
10431TIP3   OH231235   0.239   7.375   0.636
10431TIP3    H131236   0.159   7.417   0.605
10431TIP3    H231237   0.211   7.286   0.659
10432TIP3   OH231238   7.663   3.788   2.205
10432TIP3    H131239   7.612   3.742   2.271
10432TIP3    H231240   7.642   3.881   2.219
10433TIP3   OH231241   5.355   6.983   3.932
10433TIP3    H131242   5.282   7.018   3.984
10433TIP3    H231243   5.407   7.060   3.910
10434TIP3   OH231244   1.106   2.498   5.803
10434TIP3    H131245   1.111   2.556   5.727
10434TIP3    H231246   1.118   2.556   5.878
10435TIP3   OH231247   7.359   3.786   5.935
10435TIP3    H131248   7.395   3.795   5.847
10435TIP3    H231249   7.357   3.691   5.950
10436TIP3   OH231250   4.228   5.142   4.484
10436TIP3    H131251   4.269   5.213   4.434
10436TIP3    H231252   4.153   5.183   4.527
10437TIP3   OH231253   7.240   7.182   2.393
10437TIP3    H131254   7.292   7.252   2.433
10437TIP3    H231255   7.304   7.127   2.348
10438TIP3   OH231256   6.795   3.721   3.019
10438TIP3    H131257   6.776   3.631   3.047
10438TIP3    H231258   6.890   3.724   3.010
10439TIP3   OH231259   0.897   0.898   6.352
10439TIP3    H131260   0.931   0.819   6.310
10439TIP3    H231261   0.823   0.925   6.298
10440TIP3   OH231262   4.122   1.749   0.604
10440TIP3    H131263   4.185   1.677   0.597
10440TIP3    H231264   4.040   1.706   0.629
10441TIP3   OH231265   1.206   4.142   4.583
10441TIP3    H131266   1.209   4.158   4.678
10441TIP3    H231267   1.153   4.214   4.549
10442TIP3   OH231268   6.410   6.607   2.465
10442TIP3    H131269   6.501   6.590   2.487
10442TIP3    H231270   6.396   6.699   2.488
10443TIP3   OH231271   7.553   1.298   4.120
10443TIP3    H131272   7.642   1.274   4.146
10443TIP3    H231273   7.519   1.350   4.193
10444TIP3   OH231274   0.294   4.260   6.165
10444TIP3    H131275   0.373   4.307   6.138
10444TIP3    H231276   0.223   4.310   6.124
10445TIP3   OH231277   3.833   4.602   2.554
10445TIP3    H131278   3.743   4.618   2.582
10445TIP3    H231279   3.882   4.592   2.636
10446TIP3   OH231280   7.971   4.628   5.700
10446TIP3    H131281   8.040   4.617   5.766
10446TIP3    H231282   7.904   4.681   5.745
10447TIP3   OH231283   6.732   1.545   0.728
10447TIP3    H131284   6.822   1.544   0.759
10447TIP3    H231285   6.733   1.602   0.652
10448TIP3   OH231286   0.128   7.444   1.494
10448TIP3    H131287   0.105   7.484   1.410
10448TIP3    H231288   0.068   7.486   1.556
10449TIP3   OH231289   5.954   6.156   3.855
10449TIP3    H131290   6.040   6.127   3.824
10449TIP3    H231291   5.965   6.167   3.950
10450TIP3   OH231292   2.582   5.244   0.571
10450TIP3    H131293   2.606   5.309   0.505
10450TIP3    H231294   2.622   5.275   0.652
10451TIP3   OH231295   4.675   7.487   1.097
10451TIP3    H131296   4.762   7.503   1.059
10451TIP3    H231297   4.684   7.515   1.188
10452TIP3   OH231298   8.034   2.118   1.409
10452TIP3    H131299   8.055   2.041   1.463
10452TIP3    H231300   8.022   2.189   1.473
10453TIP3   OH231301   4.555   0.186   2.239
10453TIP3    H131302   4.550   0.137   2.321
10453TIP3    H231303   4.620   0.255   2.256
10454TIP3   OH231304   4.885   5.627   6.566
10454TIP3    H131305   4.804   5.651   6.521
10454TIP3    H231306   4.896   5.694   6.634
10455TIP3   OH231307   2.247   0.526   0.560
10455TIP3    H131308   2.171   0.535   0.502
10455TIP3    H231309   2.318   0.567   0.511
10456TIP3   OH231310   2.505   4.182   3.806
10456TIP3    H131311   2.597   4.164   3.827
10456TIP3    H231312   2.461   4.182   3.891
10457TIP3   OH231313   4.748   3.328   4.392
10457TIP3    H131314   4.759   3.360   4.482
10457TIP3    H231315   4.670   3.273   4.395
10458TIP3   OH231316   0.092   2.028   0.448
10458TIP3    H131317   0.111   2.122   0.442
10458TIP3    H231318  -0.001   2.021   0.429
10459TIP3   OH231319   5.142   7.380   4.526
10459TIP3    H131320   5.068   7.318   4.524
10459TIP3    H231321   5.129   7.433   4.447
10460TIP3   OH231322   8.098   6.964   1.769
10460TIP3    H131323   8.100   6.909   1.691
10460TIP3    H231324   8.015   7.010   1.763
10461TIP3   OH231325   4.730   3.909   3.634
10461TIP3    H131326   4.683   3.864   3.704
10461TIP3    H231327   4.696   3.999   3.636
10462TIP3   OH231328   0.049   2.814   3.709
10462TIP3    H131329  -0.023   2.874   3.688
10462TIP3    H231330   0.089   2.794   3.625
10463TIP3   OH231331   2.949   0.832   5.250
10463TIP3    H131332   2.984   0.822   5.338
10463TIP3    H231333   2.918   0.745   5.227
10464TIP3   OH231334   4.350   0.099   1.397
10464TIP3    H131335   4.413   0.060   1.337
10464TIP3    H231336   4.283   0.031   1.410
10465TIP3   OH231337   0.258   4.410   0.469
10465TIP3    H131338   0.241   4.504   0.474
10465TIP3    H231339   0.176   4.373   0.436
10466TIP3   OH231340   0.858   4.206   1.908
10466TIP3    H131341   0.853   4.120   1.865
10466TIP3    H231342   0.833   4.268   1.840
10467TIP3   OH231343   3.011   6.465   5.612
10467TIP3    H131344   2.950   6.526   5.652
10467TIP3    H231345   2.957   6.410   5.555
10468TIP3   OH231346   2.896   2.769   4.938
10468TIP3    H131347   2.869   2.860   4.927
10468TIP3    H231348   2.860   2.744   5.023
10469TIP3   OH231349   5.062   5.622   4.834
10469TIP3    H131350   5.151   5.598   4.807
10469TIP3    H231351   5.014   5.539   4.835
10470TIP3   OH231352   1.099   5.046   0.386
10470TIP3    H131353   1.114   5.100   0.463
10470TIP3    H231354   1.019   4.997   0.406
10471TIP3   OH231355   1.402   0.190   4.696
10471TIP3    H131356   1.460   0.123   4.733
10471TIP3    H231357   1.316   0.148   4.692
10472TIP3   OH231358   3.574   7.360   1.079
10472TIP3    H131359   3.494   7.313   1.059
10472TIP3    H231360   3.628   7.297   1.126
10473TIP3   OH231361   3.613   7.346   0.406
10473TIP3    H131362   3.647   7.287   0.339
10473TIP3    H231363   3.603   7.292   0.484
10474TIP3   OH231364   2.531   6.316   3.590
10474TIP3    H131365   2.456   6.334   3.646
10474TIP3    H231366   2.548   6.399   3.545
10475TIP3   OH231367   7.626   7.139   0.774
10475TIP3    H131368   7.709   7.098   0.797
10475TIP3    H231369   7.644   7.233   0.773
10476TIP3   OH231370   5.811   3.045   2.075
10476TIP3    H131371   5.841   3.135   2.067
10476TIP3    H231372   5.753   3.032   1.999
10477TIP3   OH231373   2.700   1.848   3.297
10477TIP3    H131374   2.623   1.798   3.270
10477TIP3    H231375   2.666   1.935   3.318
10478TIP3   OH231376   4.014   7.201   3.167
10478TIP3    H131377   4.104   7.234   3.167
10478TIP3    H231378   3.962   7.273   3.131
10479TIP3   OH231379   6.874   1.095   6.140
10479TIP3    H131380   6.877   1.156   6.066
10479TIP3    H231381   6.813   1.026   6.112
10480TIP3   OH231382   6.117   5.608   1.739
10480TIP3    H131383   6.137   5.613   1.832
10480TIP3    H231384   6.054   5.678   1.724
10481TIP3   OH231385   1.563   3.941   2.848
10481TIP3    H131386   1.508   3.870   2.883
10481TIP3    H231387   1.562   3.927   2.753
10482TIP3   OH231388   4.379   1.632   6.131
10482TIP3    H131389   4.413   1.606   6.216
10482TIP3    H231390   4.358   1.549   6.088
10483TIP3   OH231391   6.204   3.168   0.187
10483TIP3    H131392   6.237   3.116   0.260
10483TIP3    H231393   6.282   3.192   0.137
10484TIP3   OH231394   7.033   7.474   1.873
10484TIP3    H131395   7.033   7.500   1.780
10484TIP3    H231396   7.125   7.452   1.891
10485TIP3   OH231397   7.770   3.426   6.395
10485TIP3    H131398   7.698   3.381   6.351
10485TIP3    H231399   7.842   3.424   6.331
10486TIP3   OH231400   6.227   5.325   5.862
10486TIP3    H131401   6.145   5.369   5.842
10486TIP3    H231402   6.201   5.250   5.917
10487TIP3   OH231403   1.747   6.235   6.720
10487TIP3    H131404   1.673   6.293   6.705
10487TIP3    H231405   1.809   6.287   6.771
10488TIP3   OH231406   3.626   4.576   5.158
10488TIP3    H131407   3.617   4.630   5.236
10488TIP3    H231408   3.652   4.490   5.192
10489TIP3   OH231409   5.042   5.825   0.525
10489TIP3    H131410   5.070   5.859   0.440
10489TIP3    H231411   5.067   5.732   0.523
10490TIP3   OH231412   3.470   3.115   3.626
10490TIP3    H131413   3.485   3.147   3.715
10490TIP3    H231414   3.498   3.024   3.628
10491TIP3   OH231415   7.025   0.594   5.830
10491TIP3    H131416   7.033   0.517   5.774
10491TIP3    H231417   7.059   0.564   5.915
10492TIP3   OH231418   2.077   3.773   1.339
10492TIP3    H131419   2.163   3.809   1.360
10492TIP3    H231420   2.016   3.826   1.389
10493TIP3   OH231421   1.298   7.586   1.170
10493TIP3    H131422   1.229   7.521   1.158
10493TIP3    H231423   1.379   7.538   1.152
10494TIP3   OH231424   3.374   0.346   4.627
10494TIP3    H131425   3.331   0.263   4.604
10494TIP3    H231426   3.451   0.349   4.571
10495TIP3   OH231427   7.237   5.009   6.111
10495TIP3    H131428   7.176   5.006   6.038
10495TIP3    H231429   7.233   4.921   6.150
10496TIP3   OH231430   0.877   6.976   6.698
10496TIP3    H131431   0.892   6.920   6.622
10496TIP3    H231432   0.784   6.996   6.696
10497TIP3   OH231433   3.651   3.273   1.686
10497TIP3    H131434   3.558   3.255   1.672
10497TIP3    H231435   3.660   3.278   1.781
10498TIP3   OH231436   6.468   4.425   5.890
10498TIP3    H131437   6.464   4.499   5.830
10498TIP3    H231438   6.383   4.381   5.879
10499TIP3   OH231439   0.882   2.114   5.167
10499TIP3    H131440   0.793   2.148   5.168
10499TIP3    H231441   0.899   2.092   5.075
10500TIP3   OH231442   7.122   5.144   3.290
10500TIP3    H131443   7.079   5.129   3.206
10500TIP3    H231444   7.062   5.202   3.337
10501TIP3   OH231445   2.455   3.765   0.841
10501TIP3    H131446   2.420   3.759   0.752
10501TIP3    H231447   2.498   3.681   0.856
10502TIP3   OH231448   7.790   2.551   6.349
10502TIP3    H131449   7.846   2.615   6.305
10502TIP3    H231450   7.759   2.597   6.428
10503TIP3   OH231451   2.226   3.903   0.449
10503TIP3    H131452   2.254   3.835   0.510
10503TIP3    H231453   2.271   3.882   0.367
10504TIP3   OH231454   5.713   7.653   6.480
10504TIP3    H131455   5.763   7.734   6.493
10504TIP3    H231456   5.670   7.665   6.395
10505TIP3   OH231457   0.809   6.147   1.374
10505TIP3    H131458   0.759   6.226   1.358
10505TIP3    H231459   0.899   6.177   1.383
10506TIP3   OH231460   7.126   4.065   6.064
10506TIP3    H131461   7.145   4.140   6.120
10506TIP3    H231462   7.174   4.083   5.983
10507TIP3   OH231463   3.427   6.066   1.382
10507TIP3    H131464   3.404   6.159   1.389
10507TIP3    H231465   3.522   6.066   1.369
10508TIP3   OH231466   5.422   5.261   1.249
10508TIP3    H131467   5.423   5.355   1.269
10508TIP3    H231468   5.410   5.257   1.154
10509TIP3   OH231469   1.742   4.669   4.259
10509TIP3    H131470   1.716   4.749   4.212
10509TIP3    H231471   1.738   4.694   4.351
10510TIP3   OH231472   0.390   7.566   5.211
10510TIP3    H131473   0.310   7.581   5.159
10510TIP3    H231474   0.459   7.609   5.160
10511TIP3   OH231475   3.668   1.948   5.843
10511TIP3    H131476   3.687   1.875   5.902
10511TIP3    H231477   3.683   2.026   5.895
10512TIP3   OH231478   6.488   0.750   4.317
10512TIP3    H131479   6.419   0.767   4.382
10512TIP3    H231480   6.455   0.789   4.236
10513TIP3   OH231481   5.616   3.855   5.984
10513TIP3    H131482   5.590   3.886   5.898
10513TIP3    H231483   5.698   3.808   5.969
10514TIP3   OH231484   5.675   0.272   4.058
10514TIP3    H131485   5.749   0.312   4.012
10514TIP3    H231486   5.630   0.345   4.100
10515TIP3   OH231487   5.574   5.906   5.239
10515TIP3    H131488   5.565   5.920   5.145
10515TIP3    H231489   5.499   5.950   5.278
10516TIP3   OH231490   2.209   4.214   3.378
10516TIP3    H131491   2.281   4.195   3.439
10516TIP3    H231492   2.173   4.128   3.357
10517TIP3   OH231493   4.831   6.678   6.477
10517TIP3    H131494   4.840   6.758   6.426
10517TIP3    H231495   4.798   6.613   6.415
10518TIP3   OH231496   0.648   4.291   1.531
10518TIP3    H131497   0.627   4.200   1.548
10518TIP3    H231498   0.697   4.319   1.609
10519TIP3   OH231499   6.806   6.240   2.791
10519TIP3    H131500   6.804   6.335   2.798
10519TIP3    H231501   6.794   6.222   2.697
10520TIP3   OH231502   0.673   1.263   2.447
10520TIP3    H131503   0.655   1.329   2.514
10520TIP3    H231504   0.664   1.310   2.364
10521TIP3   OH231505   6.672   6.621   5.705
10521TIP3    H131506   6.654   6.599   5.614
10521TIP3    H231507   6.749   6.677   5.702
10522TIP3   OH231508   1.050   1.629   4.255
10522TIP3    H131509   0.979   1.565   4.248
10522TIP3    H231510   1.068   1.655   4.164
10523TIP3   OH231511   3.066   1.016   4.411
10523TIP3    H131512   2.982   1.040   4.372
10523TIP3    H231513   3.107   0.958   4.347
10524TIP3   OH231514   2.228   3.753   3.596
10524TIP3    H131515   2.218   3.795   3.681
10524TIP3    H231516   2.155   3.692   3.591
10525TIP3   OH231517   1.045   4.177   6.714
10525TIP3    H131518   0.980   4.245   6.700
10525TIP3    H231519   1.017   4.134   6.796
10526TIP3   OH231520   6.150   6.434   6.335
10526TIP3    H131521   6.060   6.402   6.340
10526TIP3    H231522   6.203   6.355   6.322
10527TIP3   OH231523   4.481   4.653   6.542
10527TIP3    H131524   4.546   4.588   6.515
10527TIP3    H231525   4.397   4.610   6.528
10528TIP3   OH231526   6.663   4.001   6.014
10528TIP3    H131527   6.735   3.939   6.002
10528TIP3    H231528   6.609   3.990   5.936
10529TIP3   OH231529   0.082   5.883   2.371
10529TIP3    H131530   0.174   5.881   2.347
10529TIP3    H231531   0.046   5.959   2.325
10530TIP3   OH231532   1.478   2.308   3.712
10530TIP3    H131533   1.503   2.222   3.678
10530TIP3    H231534   1.386   2.297   3.738
10531TIP3   OH231535   6.975   2.522   5.966
10531TIP3    H131536   7.018   2.514   5.881
10531TIP3    H231537   6.886   2.550   5.945
10532TIP3   OH231538   3.639   2.106   5.427
10532TIP3    H131539   3.567   2.163   5.399
10532TIP3    H231540   3.644   2.039   5.359
10533TIP3   OH231541   7.197   5.881   3.959
10533TIP3    H131542   7.273   5.917   4.004
10533TIP3    H231543   7.167   5.810   4.017
10534TIP3   OH231544   3.447   0.156   2.733
10534TIP3    H131545   3.438   0.248   2.756
10534TIP3    H231546   3.387   0.142   2.660
10535TIP3   OH231547   6.910   1.420   4.975
10535TIP3    H131548   6.953   1.504   4.959
10535TIP3    H231549   6.817   1.440   4.973
10536TIP3   OH231550   1.329   2.792   1.213
10536TIP3    H131551   1.247   2.750   1.188
10536TIP3    H231552   1.393   2.721   1.212
10537TIP3   OH231553   5.191   3.441   6.577
10537TIP3    H131554   5.104   3.403   6.566
10537TIP3    H231555   5.177   3.535   6.572
10538TIP3   OH231556   5.321   0.010   2.224
10538TIP3    H131557   5.376   0.045   2.154
10538TIP3    H231558   5.281   0.088   2.264
10539TIP3   OH231559   0.464   3.438   3.875
10539TIP3    H131560   0.538   3.495   3.855
10539TIP3    H231561   0.478   3.411   3.966
10540TIP3   OH231562   0.680   6.336   3.647
10540TIP3    H131563   0.660   6.398   3.717
10540TIP3    H231564   0.773   6.352   3.627
10541TIP3   OH231565   4.809   7.275   5.320
10541TIP3    H131566   4.722   7.306   5.292
10541TIP3    H231567   4.821   7.312   5.407
10542TIP3   OH231568   2.612   5.825   0.053
10542TIP3    H131569   2.628   5.912   0.091
10542TIP3    H231570   2.698   5.783   0.052
10543TIP3   OH231571   1.437   4.343   5.742
10543TIP3    H131572   1.513   4.311   5.694
10543TIP3    H231573   1.443   4.439   5.737
10544TIP3   OH231574   4.508   3.312   4.987
10544TIP3    H131575   4.449   3.242   5.013
10544TIP3    H231576   4.455   3.391   4.991
10545TIP3   OH231577   0.345   6.955   2.309
10545TIP3    H131578   0.251   6.953   2.291
10545TIP3    H231579   0.367   7.048   2.312
10546TIP3   OH231580   6.765   7.764   6.275
10546TIP3    H131581   6.745   7.841   6.327
10546TIP3    H231582   6.792   7.798   6.190
10547TIP3   OH231583   4.954   1.999   1.881
10547TIP3    H131584   4.958   1.990   1.976
10547TIP3    H231585   4.906   1.922   1.852
10548TIP3   OH231586   2.295   4.454   3.356
10548TIP3    H131587   2.334   4.461   3.443
10548TIP3    H231588   2.249   4.370   3.358
10549TIP3   OH231589   5.614   3.257   0.572
10549TIP3    H131590   5.704   3.272   0.601
10549TIP3    H231591   5.611   3.294   0.483
10550TIP3   OH231592   8.031   5.893   3.715
10550TIP3    H131593   7.954   5.936   3.754
10550TIP3    H231594   8.067   5.840   3.787
10551TIP3   OH231595   0.393   6.309   4.015
10551TIP3    H131596   0.467   6.252   3.994
10551TIP3    H231597   0.434   6.388   4.052
10552TIP3   OH231598   5.321   4.603   3.715
10552TIP3    H131599   5.324   4.698   3.723
10552TIP3    H231600   5.268   4.574   3.790
10553TIP3   OH231601   5.144   5.536   0.741
10553TIP3    H131602   5.116   5.475   0.809
10553TIP3    H231603   5.163   5.618   0.788
10554TIP3   OH231604   1.619   0.009   4.435
10554TIP3    H131605   1.676   0.084   4.420
10554TIP3    H231606   1.557   0.011   4.362
10555TIP3   OH231607   4.436   7.531   5.411
10555TIP3    H131608   4.358   7.537   5.355
10555TIP3    H231609   4.488   7.607   5.389
10556TIP3   OH231610   0.834   5.918   4.708
10556TIP3    H131611   0.898   5.898   4.776
10556TIP3    H231612   0.885   5.958   4.638
10557TIP3   OH231613   7.644   3.332   4.738
10557TIP3    H131614   7.697   3.405   4.707
10557TIP3    H231615   7.554   3.356   4.716
10558TIP3   OH231616   0.597   7.755   1.772
10558TIP3    H131617   0.533   7.695   1.809
10558TIP3    H231618   0.547   7.807   1.709
10559TIP3   OH231619   2.115   2.195   2.506
10559TIP3    H131620   2.022   2.185   2.485
10559TIP3    H231621   2.116   2.243   2.589
10560TIP3   OH231622   4.363   2.205   5.382
10560TIP3    H131623   4.343   2.295   5.358
10560TIP3    H231624   4.458   2.202   5.385
10561TIP3   OH231625   4.059   3.950   2.991
10561TIP3    H131626   4.011   4.024   3.029
10561TIP3    H231627   4.151   3.972   3.003
10562TIP3   OH231628   1.119   1.437   5.793
10562TIP3    H131629   1.190   1.376   5.816
10562TIP3    H231630   1.097   1.414   5.703
10563TIP3   OH231631   0.633   1.493   4.433
10563TIP3    H131632   0.651   1.572   4.381
10563TIP3    H231633   0.702   1.492   4.499
10564TIP3   OH231634   4.702   0.677   1.784
10564TIP3    H131635   4.686   0.658   1.877
10564TIP3    H231636   4.631   0.632   1.739
10565TIP3   OH231637   5.184   1.525   3.890
10565TIP3    H131638   5.266   1.511   3.937
10565TIP3    H231639   5.137   1.442   3.897
10566TIP3   OH231640   1.012   4.385   3.336
10566TIP3    H131641   0.953   4.401   3.410
10566TIP3    H231642   0.965   4.325   3.279
10567TIP3   OH231643   2.766   1.818   1.215
10567TIP3    H131644   2.740   1.735   1.254
10567TIP3    H231645   2.751   1.807   1.121
10568TIP3   OH231646   1.870   2.345   5.498
10568TIP3    H131647   1.895   2.394   5.577
10568TIP3    H231648   1.953   2.328   5.453
10569TIP3   OH231649   2.435   5.752   4.585
10569TIP3    H131650   2.404   5.794   4.665
10569TIP3    H231651   2.465   5.824   4.530
10570TIP3   OH231652   0.219   0.864   4.348
10570TIP3    H131653   0.282   0.822   4.406
10570TIP3    H231654   0.134   0.831   4.377
10571TIP3   OH231655   5.263   6.732   6.275
10571TIP3    H131656   5.205   6.669   6.318
10571TIP3    H231657   5.351   6.701   6.295
10572TIP3   OH231658   7.992   4.730   4.190
10572TIP3    H131659   7.982   4.682   4.273
10572TIP3    H231660   7.916   4.789   4.188
10573TIP3   OH231661   7.730   0.955   3.381
10573TIP3    H131662   7.703   0.987   3.467
10573TIP3    H231663   7.807   0.901   3.399
10574TIP3   OH231664   3.900   3.199   1.174
10574TIP3    H131665   3.921   3.127   1.113
10574TIP3    H231666   3.904   3.159   1.261
10575TIP3   OH231667   1.829   1.058   2.413
10575TIP3    H131668   1.873   1.023   2.336
10575TIP3    H231669   1.760   0.994   2.432
10576TIP3   OH231670   7.402   4.887   3.192
10576TIP3    H131671   7.482   4.838   3.210
10576TIP3    H231672   7.433   4.975   3.170
10577TIP3   OH231673   2.271   7.788   4.563
10577TIP3    H131674   2.253   7.839   4.484
10577TIP3    H231675   2.197   7.729   4.570
10578TIP3   OH231676   3.446   2.002   3.282
10578TIP3    H131677   3.430   2.096   3.270
10578TIP3    H231678   3.389   1.978   3.356
10579TIP3   OH231679   1.247   6.125   0.195
10579TIP3    H131680   1.334   6.106   0.230
10579TIP3    H231681   1.263   6.156   0.105
10580TIP3   OH231682   7.223   3.658   6.771
10580TIP3    H131683   7.303   3.623   6.733
10580TIP3    H231684   7.241   3.751   6.785
10581TIP3   OH231685   2.533   1.910   4.023
10581TIP3    H131686   2.498   1.897   3.935
10581TIP3    H231687   2.466   1.873   4.081
10582TIP3   OH231688   2.431   7.448   3.071
10582TIP3    H131689   2.457   7.358   3.089
10582TIP3    H231690   2.496   7.480   3.008
10583TIP3   OH231691   0.778   3.467   2.204
10583TIP3    H131692   0.848   3.530   2.188
10583TIP3    H231693   0.698   3.514   2.182
10584TIP3   OH231694   7.969   5.388   2.391
10584TIP3    H131695   7.893   5.371   2.336
10584TIP3    H231696   7.989   5.304   2.431
10585TIP3   OH231697   0.004   5.247   0.588
10585TIP3    H131698  -0.037   5.217   0.507
10585TIP3    H231699   0.077   5.301   0.558
10586TIP3   OH231700   2.412   2.968   5.949
10586TIP3    H131701   2.334   3.019   5.971
10586TIP3    H231702   2.400   2.945   5.857
10587TIP3   OH231703   3.443   4.231   2.190
10587TIP3    H131704   3.491   4.289   2.250
10587TIP3    H231705   3.355   4.267   2.188
10588TIP3   OH231706   1.319   3.012   2.081
10588TIP3    H131707   1.327   3.056   2.166
10588TIP3    H231708   1.239   2.961   2.088
10589TIP3   OH231709   4.142   7.545   6.537
10589TIP3    H131710   4.130   7.631   6.497
10589TIP3    H231711   4.085   7.487   6.488
10590TIP3   OH231712   5.894   3.775   5.211
10590TIP3    H131713   5.862   3.689   5.182
10590TIP3    H231714   5.981   3.782   5.172
10591TIP3   OH231715   1.398   4.920   2.922
10591TIP3    H131716   1.376   4.836   2.963
10591TIP3    H231717   1.464   4.898   2.856
10592TIP3   OH231718   1.211   2.750   3.712
10592TIP3    H131719   1.280   2.687   3.691
10592TIP3    H231720   1.143   2.697   3.755
10593TIP3   OH231721   5.162   2.039   3.111
10593TIP3    H131722   5.087   1.980   3.115
10593TIP3    H231723   5.126   2.126   3.125
10594TIP3   OH231724   1.824   5.743   5.793
10594TIP3    H131725   1.802   5.811   5.729
10594TIP3    H231726   1.903   5.701   5.758
10595TIP3   OH231727   0.089   0.293   2.556
10595TIP3    H131728   0.136   0.238   2.493
10595TIP3    H231729   0.157   0.350   2.592
10596TIP3   OH231730   7.189   0.016   6.477
10596TIP3    H131731   7.198   0.103   6.437
10596TIP3    H231732   7.156  -0.039   6.406
10597TIP3   OH231733   7.718   0.016   4.031
10597TIP3    H131734   7.696   0.104   3.999
10597TIP3    H231735   7.676  -0.043   3.968
10598TIP3   OH231736   4.749   0.854   2.209
10598TIP3    H131737   4.697   0.839   2.288
10598TIP3    H231738   4.712   0.795   2.144
10599TIP3   OH231739   3.070   0.753   5.500
10599TIP3    H131740   3.140   0.768   5.563
10599TIP3    H231741   2.997   0.719   5.552
10600TIP3   OH231742   6.123   2.022   1.567
10600TIP3    H131743   6.050   1.971   1.601
10600TIP3    H231744   6.084   2.083   1.505
10601TIP3   OH231745   0.846   1.698   3.208
10601TIP3    H131746   0.899   1.764   3.163
10601TIP3    H231747   0.908   1.627   3.227
10602TIP3   OH231748   7.154   6.157   5.917
10602TIP3    H131749   7.107   6.074   5.906
10602TIP3    H231750   7.085   6.221   5.934
10603TIP3   OH231751   4.644   1.875   4.113
10603TIP3    H131752   4.584   1.888   4.186
10603TIP3    H231753   4.676   1.962   4.092
10604TIP3   OH231754   4.507   2.336   6.428
10604TIP3    H131755   4.570   2.378   6.369
10604TIP3    H231756   4.561   2.289   6.491
10605TIP3   OH231757   0.343   3.652   5.792
10605TIP3    H131758   0.263   3.646   5.845
10605TIP3    H231759   0.399   3.712   5.840
10606TIP3   OH231760   4.753   7.350   4.835
10606TIP3    H131761   4.750   7.344   4.739
10606TIP3    H231762   4.690   7.284   4.865
10607TIP3   OH231763   0.295   6.918   1.053
10607TIP3    H131764   0.384   6.950   1.067
10607TIP3    H231765   0.276   6.865   1.130
10608TIP3   OH231766   2.458   4.518   4.167
10608TIP3    H131767   2.396   4.590   4.158
10608TIP3    H231768   2.541   4.554   4.138
10609TIP3   OH231769   5.324   1.392   4.630
10609TIP3    H131770   5.248   1.431   4.587
10609TIP3    H231771   5.288   1.351   4.709
10610TIP3   OH231772   2.386   5.051   1.393
10610TIP3    H131773   2.388   5.115   1.322
10610TIP3    H231774   2.355   4.970   1.351
10611TIP3   OH231775   6.433   2.843   3.466
10611TIP3    H131776   6.489   2.817   3.539
10611TIP3    H231777   6.493   2.882   3.402
10612TIP3   OH231778   0.723   5.319   2.192
10612TIP3    H131779   0.637   5.300   2.230
10612TIP3    H231780   0.703   5.351   2.104
10613TIP3   OH231781   3.529   4.003   1.065
10613TIP3    H131782   3.573   4.088   1.073
10613TIP3    H231783   3.490   4.004   0.977
10614TIP3   OH231784   4.125   5.402   4.481
10614TIP3    H131785   4.141   5.401   4.387
10614TIP3    H231786   4.210   5.424   4.520
10615TIP3   OH231787   4.687   6.359   5.920
10615TIP3    H131788   4.773   6.331   5.952
10615TIP3    H231789   4.672   6.305   5.842
10616TIP3   OH231790   2.717   4.013   6.133
10616TIP3    H131791   2.788   4.054   6.084
10616TIP3    H231792   2.753   3.929   6.163
10617TIP3   OH231793   1.201   6.268   6.658
10617TIP3    H131794   1.132   6.231   6.604
10617TIP3    H231795   1.283   6.241   6.615
10618TIP3   OH231796   4.946   3.786   3.162
10618TIP3    H131797   4.897   3.807   3.242
10618TIP3    H231798   4.882   3.740   3.107
10619TIP3   OH231799   0.925   1.438   1.382
10619TIP3    H131800   1.008   1.390   1.389
10619TIP3    H231801   0.915   1.482   1.466
10620TIP3   OH231802   1.832   6.091   4.081
10620TIP3    H131803   1.925   6.094   4.104
10620TIP3    H231804   1.787   6.108   4.164
10621TIP3   OH231805   2.473   3.397   0.417
10621TIP3    H131806   2.466   3.384   0.511
10621TIP3    H231807   2.388   3.371   0.382
10622TIP3   OH231808   7.476   1.371   6.684
10622TIP3    H131809   7.545   1.415   6.634
10622TIP3    H231810   7.507   1.281   6.694
10623TIP3   OH231811   5.814   4.320   1.650
10623TIP3    H131812   5.838   4.247   1.707
10623TIP3    H231813   5.864   4.306   1.570
10624TIP3   OH231814   8.163   2.227   5.882
10624TIP3    H131815   8.208   2.142   5.891
10624TIP3    H231816   8.200   2.281   5.951
10625TIP3   OH231817   3.759   2.318   2.269
10625TIP3    H131818   3.810   2.339   2.191
10625TIP3    H231819   3.699   2.392   2.279
10626TIP3   OH231820   4.867   6.989   5.267
10626TIP3    H131821   4.858   6.976   5.173
10626TIP3    H231822   4.842   7.080   5.282
10627TIP3   OH231823   4.814   5.335   2.659
10627TIP3    H131824   4.876   5.317   2.730
10627TIP3    H231825   4.800   5.250   2.618
10628TIP3   OH231826   7.624   0.633   4.747
10628TIP3    H131827   7.625   0.607   4.655
10628TIP3    H231828   7.613   0.728   4.745
10629TIP3   OH231829  -0.013   6.669   1.756
10629TIP3    H131830   0.016   6.619   1.679
10629TIP3    H231831  -0.081   6.727   1.723
10630TIP3   OH231832   3.754   1.943   2.120
10630TIP3    H131833   3.784   1.910   2.205
10630TIP3    H231834   3.660   1.924   2.119
10631TIP3   OH231835   4.998   0.325   1.483
10631TIP3    H131836   4.903   0.311   1.485
10631TIP3    H231837   5.011   0.409   1.527
10632TIP3   OH231838   5.732   5.304   3.669
10632TIP3    H131839   5.768   5.297   3.581
10632TIP3    H231840   5.795   5.358   3.717
10633TIP3   OH231841   2.725   1.598   3.921
10633TIP3    H131842   2.682   1.606   4.006
10633TIP3    H231843   2.757   1.686   3.901
10634TIP3   OH231844   1.921   7.496   6.293
10634TIP3    H131845   1.880   7.577   6.321
10634TIP3    H231846   1.983   7.475   6.363
10635TIP3   OH231847   2.378   1.319   4.696
10635TIP3    H131848   2.292   1.351   4.723
10635TIP3    H231849   2.373   1.312   4.601
10636TIP3   OH231850   5.644   2.216   1.456
10636TIP3    H131851   5.642   2.289   1.518
10636TIP3    H231852   5.606   2.252   1.376
10637TIP3   OH231853   0.808   5.136   3.430
10637TIP3    H131854   0.742   5.206   3.427
10637TIP3    H231855   0.862   5.152   3.352
10638TIP3   OH231856   4.513   1.400   1.770
10638TIP3    H131857   4.496   1.494   1.761
10638TIP3    H231858   4.497   1.365   1.682
10639TIP3   OH231859   7.956   2.370   5.403
10639TIP3    H131860   8.004   2.312   5.462
10639TIP3    H231861   7.873   2.324   5.387
10640TIP3   OH231862   6.237   7.807   6.201
10640TIP3    H131863   6.273   7.756   6.273
10640TIP3    H231864   6.180   7.746   6.154
10641TIP3   OH231865   8.079   6.890   5.229
10641TIP3    H131866   8.163   6.935   5.242
10641TIP3    H231867   8.031   6.903   5.311
10642TIP3   OH231868   2.574   0.609   1.049
10642TIP3    H131869   2.551   0.519   1.027
10642TIP3    H231870   2.490   0.653   1.058
10643TIP3   OH231871   0.424   2.914   4.616
10643TIP3    H131872   0.378   2.857   4.554
10643TIP3    H231873   0.371   2.911   4.695
10644TIP3   OH231874   3.389   2.563   1.417
10644TIP3    H131875   3.461   2.612   1.378
10644TIP3    H231876   3.352   2.511   1.346
10645TIP3   OH231877   0.820   2.230   6.544
10645TIP3    H131878   0.905   2.237   6.500
10645TIP3    H231879   0.757   2.267   6.482
10646TIP3   OH231880   3.037   5.666   2.783
10646TIP3    H131881   2.970   5.695   2.722
10646TIP3    H231882   3.036   5.732   2.853
10647TIP3   OH231883   3.964   1.697   1.014
10647TIP3    H131884   4.025   1.710   1.086
10647TIP3    H231885   3.984   1.769   0.953
10648TIP3   OH231886   4.143   1.545   3.688
10648TIP3    H131887   4.089   1.476   3.649
10648TIP3    H231888   4.212   1.498   3.735
10649TIP3   OH231889   2.198   3.933   2.736
10649TIP3    H131890   2.244   3.867   2.684
10649TIP3    H231891   2.133   3.971   2.677
10650TIP3   OH231892   1.974   3.006   2.648
10650TIP3    H131893   2.047   3.014   2.587
10650TIP3    H231894   1.967   2.912   2.665
10651TIP3   OH231895   1.742   1.492   0.335
10651TIP3    H131896   1.838   1.490   0.337
10651TIP3    H231897   1.720   1.585   0.331
10652TIP3   OH231898   4.028   1.544   3.097
10652TIP3    H131899   3.949   1.597   3.083
10652TIP3    H231900   4.099   1.608   3.100
10653TIP3   OH231901   1.018   2.319   3.066
10653TIP3    H131902   1.072   2.299   3.142
10653TIP3    H231903   0.952   2.250   3.064
10654TIP3   OH231904   2.882   4.814   0.270
10654TIP3    H131905   2.897   4.804   0.364
10654TIP3    H231906   2.842   4.732   0.243
10655TIP3   OH231907   6.693   6.988   6.046
10655TIP3    H131908   6.734   6.925   5.986
10655TIP3    H231909   6.600   6.986   6.024
10656TIP3   OH231910   4.846   4.189   4.225
10656TIP3    H131911   4.836   4.097   4.201
10656TIP3    H231912   4.757   4.222   4.235
10657TIP3   OH231913   1.490   6.592   5.325
10657TIP3    H131914   1.420   6.552   5.273
10657TIP3    H231915   1.555   6.522   5.335
10658TIP3   OH231916   8.239   4.302   5.574
10658TIP3    H131917   8.185   4.234   5.615
10658TIP3    H231918   8.178   4.375   5.559
10659TIP3   OH231919   2.113   0.607   2.693
10659TIP3    H131920   2.056   0.643   2.625
10659TIP3    H231921   2.111   0.512   2.679
10660TIP3   OH231922   4.099   1.785   5.159
10660TIP3    H131923   4.177   1.801   5.211
10660TIP3    H231924   4.074   1.695   5.181
10661TIP3   OH231925   6.697   3.451   2.437
10661TIP3    H131926   6.695   3.536   2.481
10661TIP3    H231927   6.788   3.424   2.441
10662TIP3   OH231928   7.805   6.503   1.351
10662TIP3    H131929   7.779   6.482   1.261
10662TIP3    H231930   7.754   6.581   1.373
10663TIP3   OH231931   0.194   6.755   0.572
10663TIP3    H131932   0.269   6.756   0.514
10663TIP3    H231933   0.215   6.818   0.641
10664TIP3   OH231934   3.153   7.241   4.414
10664TIP3    H131935   3.077   7.293   4.441
10664TIP3    H231936   3.159   7.254   4.320
10665TIP3   OH231937   7.113   7.600   4.845
10665TIP3    H131938   7.149   7.624   4.931
10665TIP3    H231939   7.147   7.666   4.785
10666TIP3   OH231940   0.401   0.110   3.176
10666TIP3    H131941   0.399   0.067   3.261
10666TIP3    H231942   0.309   0.112   3.149
10667TIP3   OH231943   3.272   2.376   1.250
10667TIP3    H131944   3.264   2.300   1.193
10667TIP3    H231945   3.249   2.451   1.194
10668TIP3   OH231946   6.527   6.672   6.308
10668TIP3    H131947   6.486   6.640   6.389
10668TIP3    H231948   6.479   6.629   6.238
10669TIP3   OH231949   6.508   7.655   5.906
10669TIP3    H131950   6.472   7.715   5.840
10669TIP3    H231951   6.460   7.574   5.894
10670TIP3   OH231952   2.118   1.527   0.918
10670TIP3    H131953   2.182   1.457   0.932
10670TIP3    H231954   2.143   1.595   0.980
10671TIP3   OH231955   5.985   5.498   2.596
10671TIP3    H131956   5.904   5.491   2.545
10671TIP3    H231957   5.973   5.576   2.650
10672TIP3   OH231958   7.036   3.903   3.330
10672TIP3    H131959   7.059   3.933   3.418
10672TIP3    H231960   6.952   3.946   3.312
10673TIP3   OH231961   1.816   0.794   0.629
10673TIP3    H131962   1.861   0.710   0.631
10673TIP3    H231963   1.851   0.839   0.552
10674TIP3   OH231964   0.209   3.567   0.535
10674TIP3    H131965   0.190   3.493   0.478
10674TIP3    H231966   0.219   3.528   0.622
10675TIP3   OH231967   1.162   2.960   5.274
10675TIP3    H131968   1.216   2.977   5.197
10675TIP3    H231969   1.211   2.893   5.322
10676TIP3   OH231970   3.595   1.994   2.503
10676TIP3    H131971   3.515   2.023   2.547
10676TIP3    H231972   3.578   2.008   2.410
10677TIP3   OH231973   2.040   5.589   5.738
10677TIP3    H131974   2.109   5.535   5.777
10677TIP3    H231975   2.084   5.637   5.667
10678TIP3   OH231976   3.425   1.092   4.021
10678TIP3    H131977   3.364   1.092   3.947
10678TIP3    H231978   3.374   1.127   4.094
10679TIP3   OH231979   2.560   3.729   6.463
10679TIP3    H131980   2.546   3.676   6.542
10679TIP3    H231981   2.598   3.811   6.495
10680TIP3   OH231982   6.124   3.689   2.715
10680TIP3    H131983   6.100   3.628   2.645
10680TIP3    H231984   6.103   3.775   2.680
10681TIP3   OH231985   0.967   6.237   3.996
10681TIP3    H131986   0.890   6.192   4.032
10681TIP3    H231987   1.041   6.201   4.043
10682TIP3   OH231988   3.367   2.578   3.470
10682TIP3    H131989   3.445   2.531   3.500
10682TIP3    H231990   3.402   2.661   3.436
10683TIP3   OH231991   6.490   3.471   3.456
10683TIP3    H131992   6.441   3.542   3.415
10683TIP3    H231993   6.567   3.459   3.401
10684TIP3   OH231994   5.912   3.736   1.450
10684TIP3    H131995   5.931   3.788   1.372
10684TIP3    H231996   5.859   3.663   1.417
10685TIP3   OH231997   5.604   4.256   1.493
10685TIP3    H131998   5.668   4.288   1.556
10685TIP3    H231999   5.656   4.203   1.432
10686TIP3   OH232000   1.826   6.832   2.939
10686TIP3    H132001   1.870   6.747   2.946
10686TIP3    H232002   1.808   6.841   2.845
10687TIP3   OH232003   1.783   1.681   0.959
10687TIP3    H132004   1.864   1.654   0.915
10687TIP3    H232005   1.750   1.602   1.001
10688TIP3   OH232006   3.831   3.355   3.827
10688TIP3    H132007   3.736   3.352   3.843
10688TIP3    H232008   3.839   3.390   3.739
10689TIP3   OH232009   5.408   0.991   2.563
10689TIP3    H132010   5.408   1.016   2.655
10689TIP3    H232011   5.375   1.069   2.517
10690TIP3   OH232012   4.605   7.506   6.025
10690TIP3    H132013   4.513   7.496   6.003
10690TIP3    H232014   4.615   7.462   6.110
10691TIP3   OH232015   0.042   3.378   6.647
10691TIP3    H132016  -0.042   3.372   6.693
10691TIP3    H232017   0.094   3.440   6.699
10692TIP3   OH232018   3.909   1.850   2.326
10692TIP3    H132019   3.964   1.921   2.360
10692TIP3    H232020   3.968   1.775   2.318
10693TIP3   OH232021   3.386   2.261   1.033
10693TIP3    H132022   3.443   2.237   1.106
10693TIP3    H232023   3.430   2.336   0.992
10694TIP3   OH232024   0.590   4.259   6.265
10694TIP3    H132025   0.610   4.166   6.276
10694TIP3    H232026   0.614   4.278   6.175
10695TIP3   OH232027   4.076   2.899   5.869
10695TIP3    H132028   4.017   2.950   5.925
10695TIP3    H232029   4.161   2.943   5.878
10696TIP3   OH232030   4.272   6.664   5.129
10696TIP3    H132031   4.299   6.595   5.189
10696TIP3    H232032   4.201   6.709   5.175
10697TIP3   OH232033   0.492   1.584   2.359
10697TIP3    H132034   0.581   1.608   2.385
10697TIP3    H232035   0.459   1.529   2.430
10698TIP3   OH232036   7.859   1.170   1.402
10698TIP3    H132037   7.780   1.127   1.436
10698TIP3    H232038   7.833   1.261   1.388
10699TIP3   OH232039   6.169   4.908   6.139
10699TIP3    H132040   6.076   4.911   6.161
10699TIP3    H232041   6.187   4.814   6.127
10700TIP3   OH232042   8.121   3.712   0.807
10700TIP3    H132043   8.206   3.720   0.850
10700TIP3    H232044   8.122   3.624   0.768
10701TIP3   OH232045   3.267   5.452   3.435
10701TIP3    H132046   3.183   5.497   3.444
10701TIP3    H232047   3.244   5.367   3.397
10702TIP3   OH232048   6.545   4.186   6.494
10702TIP3    H132049   6.543   4.267   6.444
10702TIP3    H232050   6.546   4.117   6.427
10703TIP3   OH232051   0.494   4.194   1.321
10703TIP3    H132052   0.458   4.270   1.274
10703TIP3    H232053   0.559   4.231   1.380
10704TIP3   OH232054   0.786   0.231   6.442
10704TIP3    H132055   0.759   0.230   6.350
10704TIP3    H232056   0.708   0.204   6.490
10705TIP3   OH232057   6.513   5.759   2.698
10705TIP3    H132058   6.507   5.667   2.671
10705TIP3    H232059   6.432   5.774   2.747
10706TIP3   OH232060   8.011   3.457   1.724
10706TIP3    H132061   7.918   3.472   1.744
10706TIP3    H232062   8.058   3.506   1.792
10707TIP3   OH232063   7.994   5.817   6.668
10707TIP3    H132064   7.913   5.813   6.719
10707TIP3    H232065   8.048   5.746   6.704
10708TIP3   OH232066   7.019   2.071   6.302
10708TIP3    H132067   6.944   2.130   6.310
10708TIP3    H232068   6.989   2.000   6.246
10709TIP3   OH232069   0.639   4.621   2.073
10709TIP3    H132070   0.722   4.591   2.035
10709TIP3    H232071   0.663   4.659   2.157
10710TIP3   OH232072   2.734   2.854   3.603
10710TIP3    H132073   2.749   2.773   3.553
10710TIP3    H232074   2.782   2.921   3.555
10711TIP3   OH232075   1.385   7.489   3.236
10711TIP3    H132076   1.455   7.448   3.185
10711TIP3    H232077   1.413   7.580   3.246
10712TIP3   OH232078   4.874   1.106   1.915
10712TIP3    H132079   4.847   1.026   1.870
10712TIP3    H232080   4.808   1.171   1.889
10713TIP3   OH232081   3.445   1.611   1.841
10713TIP3    H132082   3.375   1.589   1.780
10713TIP3    H232083   3.415   1.579   1.926
10714TIP3   OH232084   0.580   1.905   2.419
10714TIP3    H132085   0.629   1.824   2.433
10714TIP3    H232086   0.551   1.931   2.507
10715TIP3   OH232087   5.134   6.970   0.005
10715TIP3    H132088   5.204   6.956  -0.059
10715TIP3    H232089   5.082   6.890   0.001
10716TIP3   OH232090   3.120   0.208   3.730
10716TIP3    H132091   3.131   0.170   3.817
10716TIP3    H232092   3.155   0.296   3.738
10717TIP3   OH232093   1.272   7.427   2.750
10717TIP3    H132094   1.276   7.494   2.818
10717TIP3    H232095   1.181   7.430   2.718
10718TIP3   OH232096   7.016   0.549   0.027
10718TIP3    H132097   6.953   0.616   0.054
10718TIP3    H232098   7.100   0.581   0.060
10719TIP3   OH232099   0.988   5.834   5.514
10719TIP3    H132100   0.970   5.787   5.595
10719TIP3    H232101   0.953   5.777   5.445
10720TIP3   OH232102   5.728   5.684   2.634
10720TIP3    H132103   5.634   5.698   2.642
10720TIP3    H232104   5.767   5.768   2.660
10721TIP3   OH232105   7.829   2.525   1.305
10721TIP3    H132106   7.829   2.492   1.215
10721TIP3    H232107   7.868   2.455   1.357
10722TIP3   OH232108   5.968   6.126   4.775
10722TIP3    H132109   5.897   6.085   4.726
10722TIP3    H232110   5.989   6.063   4.844
10723TIP3   OH232111   5.033   5.494   6.792
10723TIP3    H132112   4.974   5.548   6.738
10723TIP3    H232113   5.117   5.540   6.788
10724TIP3   OH232114   1.416   3.929   2.096
10724TIP3    H132115   1.430   4.011   2.142
10724TIP3    H232116   1.339   3.890   2.139
10725TIP3   OH232117   6.720   6.355   1.439
10725TIP3    H132118   6.664   6.376   1.514
10725TIP3    H232119   6.802   6.324   1.478
10726TIP3   OH232120   1.120   6.398   5.422
10726TIP3    H132121   1.077   6.484   5.412
10726TIP3    H232122   1.048   6.335   5.413
10727TIP3   OH232123   4.300   3.077   3.094
10727TIP3    H132124   4.228   3.049   3.037
10727TIP3    H232125   4.262   3.147   3.147
10728TIP3   OH232126   1.178   0.174   6.100
10728TIP3    H132127   1.093   0.146   6.066
10728TIP3    H232128   1.161   0.195   6.192
10729TIP3   OH232129   3.107   2.998   4.282
10729TIP3    H132130   3.057   2.983   4.362
10729TIP3    H232131   3.042   3.029   4.219
10730TIP3   OH232132   7.438   6.471   4.904
10730TIP3    H132133   7.516   6.489   4.850
10730TIP3    H232134   7.416   6.556   4.942
10731TIP3   OH232135   0.109   0.014   4.643
10731TIP3    H132136   0.048  -0.056   4.666
10731TIP3    H232137   0.146   0.042   4.727
10732TIP3   OH232138   0.040   4.518   4.376
10732TIP3    H132139   0.051   4.555   4.288
10732TIP3    H232140   0.013   4.592   4.430
10733TIP3   OH232141   2.287   6.358   0.296
10733TIP3    H132142   2.306   6.292   0.363
10733TIP3    H232143   2.277   6.439   0.345
10734TIP3   OH232144   3.813   6.270   6.334
10734TIP3    H132145   3.766   6.304   6.411
10734TIP3    H232146   3.886   6.220   6.371
10735TIP3   OH232147   5.981   3.388   1.383
10735TIP3    H132148   5.997   3.428   1.469
10735TIP3    H232149   5.908   3.437   1.347
10736TIP3   OH232150   2.107   5.191   0.155
10736TIP3    H132151   2.114   5.142   0.073
10736TIP3    H232152   2.102   5.123   0.223
10737TIP3   OH232153   4.270   7.153   0.094
10737TIP3    H132154   4.336   7.220   0.075
10737TIP3    H232155   4.313   7.095   0.157
10738TIP3   OH232156   5.886   6.121   0.925
10738TIP3    H132157   5.835   6.194   0.890
10738TIP3    H232158   5.885   6.055   0.856
10739TIP3   OH232159   5.969   4.145   2.695
10739TIP3    H132160   6.059   4.111   2.701
10739TIP3    H232161   5.977   4.225   2.644
10740TIP3   OH232162   0.440   5.288   4.596
10740TIP3    H132163   0.384   5.357   4.560
10740TIP3    H232164   0.522   5.333   4.617
10741TIP3   OH232165   7.583   4.116   5.231
10741TIP3    H132166   7.507   4.060   5.241
10741TIP3    H232167   7.570   4.161   5.147
10742TIP3   OH232168   3.477   3.174   4.679
10742TIP3    H132169   3.563   3.204   4.707
10742TIP3    H232170   3.417   3.242   4.710
10743TIP3   OH232171   7.714   0.469   3.406
10743TIP3    H132172   7.696   0.515   3.324
10743TIP3    H232173   7.796   0.422   3.390
10744TIP3   OH232174   2.789   6.132   3.327
10744TIP3    H132175   2.859   6.119   3.263
10744TIP3    H232176   2.833   6.164   3.406
10745TIP3   OH232177   7.344   0.726   5.210
10745TIP3    H132178   7.375   0.774   5.134
10745TIP3    H232179   7.367   0.780   5.285
10746TIP3   OH232180   6.736   6.208   3.062
10746TIP3    H132181   6.811   6.261   3.090
10746TIP3    H232182   6.754   6.189   2.970
10747TIP3   OH232183   5.790   2.426   5.489
10747TIP3    H132184   5.855   2.399   5.554
10747TIP3    H232185   5.718   2.364   5.500
10748TIP3   OH232186   1.559   5.137   6.353
10748TIP3    H132187   1.490   5.091   6.400
10748TIP3    H232188   1.517   5.167   6.273
10749TIP3   OH232189   1.758   6.776   3.581
10749TIP3    H132190   1.822   6.846   3.583
10749TIP3    H232191   1.682   6.814   3.537
10750TIP3   OH232192   2.358   0.886   1.863
10750TIP3    H132193   2.338   0.794   1.845
10750TIP3    H232194   2.278   0.922   1.901
10751TIP3   OH232195   0.940   6.452   2.286
10751TIP3    H132196   0.978   6.407   2.211
10751TIP3    H232197   0.852   6.415   2.295
10752TIP3   OH232198   2.687   7.108   0.696
10752TIP3    H132199   2.715   7.130   0.785
10752TIP3    H232200   2.596   7.136   0.692
10753TIP3   OH232201   5.786   7.214   5.341
10753TIP3    H132202   5.785   7.154   5.266
10753TIP3    H232203   5.875   7.249   5.343
10754TIP3   OH232204   3.478   1.910   2.984
10754TIP3    H132205   3.511   1.980   3.041
10754TIP3    H232206   3.536   1.912   2.908
10755TIP3   OH232207   5.523   6.344   1.461
10755TIP3    H132208   5.456   6.409   1.480
10755TIP3    H232209   5.582   6.388   1.399
10756TIP3   OH232210   0.731   0.070   5.114
10756TIP3    H132211   0.724   0.141   5.178
10756TIP3    H232212   0.752  -0.007   5.167
10757TIP3   OH232213   5.663   0.889   5.939
10757TIP3    H132214   5.712   0.812   5.967
10757TIP3    H232215   5.720   0.963   5.958
10758TIP3   OH232216   8.124   4.317   5.230
10758TIP3    H132217   8.094   4.408   5.229
10758TIP3    H232218   8.186   4.312   5.158
10759TIP3   OH232219   5.642   0.326   0.333
10759TIP3    H132220   5.608   0.244   0.298
10759TIP3    H232221   5.564   0.379   0.350
10760TIP3   OH232222   0.873   5.924   3.183
10760TIP3    H132223   0.911   5.924   3.095
10760TIP3    H232224   0.948   5.915   3.242
10761TIP3   OH232225   3.212   2.214   3.459
10761TIP3    H132226   3.232   2.123   3.481
10761TIP3    H232227   3.117   2.218   3.454
10762TIP3   OH232228   3.424   3.005   1.143
10762TIP3    H132229   3.353   3.069   1.135
10762TIP3    H232230   3.471   3.032   1.222
10763TIP3   OH232231   3.240   3.317   4.338
10763TIP3    H132232   3.156   3.327   4.382
10763TIP3    H232233   3.226   3.244   4.277
10764TIP3   OH232234   1.795   3.528   4.659
10764TIP3    H132235   1.832   3.562   4.577
10764TIP3    H232236   1.806   3.433   4.653
10765TIP3   OH232237   4.039  -0.015   6.355
10765TIP3    H132238   4.085   0.062   6.322
10765TIP3    H232239   4.085  -0.038   6.436
10766TIP3   OH232240   0.456   4.455  -0.016
10766TIP3    H132241   0.474   4.465   0.077
10766TIP3    H232242   0.536   4.485  -0.060
10767TIP3   OH232243   2.516   7.878   4.731
10767TIP3    H132244   2.519   7.785   4.710
10767TIP3    H232245   2.472   7.918   4.656
10768TIP3   OH232246   4.663   6.399   5.240
10768TIP3    H132247   4.637   6.480   5.286
10768TIP3    H232248   4.717   6.429   5.167
10769TIP3   OH232249   3.791   4.215   0.417
10769TIP3    H132250   3.794   4.132   0.370
10769TIP3    H232251   3.792   4.282   0.349
10770TIP3   OH232252   2.545   7.321   2.845
10770TIP3    H132253   2.600   7.252   2.807
10770TIP3    H232254   2.605   7.393   2.863
10771TIP3   OH232255   4.968   4.116   2.316
10771TIP3    H132256   5.037   4.081   2.261
10771TIP3    H232257   4.996   4.096   2.406
10772TIP3   OH232258   4.449   5.161   2.035
10772TIP3    H132259   4.487   5.097   1.974
10772TIP3    H232260   4.355   5.147   2.030
10773TIP3   OH232261   1.071   7.127   5.125
10773TIP3    H132262   1.133   7.200   5.111
10773TIP3    H232263   1.123   7.060   5.170
10774TIP3   OH232264   0.422   3.752   4.602
10774TIP3    H132265   0.421   3.789   4.514
10774TIP3    H232266   0.512   3.768   4.633
10775TIP3   OH232267   2.746   3.658   1.840
10775TIP3    H132268   2.749   3.567   1.868
10775TIP3    H232269   2.685   3.700   1.901
10776TIP3   OH232270   0.713   2.597   2.660
10776TIP3    H132271   0.786   2.535   2.664
10776TIP3    H232272   0.665   2.573   2.581
10777TIP3   OH232273   0.546   4.333   0.433
10777TIP3    H132274   0.580   4.393   0.500
10777TIP3    H232275   0.451   4.343   0.438
10778TIP3   OH232276   2.943   3.994   5.694
10778TIP3    H132277   2.929   4.067   5.634
10778TIP3    H232278   2.855   3.967   5.720
10779TIP3   OH232279   5.071   0.474   0.355
10779TIP3    H132280   5.018   0.456   0.277
10779TIP3    H232281   5.144   0.412   0.350
10780TIP3   OH232282   6.389   0.831   6.149
10780TIP3    H132283   6.323   0.776   6.192
10780TIP3    H232284   6.372   0.820   6.056
10781TIP3   OH232285  -0.003   1.026   0.924
10781TIP3    H132286   0.065   0.992   0.866
10781TIP3    H232287  -0.021   0.954   0.984
10782TIP3   OH232288   5.139   7.588   3.095
10782TIP3    H132289   5.080   7.658   3.066
10782TIP3    H232290   5.162   7.541   3.015
10783TIP3   OH232291   1.151   5.832   1.190
10783TIP3    H132292   1.203   5.758   1.161
10783TIP3    H232293   1.215   5.892   1.230
10784TIP3   OH232294   2.034   6.874   5.350
10784TIP3    H132295   2.043   6.878   5.255
10784TIP3    H232296   1.940   6.881   5.365
10785TIP3   OH232297   7.454   0.087   4.281
10785TIP3    H132298   7.385   0.146   4.252
10785TIP3    H232299   7.503   0.136   4.347
10786TIP3   OH232300   6.428   1.329   4.077
10786TIP3    H132301   6.513   1.333   4.034
10786TIP3    H232302   6.448   1.303   4.167
10787TIP3   OH232303   5.745   6.616   1.645
10787TIP3    H132304   5.733   6.529   1.685
10787TIP3    H232305   5.813   6.603   1.580
10788TIP3   OH232306   4.200   4.336   2.558
10788TIP3    H132307   4.171   4.414   2.511
10788TIP3    H232308   4.121   4.305   2.604
10789TIP3   OH232309   0.894   4.088   1.484
10789TIP3    H132310   0.887   4.151   1.412
10789TIP3    H232311   0.903   4.003   1.441
10790TIP3   OH232312   7.476   0.842   4.974
10790TIP3    H132313   7.421   0.919   4.963
10790TIP3    H232314   7.560   0.866   4.935
10791TIP3   OH232315   0.410   0.111   2.113
10791TIP3    H132316   0.466   0.164   2.056
10791TIP3    H232317   0.470   0.052   2.158
10792TIP3   OH232318   6.939   2.084   1.717
10792TIP3    H132319   6.958   1.993   1.737
10792TIP3    H232320   6.854   2.101   1.758
10793TIP3   OH232321   6.570   0.570   6.236
10793TIP3    H132322   6.485   0.598   6.201
10793TIP3    H232323   6.634   0.619   6.185
10794TIP3   OH232324   6.076   4.572   6.470
10794TIP3    H132325   6.166   4.601   6.488
10794TIP3    H232326   6.030   4.652   6.446
10795TIP3   OH232327   7.499   4.876   4.150
10795TIP3    H132328   7.484   4.837   4.236
10795TIP3    H232329   7.580   4.835   4.120
10796TIP3   OH232330   8.037   2.208   1.140
10796TIP3    H132331   8.038   2.205   1.236
10796TIP3    H232332   7.984   2.133   1.114
10797TIP3   OH232333   2.255   4.264   5.606
10797TIP3    H132334   2.307   4.325   5.658
10797TIP3    H232335   2.194   4.225   5.669
10798TIP3   OH232336   6.329   1.684   5.899
10798TIP3    H132337   6.369   1.603   5.867
10798TIP3    H232338   6.243   1.658   5.930
10799TIP3   OH232339   6.712   3.658   2.586
10799TIP3    H132340   6.794   3.704   2.606
10799TIP3    H232341   6.651   3.687   2.654
10800TIP3   OH232342   0.514   3.087   4.816
10800TIP3    H132343   0.498   3.044   4.732
10800TIP3    H232344   0.433   3.134   4.835
10801TIP3   OH232345   6.916   7.228   1.369
10801TIP3    H132346   6.963   7.296   1.417
10801TIP3    H232347   6.962   7.147   1.392
10802TIP3   OH232348   1.047   5.236   6.596
10802TIP3    H132349   1.137   5.204   6.591
10802TIP3    H232350   1.004   5.176   6.657
10803TIP3   OH232351   5.343   7.132   0.621
10803TIP3    H132352   5.340   7.227   0.634
10803TIP3    H232353   5.434   7.113   0.599
10804TIP3   OH232354   0.498   1.748   1.241
10804TIP3    H132355   0.453   1.766   1.323
10804TIP3    H232356   0.587   1.725   1.267
10805TIP3   OH232357   3.316   4.276   5.951
10805TIP3    H132358   3.297   4.192   5.993
10805TIP3    H232359   3.277   4.270   5.864
10806TIP3   OH232360   0.193   0.302   4.681
10806TIP3    H132361   0.098   0.293   4.673
10806TIP3    H232362   0.205   0.368   4.748
10807TIP3   OH232363   5.648   7.262   6.749
10807TIP3    H132364   5.723   7.203   6.748
10807TIP3    H232365   5.675   7.336   6.695
10808TIP3   OH232366   3.958   4.595   2.788
10808TIP3    H132367   3.903   4.603   2.866
10808TIP3    H232368   4.048   4.594   2.823
10809TIP3   OH232369   1.067   1.096   1.230
10809TIP3    H132370   0.976   1.070   1.243
10809TIP3    H232371   1.104   1.026   1.176
10810TIP3   OH232372   4.942   3.397   2.310
10810TIP3    H132373   5.031   3.402   2.344
10810TIP3    H232374   4.886   3.418   2.384
10811TIP3   OH232375   7.141   3.430   6.018
10811TIP3    H132376   7.074   3.442   5.952
10811TIP3    H232377   7.223   3.450   5.973
10812TIP3   OH232378   8.025   4.931   3.425
10812TIP3    H132379   7.940   4.887   3.436
10812TIP3    H232380   8.020   5.007   3.483
10813TIP3   OH232381   7.011   2.335   3.345
10813TIP3    H132382   6.991   2.389   3.421
10813TIP3    H232383   7.031   2.249   3.382
10814TIP3   OH232384   5.205   4.855   2.126
10814TIP3    H132385   5.242   4.927   2.176
10814TIP3    H232386   5.224   4.777   2.178
10815TIP3   OH232387   7.569   1.916   2.500
10815TIP3    H132388   7.620   1.992   2.471
10815TIP3    H232389   7.516   1.949   2.573
10816TIP3   OH232390   1.086   0.988   0.840
10816TIP3    H132391   1.123   0.954   0.921
10816TIP3    H232392   1.109   1.081   0.840
10817TIP3   OH232393   6.029   6.637   5.689
10817TIP3    H132394   6.008   6.545   5.673
10817TIP3    H232395   5.956   6.669   5.743
10818TIP3   OH232396   3.963   4.806   3.570
10818TIP3    H132397   4.027   4.841   3.631
10818TIP3    H232398   3.933   4.882   3.520
10819TIP3   OH232399   6.341   3.751   5.335
10819TIP3    H132400   6.396   3.718   5.405
10819TIP3    H232401   6.258   3.774   5.377
10820TIP3   OH232402   7.076   7.471   5.780
10820TIP3    H132403   7.092   7.517   5.697
10820TIP3    H232404   7.100   7.535   5.847
10821TIP3   OH232405   0.720   4.411   1.765
10821TIP3    H132406   0.641   4.451   1.730
10821TIP3    H232407   0.776   4.484   1.789
10822TIP3   OH232408   2.428   5.598   2.522
10822TIP3    H132409   2.344   5.627   2.560
10822TIP3    H232410   2.433   5.506   2.546
10823TIP3   OH232411   0.105   1.381   6.620
10823TIP3    H132412   0.047   1.425   6.559
10823TIP3    H232413   0.113   1.441   6.694
10824TIP3   OH232414   1.732   3.603   3.005
10824TIP3    H132415   1.678   3.547   3.061
10824TIP3    H232416   1.802   3.546   2.975
10825TIP3   OH232417   6.254   2.049   0.570
10825TIP3    H132418   6.239   2.032   0.663
10825TIP3    H232419   6.340   2.092   0.568
10826TIP3   OH232420   7.994   7.204   6.735
10826TIP3    H132421   7.926   7.251   6.784
10826TIP3    H232422   8.030   7.141   6.797
10827TIP3   OH232423   5.376   4.082   5.579
10827TIP3    H132424   5.297   4.122   5.613
10827TIP3    H232425   5.406   4.141   5.510
10828TIP3   OH232426   7.918   7.651   4.885
10828TIP3    H132427   7.842   7.604   4.851
10828TIP3    H232428   7.993   7.601   4.855
10829TIP3   OH232429   2.308   4.686   2.485
10829TIP3    H132430   2.313   4.666   2.578
10829TIP3    H232431   2.306   4.601   2.442
10830TIP3   OH232432   1.945   6.530  -0.012
10830TIP3    H132433   1.893   6.562   0.062
10830TIP3    H232434   2.024   6.493   0.027
10831TIP3   OH232435   6.080   2.887   0.127
10831TIP3    H132436   6.082   2.965   0.071
10831TIP3    H232437   6.015   2.830   0.085
10832TIP3   OH232438   1.006   1.677   6.129
10832TIP3    H132439   0.979   1.728   6.053
10832TIP3    H232440   1.055   1.739   6.183
10833TIP3   OH232441   2.653   5.616   5.408
10833TIP3    H132442   2.727   5.593   5.351
10833TIP3    H232443   2.693   5.666   5.479
10834TIP3   OH232444   7.664   6.817   0.667
10834TIP3    H132445   7.654   6.728   0.700
10834TIP3    H232446   7.583   6.862   0.691
10835TIP3   OH232447   1.924   4.998   2.296
10835TIP3    H132448   1.847   5.017   2.351
10835TIP3    H232449   1.969   5.082   2.288
10836TIP3   OH232450   4.511   6.643   6.160
10836TIP3    H132451   4.427   6.674   6.195
10836TIP3    H232452   4.500   6.645   6.065
10837TIP3   OH232453   2.938   0.143   6.103
10837TIP3    H132454   3.002   0.198   6.148
10837TIP3    H232455   2.921   0.072   6.165
10838TIP3   OH232456   0.634   3.544   4.378
10838TIP3    H132457   0.709   3.594   4.410
10838TIP3    H232458   0.619   3.478   4.445
10839TIP3   OH232459   2.905   6.923   6.304
10839TIP3    H132460   2.868   6.991   6.247
10839TIP3    H232461   2.893   6.842   6.255
10840TIP3   OH232462   4.256   3.147   6.519
10840TIP3    H132463   4.294   3.088   6.454
10840TIP3    H232464   4.188   3.095   6.563
10841TIP3   OH232465   3.757   6.630   1.780
10841TIP3    H132466   3.705   6.703   1.814
10841TIP3    H232467   3.723   6.616   1.691
10842TIP3   OH232468   0.575   3.090   1.514
10842TIP3    H132469   0.517   3.154   1.471
10842TIP3    H232470   0.521   3.049   1.581
10843TIP3   OH232471   7.543   6.433   3.947
10843TIP3    H132472   7.456   6.469   3.964
10843TIP3    H232473   7.538   6.342   3.977
10844TIP3   OH232474   6.714   2.438   4.545
10844TIP3    H132475   6.682   2.485   4.622
10844TIP3    H232476   6.794   2.394   4.575
10845TIP3   OH232477   6.185   6.214   0.709
10845TIP3    H132478   6.138   6.204   0.791
10845TIP3    H232479   6.116   6.222   0.643
10846TIP3   OH232480   5.962   0.944   6.233
10846TIP3    H132481   5.979   0.917   6.323
10846TIP3    H232482   6.015   1.023   6.222
10847TIP3   OH232483   3.023   3.372   0.368
10847TIP3    H132484   3.100   3.319   0.348
10847TIP3    H232485   2.950   3.323   0.330
10848TIP3   OH232486   4.577   6.144   6.245
10848TIP3    H132487   4.549   6.201   6.174
10848TIP3    H232488   4.596   6.203   6.318
10849TIP3   OH232489   3.008   4.555   5.784
10849TIP3    H132490   3.047   4.554   5.871
10849TIP3    H232491   3.070   4.605   5.730
10850TIP3   OH232492   3.554   0.331   2.348
10850TIP3    H132493   3.574   0.243   2.380
10850TIP3    H232494   3.600   0.390   2.407
10851TIP3   OH232495   5.643   1.089   0.608
10851TIP3    H132496   5.694   1.162   0.573
10851TIP3    H232497   5.629   1.030   0.534
10852TIP3   OH232498   4.107   1.887   0.855
10852TIP3    H132499   4.164   1.963   0.855
10852TIP3    H232500   4.117   1.849   0.768
10853TIP3   OH232501   0.970   3.227   3.805
10853TIP3    H132502   0.921   3.163   3.752
10853TIP3    H232503   1.050   3.181   3.829
10854TIP3   OH232504   4.434   7.800   5.159
10854TIP3    H132505   4.489   7.803   5.238
10854TIP3    H232506   4.441   7.710   5.129
10855TIP3   OH232507   2.871   5.156   3.557
10855TIP3    H132508   2.844   5.245   3.533
10855TIP3    H232509   2.790   5.105   3.555
10856TIP3   OH232510   2.997   6.668   2.937
10856TIP3    H132511   2.945   6.685   2.858
10856TIP3    H232512   3.033   6.581   2.924
10857TIP3   OH232513   7.751   3.328   5.560
10857TIP3    H132514   7.826   3.288   5.603
10857TIP3    H232515   7.675   3.287   5.602
10858TIP3   OH232516   5.272   2.297   2.434
10858TIP3    H132517   5.216   2.315   2.359
10858TIP3    H232518   5.214   2.261   2.501
10859TIP3   OH232519   6.795   6.908   3.706
10859TIP3    H132520   6.827   6.818   3.694
10859TIP3    H232521   6.803   6.948   3.620
10860TIP3   OH232522   7.223   1.250   3.781
10860TIP3    H132523   7.143   1.253   3.834
10860TIP3    H232524   7.290   1.288   3.838
10861TIP3   OH232525   3.615   2.506   3.608
10861TIP3    H132526   3.559   2.494   3.685
10861TIP3    H232527   3.688   2.559   3.640
10862TIP3   OH232528   6.454   0.366   3.144
10862TIP3    H132529   6.461   0.454   3.179
10862TIP3    H232530   6.405   0.376   3.063
10863TIP3   OH232531   1.552   0.891   1.436
10863TIP3    H132532   1.587   0.978   1.418
10863TIP3    H232533   1.592   0.866   1.519
10864TIP3   OH232534   5.236   7.409   6.193
10864TIP3    H132535   5.180   7.483   6.216
10864TIP3    H232536   5.177   7.350   6.145
10865TIP3   OH232537   6.504   5.034   1.499
10865TIP3    H132538   6.559   5.113   1.504
10865TIP3    H232539   6.534   4.989   1.420
10866TIP3   OH232540   3.536   1.230   0.912
10866TIP3    H132541   3.549   1.215   1.006
10866TIP3    H232542   3.557   1.322   0.899
10867TIP3   OH232543   0.285   7.436   4.122
10867TIP3    H132544   0.343   7.367   4.153
10867TIP3    H232545   0.344   7.507   4.096
10868TIP3   OH232546   4.223   7.760   0.752
10868TIP3    H132547   4.191   7.842   0.789
10868TIP3    H232548   4.300   7.785   0.700
10869TIP3   OH232549   0.797   6.468   2.917
10869TIP3    H132550   0.746   6.470   2.836
10869TIP3    H232551   0.802   6.560   2.944
10870TIP3   OH232552   0.192   4.436   5.286
10870TIP3    H132553   0.210   4.342   5.292
10870TIP3    H232554   0.259   4.478   5.339
10871TIP3   OH232555   3.424   1.169   2.692
10871TIP3    H132556   3.432   1.237   2.625
10871TIP3    H232557   3.513   1.134   2.701
10872TIP3   OH232558   1.814   5.933   0.123
10872TIP3    H132559   1.834   6.026   0.135
10872TIP3    H232560   1.848   5.891   0.202
10873TIP3   OH232561   0.020   2.545   2.112
10873TIP3    H132562  -0.057   2.557   2.168
10873TIP3    H232563   0.093   2.580   2.164
10874TIP3   OH232564   7.629   7.642   4.580
10874TIP3    H132565   7.612   7.649   4.486
10874TIP3    H232566   7.722   7.661   4.588
10875TIP3   OH232567   0.270   3.507   5.332
10875TIP3    H132568   0.336   3.485   5.266
10875TIP3    H232569   0.321   3.522   5.412
10876TIP3   OH232570   3.378   6.905   5.261
10876TIP3    H132571   3.413   6.985   5.222
10876TIP3    H232572   3.284   6.910   5.245
10877TIP3   OH232573   1.245   2.465   0.176
10877TIP3    H132574   1.332   2.497   0.201
10877TIP3    H232575   1.239   2.378   0.215
10878TIP3   OH232576   7.691   7.220   1.996
10878TIP3    H132577   7.708   7.293   2.055
10878TIP3    H232578   7.774   7.205   1.951
10879TIP3   OH232579   7.714   3.117   4.892
10879TIP3    H132580   7.736   3.177   4.963
10879TIP3    H232581   7.700   3.174   4.816
10880TIP3   OH232582   1.389   3.313   1.346
10880TIP3    H132583   1.453   3.299   1.276
10880TIP3    H232584   1.338   3.389   1.316
10881TIP3   OH232585   5.549   0.822   3.581
10881TIP3    H132586   5.632   0.789   3.549
10881TIP3    H232587   5.484   0.759   3.551
10882TIP3   OH232588   4.456   0.506   2.223
10882TIP3    H132589   4.508   0.473   2.296
10882TIP3    H232590   4.410   0.582   2.259
10883TIP3   OH232591   7.906   1.979   6.123
10883TIP3    H132592   7.897   1.894   6.167
10883TIP3    H232593   7.944   1.957   6.038
10884TIP3   OH232594   5.224   7.334   3.965
10884TIP3    H132595   5.210   7.425   3.994
10884TIP3    H232596   5.144   7.312   3.917
10885TIP3   OH232597   2.237   7.022   1.282
10885TIP3    H132598   2.176   7.086   1.318
10885TIP3    H232599   2.291   6.995   1.356
10886TIP3   OH232600   1.755   3.227   3.059
10886TIP3    H132601   1.715   3.278   2.988
10886TIP3    H232602   1.700   3.245   3.135
10887TIP3   OH232603   5.986   2.692   5.041
10887TIP3    H132604   5.961   2.603   5.015
10887TIP3    H232605   6.070   2.706   4.997
10888TIP3   OH232606   5.548   1.746   3.640
10888TIP3    H132607   5.572   1.779   3.727
10888TIP3    H232608   5.454   1.760   3.633
10889TIP3   OH232609   7.677   4.570   2.785
10889TIP3    H132610   7.671   4.587   2.879
10889TIP3    H232611   7.587   4.578   2.754
10890TIP3   OH232612   5.298   3.892   6.297
10890TIP3    H132613   5.247   3.876   6.376
10890TIP3    H232614   5.233   3.905   6.228
10891TIP3   OH232615   1.075   4.848   2.752
10891TIP3    H132616   1.057   4.760   2.721
10891TIP3    H232617   1.149   4.877   2.699
10892TIP3   OH232618   0.098   3.687   0.313
10892TIP3    H132619   0.136   3.662   0.398
10892TIP3    H232620   0.033   3.620   0.295
10893TIP3   OH232621   2.236   7.333   2.387
10893TIP3    H132622   2.167   7.278   2.351
10893TIP3    H232623   2.247   7.303   2.477
10894TIP3   OH232624   6.559   5.629   4.511
10894TIP3    H132625   6.626   5.646   4.578
10894TIP3    H232626   6.500   5.704   4.517
10895TIP3   OH232627   6.869   0.519   1.753
10895TIP3    H132628   6.957   0.535   1.787
10895TIP3    H232629   6.866   0.566   1.669
10896TIP3   OH232630   7.996   2.080   2.964
10896TIP3    H132631   8.038   2.068   2.879
10896TIP3    H232632   7.909   2.041   2.955
10897TIP3   OH232633   0.219   4.208   4.746
10897TIP3    H132634   0.289   4.151   4.775
10897TIP3    H232635   0.263   4.286   4.712
10898TIP3   OH232636   5.402   5.478   1.446
10898TIP3    H132637   5.435   5.474   1.536
10898TIP3    H232638   5.317   5.521   1.454
10899TIP3   OH232639   5.628   7.600   1.309
10899TIP3    H132640   5.648   7.694   1.307
10899TIP3    H232641   5.678   7.566   1.383
10900TIP3   OH232642   1.109   2.854   5.951
10900TIP3    H132643   1.181   2.899   5.994
10900TIP3    H232644   1.110   2.766   5.988
10901TIP3   OH232645   1.661   1.197   0.345
10901TIP3    H132646   1.755   1.207   0.361
10901TIP3    H232647   1.639   1.268   0.285
10902TIP3   OH232648   6.228   4.275   1.380
10902TIP3    H132649   6.240   4.368   1.363
10902TIP3    H232650   6.219   4.270   1.476
10903TIP3   OH232651   2.880   0.748   3.259
10903TIP3    H132652   2.837   0.834   3.261
10903TIP3    H232653   2.965   0.765   3.218
10904TIP3   OH232654   7.259   0.171   6.076
10904TIP3    H132655   7.272   0.178   5.981
10904TIP3    H232656   7.185   0.111   6.086
10905TIP3   OH232657   8.139   1.349   4.468
10905TIP3    H132658   8.057   1.311   4.499
10905TIP3    H232659   8.205   1.283   4.489
10906TIP3   OH232660   5.901   4.370   5.608
10906TIP3    H132661   5.850   4.342   5.532
10906TIP3    H232662   5.843   4.358   5.683
10907TIP3   OH232663   1.690   2.988   2.728
10907TIP3    H132664   1.701   2.941   2.810
10907TIP3    H232665   1.775   2.982   2.685
10908TIP3   OH232666   0.714   2.663   0.318
10908TIP3    H132667   0.680   2.743   0.359
10908TIP3    H232668   0.717   2.683   0.224
10909TIP3   OH232669   1.462   5.300   1.158
10909TIP3    H132670   1.414   5.227   1.197
10909TIP3    H232671   1.545   5.302   1.206
10910TIP3   OH232672   3.366   5.606   2.371
10910TIP3    H132673   3.279   5.647   2.365
10910TIP3    H232674   3.347   5.513   2.388
10911TIP3   OH232675   0.886   4.858   0.457
10911TIP3    H132676   0.798   4.876   0.490
10911TIP3    H232677   0.877   4.776   0.408
10912TIP3   OH232678   3.524   2.923   1.745
10912TIP3    H132679   3.487   2.872   1.817
10912TIP3    H232680   3.477   3.007   1.748
10913TIP3   OH232681   0.668   7.038   6.490
10913TIP3    H132682   0.681   7.128   6.459
10913TIP3    H232683   0.677   6.984   6.412
10914TIP3   OH232684   4.612   4.129   3.343
10914TIP3    H132685   4.595   4.136   3.249
10914TIP3    H232686   4.693   4.178   3.356
10915TIP3   OH232687   4.041   6.939   6.489
10915TIP3    H132688   4.001   6.899   6.566
10915TIP3    H232689   4.040   6.869   6.423
10916TIP3   OH232690   1.702   0.505   5.352
10916TIP3    H132691   1.770   0.515   5.286
10916TIP3    H232692   1.713   0.416   5.385
10917TIP3   OH232693   6.126   5.459   5.500
10917TIP3    H132694   6.115   5.550   5.527
10917TIP3    H232695   6.208   5.432   5.541
10918TIP3   OH232696   3.621   2.566   5.334
10918TIP3    H132697   3.554   2.624   5.370
10918TIP3    H232698   3.692   2.624   5.308
10919TIP3   OH232699   7.446   4.604   0.565
10919TIP3    H132700   7.451   4.691   0.527
10919TIP3    H232701   7.451   4.545   0.490
10920TIP3   OH232702   0.504   6.568   2.164
10920TIP3    H132703   0.418   6.531   2.149
10920TIP3    H232704   0.534   6.596   2.077
10921TIP3   OH232705   4.941   7.458   0.629
10921TIP3    H132706   5.016   7.412   0.666
10921TIP3    H232707   4.926   7.416   0.544
10922TIP3   OH232708   1.840   1.751   0.048
10922TIP3    H132709   1.750   1.731   0.022
10922TIP3    H232710   1.833   1.778   0.139
10923TIP3   OH232711   4.288   4.052   1.123
10923TIP3    H132712   4.323   4.084   1.206
10923TIP3    H232713   4.357   3.995   1.089
10924TIP3   OH232714   4.757   7.515   2.941
10924TIP3    H132715   4.812   7.485   2.868
10924TIP3    H232716   4.709   7.590   2.906
10925TIP3   OH232717   1.945   6.907   6.637
10925TIP3    H132718   1.859   6.900   6.677
10925TIP3    H232719   1.992   6.972   6.690
10926TIP3   OH232720   3.222   7.188   5.430
10926TIP3    H132721   3.282   7.192   5.355
10926TIP3    H232722   3.151   7.130   5.401
10927TIP3   OH232723   7.791   4.472   6.671
10927TIP3    H132724   7.763   4.423   6.748
10927TIP3    H232725   7.887   4.469   6.675
10928TIP3   OH232726   3.414   1.266   1.283
10928TIP3    H132727   3.422   1.339   1.344
10928TIP3    H232728   3.489   1.210   1.302
10929TIP3   OH232729   8.202   5.170   5.153
10929TIP3    H132730   8.267   5.167   5.223
10929TIP3    H232731   8.253   5.157   5.073
10930TIP3   OH232732   0.835   5.230   0.552
10930TIP3    H132733   0.878   5.167   0.495
10930TIP3    H232734   0.825   5.184   0.635
10931TIP3   OH232735   0.948   6.869   6.138
10931TIP3    H132736   0.943   6.776   6.115
10931TIP3    H232737   0.984   6.911   6.060
10932TIP3   OH232738   1.159   0.086   3.539
10932TIP3    H132739   1.191   0.008   3.494
10932TIP3    H232740   1.195   0.078   3.628
10933TIP3   OH232741   7.756   3.817   0.602
10933TIP3    H132742   7.761   3.724   0.624
10933TIP3    H232743   7.847   3.847   0.603
10934TIP3   OH232744   4.890   7.725   4.269
10934TIP3    H132745   4.817   7.781   4.297
10934TIP3    H232746   4.927   7.771   4.194
10935TIP3   OH232747   6.081   7.136   5.268
10935TIP3    H132748   6.053   7.059   5.318
10935TIP3    H232749   6.089   7.206   5.333
10936TIP3   OH232750   0.673   6.108   4.850
10936TIP3    H132751   0.710   6.045   4.790
10936TIP3    H232752   0.718   6.190   4.830
10937TIP3   OH232753   7.542   6.089   6.011
10937TIP3    H132754   7.499   6.069   6.093
10937TIP3    H232755   7.567   6.004   5.975
10938TIP3   OH232756   1.304   4.314   0.250
10938TIP3    H132757   1.306   4.370   0.172
10938TIP3    H232758   1.350   4.365   0.317
10939TIP3   OH232759   4.477   5.932   2.611
10939TIP3    H132760   4.528   5.912   2.689
10939TIP3    H232761   4.472   6.028   2.609
10940TIP3   OH232762   5.256   3.264   5.929
10940TIP3    H132763   5.300   3.302   5.853
10940TIP3    H232764   5.294   3.310   6.004
10941TIP3   OH232765   2.783   1.750   2.151
10941TIP3    H132766   2.787   1.696   2.230
10941TIP3    H232767   2.738   1.695   2.086
10942TIP3   OH232768   5.739   1.425   4.260
10942TIP3    H132769   5.759   1.352   4.200
10942TIP3    H232770   5.797   1.496   4.231
10943TIP3   OH232771   6.590   2.327   6.066
10943TIP3    H132772   6.618   2.263   6.001
10943TIP3    H232773   6.584   2.409   6.017
10944TIP3   OH232774   6.222   4.720   4.155
10944TIP3    H132775   6.190   4.677   4.076
10944TIP3    H232776   6.305   4.759   4.128
10945TIP3   OH232777   0.672   4.049   0.790
10945TIP3    H132778   0.647   3.987   0.721
10945TIP3    H232779   0.753   4.014   0.825
10946TIP3   OH232780   6.514   7.430   5.664
10946TIP3    H132781   6.521   7.336   5.650
10946TIP3    H232782   6.596   7.455   5.705
10947TIP3   OH232783   6.159   2.228   6.528
10947TIP3    H132784   6.238   2.279   6.545
10947TIP3    H232785   6.167   2.152   6.586
10948TIP3   OH232786   0.315   4.102   1.541
10948TIP3    H132787   0.320   4.197   1.547
10948TIP3    H232788   0.352   4.081   1.455
10949TIP3   OH232789   5.587   1.423   4.964
10949TIP3    H132790   5.660   1.485   4.960
10949TIP3    H232791   5.521   1.467   5.018
10950TIP3   OH232792   6.537   0.914   0.986
10950TIP3    H132793   6.590   0.989   0.960
10950TIP3    H232794   6.595   0.839   0.973
10951TIP3   OH232795   7.308   5.178   1.039
10951TIP3    H132796   7.368   5.223   0.978
10951TIP3    H232797   7.310   5.086   1.012
10952TIP3   OH232798   6.155   4.275   4.144
10952TIP3    H132799   6.220   4.325   4.094
10952TIP3    H232800   6.194   4.265   4.231
10953TIP3   OH232801   8.201   4.365   1.480
10953TIP3    H132802   8.281   4.413   1.458
10953TIP3    H232803   8.210   4.282   1.435
10954TIP3   OH232804   2.582   3.425   1.254
10954TIP3    H132805   2.622   3.380   1.179
10954TIP3    H232806   2.553   3.354   1.312
10955TIP3   OH232807   5.725   4.971   4.635
10955TIP3    H132808   5.726   4.937   4.725
10955TIP3    H232809   5.815   4.962   4.605
10956TIP3   OH232810   0.578   3.923   1.297
10956TIP3    H132811   0.496   3.879   1.320
10956TIP3    H232812   0.556   4.016   1.295
10957TIP3   OH232813   4.957   4.381   4.067
10957TIP3    H132814   4.913   4.409   3.986
10957TIP3    H232815   4.925   4.292   4.082
10958TIP3   OH232816   4.286   2.083   6.518
10958TIP3    H132817   4.313   2.053   6.432
10958TIP3    H232818   4.334   2.165   6.531
10959TIP3   OH232819   0.026   3.248   0.748
10959TIP3    H132820   0.033   3.179   0.814
10959TIP3    H232821   0.031   3.201   0.665
10960TIP3   OH232822   0.698   4.164   5.276
10960TIP3    H132823   0.734   4.134   5.193
10960TIP3    H232824   0.633   4.098   5.300
10961TIP3   OH232825   6.503   6.881   2.272
10961TIP3    H132826   6.563   6.841   2.208
10961TIP3    H232827   6.464   6.955   2.225
10962TIP3   OH232828   1.448   1.250   6.476
10962TIP3    H132829   1.435   1.155   6.464
10962TIP3    H232830   1.408   1.269   6.561
10963TIP3   OH232831   4.278   6.012   1.587
10963TIP3    H132832   4.213   6.082   1.581
10963TIP3    H232833   4.227   5.931   1.587
10964TIP3   OH232834   4.388   5.921   0.136
10964TIP3    H132835   4.414   5.836   0.170
10964TIP3    H232836   4.345   5.902   0.053
10965TIP3   OH232837   4.096   4.713   2.087
10965TIP3    H132838   4.183   4.673   2.092
10965TIP3    H232839   4.045   4.667   2.154
10966TIP3   OH232840   4.119   2.951   0.545
10966TIP3    H132841   4.149   2.875   0.495
10966TIP3    H232842   4.062   2.914   0.612
10967TIP3   OH232843   1.952   2.590   0.700
10967TIP3    H132844   1.881   2.653   0.687
10967TIP3    H232845   1.937   2.523   0.633
10968TIP3   OH232846   3.631   3.232   0.404
10968TIP3    H132847   3.637   3.212   0.497
10968TIP3    H232848   3.626   3.327   0.400
10969TIP3   OH232849   5.137   2.814   6.211
10969TIP3    H132850   5.133   2.890   6.152
10969TIP3    H232851   5.214   2.766   6.182
10970TIP3   OH232852   5.167   6.313   5.296
10970TIP3    H132853   5.130   6.399   5.313
10970TIP3    H232854   5.228   6.327   5.224
10971TIP3   OH232855   0.756   7.236   4.350
10971TIP3    H132856   0.711   7.320   4.354
10971TIP3    H232857   0.747   7.199   4.437
10972TIP3   OH232858   7.856   6.617   4.636
10972TIP3    H132859   7.795   6.621   4.710
10972TIP3    H232860   7.806   6.575   4.566
10973TIP3   OH232861   2.583   6.724   1.390
10973TIP3    H132862   2.531   6.749   1.313
10973TIP3    H232863   2.603   6.807   1.433
10974TIP3   OH232864   1.037   3.301   2.407
10974TIP3    H132865   1.045   3.385   2.452
10974TIP3    H232866   1.124   3.261   2.416
10975TIP3   OH232867   5.018   2.555   4.217
10975TIP3    H132868   4.984   2.641   4.242
10975TIP3    H232869   5.075   2.529   4.290
10976TIP3   OH232870   2.869   6.182   6.265
10976TIP3    H132871   2.792   6.131   6.291
10976TIP3    H232872   2.835   6.271   6.251
10977TIP3   OH232873   5.134   2.889   1.444
10977TIP3    H132874   5.218   2.919   1.478
10977TIP3    H232875   5.142   2.897   1.349
10978TIP3   OH232876   5.382   7.692   2.231
10978TIP3    H132877   5.438   7.730   2.163
10978TIP3    H232878   5.381   7.598   2.211
10979TIP3   OH232879   3.929   0.643   1.087
10979TIP3    H132880   3.875   0.588   1.030
10979TIP3    H232881   3.955   0.717   1.033
10980TIP3   OH232882   1.876   5.793   3.040
10980TIP3    H132883   1.900   5.702   3.058
10980TIP3    H232884   1.865   5.796   2.945
10981TIP3   OH232885   1.576   7.265   5.763
10981TIP3    H132886   1.509   7.204   5.732
10981TIP3    H232887   1.556   7.278   5.856
10982TIP3   OH232888   3.901   0.266   3.261
10982TIP3    H132889   3.869   0.306   3.180
10982TIP3    H232890   3.940   0.339   3.309
10983TIP3   OH232891   7.911   3.906   6.541
10983TIP3    H132892   8.001   3.912   6.507
10983TIP3    H232893   7.879   3.822   6.508
10984TIP3   OH232894   7.137   6.239   4.458
10984TIP3    H132895   7.144   6.219   4.552
10984TIP3    H232896   7.043   6.246   4.443
10985TIP3   OH232897   1.117   6.683   5.827
10985TIP3    H132898   1.085   6.597   5.801
10985TIP3    H232899   1.038   6.733   5.848
10986TIP3   OH232900   7.855   3.624   3.359
10986TIP3    H132901   7.930   3.676   3.387
10986TIP3    H232902   7.782   3.654   3.413
10987TIP3   OH232903   3.441   5.270   5.780
10987TIP3    H132904   3.509   5.337   5.779
10987TIP3    H232905   3.489   5.188   5.797
10988TIP3   OH232906   3.065   2.974   5.991
10988TIP3    H132907   3.122   3.049   5.974
10988TIP3    H232908   3.039   2.984   6.083
10989TIP3   OH232909   1.694   7.144   2.663
10989TIP3    H132910   1.715   7.143   2.756
10989TIP3    H232911   1.604   7.178   2.659
10990TIP3   OH232912   0.189   5.877   6.537
10990TIP3    H132913   0.240   5.957   6.550
10990TIP3    H232914   0.101   5.908   6.514
10991TIP3   OH232915   2.219   6.267   3.420
10991TIP3    H132916   2.154   6.311   3.475
10991TIP3    H232917   2.270   6.214   3.481
10992TIP3   OH232918   4.020   4.316   5.162
10992TIP3    H132919   4.066   4.377   5.220
10992TIP3    H232920   3.935   4.303   5.204
10993TIP3   OH232921   3.795   6.912   0.051
10993TIP3    H132922   3.879   6.947   0.084
10993TIP3    H232923   3.804   6.913  -0.044
10994TIP3   OH232924   7.307   0.556   2.398
10994TIP3    H132925   7.247   0.487   2.425
10994TIP3    H232926   7.348   0.586   2.480
10995TIP3   OH232927   6.515   6.906   4.881
10995TIP3    H132928   6.534   6.816   4.854
10995TIP3    H232929   6.568   6.960   4.822
10996TIP3   OH232930   5.863   2.962   3.823
10996TIP3    H132931   5.784   2.910   3.809
10996TIP3    H232932   5.921   2.903   3.872
10997TIP3   OH232933   0.718   6.138   4.135
10997TIP3    H132934   0.643   6.161   4.190
10997TIP3    H232935   0.793   6.142   4.194
10998TIP3   OH232936   7.475   1.706   0.798
10998TIP3    H132937   7.464   1.633   0.860
10998TIP3    H232938   7.547   1.679   0.742
10999TIP3   OH232939   6.226   1.962   4.027
10999TIP3    H132940   6.238   2.053   3.998
10999TIP3    H232941   6.220   1.968   4.123
11000TIP3   OH232942   1.450   0.767   4.402
11000TIP3    H132943   1.365   0.725   4.390
11000TIP3    H232944   1.485   0.779   4.314
11001TIP3   OH232945   1.132   7.823   2.697
11001TIP3    H132946   1.105   7.895   2.754
11001TIP3    H232947   1.058   7.762   2.697
11002TIP3   OH232948   2.595   7.211   1.611
11002TIP3    H132949   2.649   7.143   1.652
11002TIP3    H232950   2.651   7.288   1.610
11003TIP3   OH232951   3.372   3.629   0.342
11003TIP3    H132952   3.289   3.629   0.391
11003TIP3    H232953   3.356   3.569   0.269
11004TIP3   OH232954   2.316   7.491   0.219
11004TIP3    H132955   2.332   7.406   0.259
11004TIP3    H232956   2.393   7.543   0.241
11005TIP3   OH232957   2.201   7.198   3.316
11005TIP3    H132958   2.284   7.222   3.274
11005TIP3    H232959   2.218   7.207   3.410
11006TIP3   OH232960   0.714   7.838   3.274
11006TIP3    H132961   0.710   7.759   3.327
11006TIP3    H232962   0.670   7.905   3.327
11007TIP3   OH232963   2.852   2.322   0.651
11007TIP3    H132964   2.790   2.386   0.686
11007TIP3    H232965   2.919   2.315   0.718
11008TIP3   OH232966   0.013   3.146   2.398
11008TIP3    H132967  -0.016   3.188   2.479
11008TIP3    H232968   0.095   3.190   2.376
11009TIP3   OH232969   1.271   6.857   0.514
11009TIP3    H132970   1.259   6.837   0.421
11009TIP3    H232971   1.239   6.779   0.560
11010TIP3   OH232972   2.381   1.906   3.781
11010TIP3    H132973   2.343   1.945   3.702
11010TIP3    H232974   2.388   1.813   3.761
11011TIP3   OH232975   2.714   6.102   1.788
11011TIP3    H132976   2.651   6.045   1.833
11011TIP3    H232977   2.730   6.173   1.849
11012TIP3   OH232978   8.191   3.456   4.901
11012TIP3    H132979   8.103   3.444   4.934
11012TIP3    H232980   8.242   3.484   4.977
11013TIP3   OH232981   4.526   0.872   1.624
11013TIP3    H132982   4.522   0.803   1.690
11013TIP3    H232983   4.458   0.934   1.649
11014TIP3   OH232984   8.250   6.523   4.379
11014TIP3    H132985   8.274   6.438   4.414
11014TIP3    H232986   8.172   6.549   4.428
11015TIP3   OH232987   2.689   3.503   2.877
11015TIP3    H132988   2.620   3.464   2.824
11015TIP3    H232989   2.761   3.440   2.871
11016TIP3   OH232990   7.520   2.193   5.036
11016TIP3    H132991   7.546   2.168   4.947
11016TIP3    H232992   7.492   2.110   5.077
11017TIP3   OH232993   5.589   7.593   5.872
11017TIP3    H132994   5.503   7.556   5.890
11017TIP3    H232995   5.612   7.559   5.786
11018TIP3   OH232996   5.002   1.401   5.930
11018TIP3    H132997   4.961   1.421   5.846
11018TIP3    H232998   4.947   1.333   5.968
11019TIP3   OH232999   6.412   4.693   4.657
11019TIP3    H133000   6.423   4.690   4.752
11019TIP3    H233001   6.350   4.764   4.642
11020TIP3   OH233002   4.747   4.760   2.600
11020TIP3    H133003   4.811   4.782   2.668
11020TIP3    H233004   4.683   4.831   2.603
11021TIP3   OH233005   0.715   0.995   5.810
11021TIP3    H133006   0.772   1.061   5.850
11021TIP3    H233007   0.634   0.998   5.861
11022TIP3   OH233008   4.054   1.319   2.558
11022TIP3    H133009   4.013   1.391   2.510
11022TIP3    H233010   4.040   1.342   2.650
11023TIP3   OH233011   6.451   2.423   3.944
11023TIP3    H133012   6.435   2.504   3.896
11023TIP3    H233013   6.541   2.430   3.974
11024TIP3   OH233014   3.771   7.753   2.124
11024TIP3    H133015   3.761   7.691   2.197
11024TIP3    H233016   3.851   7.802   2.145
11025TIP3   OH233017   5.149   0.799   2.813
11025TIP3    H133018   5.150   0.843   2.728
11025TIP3    H233019   5.217   0.842   2.864
11026TIP3   OH233020   6.492   1.656   6.137
11026TIP3    H133021   6.464   1.717   6.070
11026TIP3    H233022   6.579   1.626   6.108
11027TIP3   OH233023   4.210   5.689   1.226
11027TIP3    H133024   4.293   5.735   1.243
11027TIP3    H233025   4.154   5.755   1.186
11028TIP3   OH233026   5.591   7.773   2.738
11028TIP3    H133027   5.527   7.767   2.809
11028TIP3    H233028   5.665   7.819   2.777
11029TIP3   OH233029   0.306   3.510   4.568
11029TIP3    H133030   0.357   3.590   4.581
11029TIP3    H233031   0.357   3.442   4.611
11030TIP3   OH233032   2.026   0.314   4.354
11030TIP3    H133033   2.052   0.362   4.433
11030TIP3    H233034   2.021   0.381   4.286
11031TIP3   OH233035   6.740   5.332   6.189
11031TIP3    H133036   6.823   5.302   6.152
11031TIP3    H233037   6.675   5.311   6.122
11032TIP3   OH233038   5.042   3.926   3.515
11032TIP3    H133039   4.952   3.901   3.536
11032TIP3    H233040   5.063   3.993   3.580
11033TIP3   OH233041   2.849   1.316   5.601
11033TIP3    H133042   2.898   1.247   5.557
11033TIP3    H233043   2.900   1.395   5.585
11034TIP3   OH233044   2.277   1.191   1.373
11034TIP3    H133045   2.335   1.215   1.301
11034TIP3    H233046   2.307   1.105   1.401
11035TIP3   OH233047   4.971   4.255   5.208
11035TIP3    H133048   4.958   4.350   5.203
11035TIP3    H233049   5.048   4.239   5.153
11036TIP3   OH233050   7.930   6.652   5.820
11036TIP3    H133051   7.864   6.717   5.795
11036TIP3    H233052   7.887   6.599   5.887
11037TIP3   OH233053   3.372   3.592   5.079
11037TIP3    H133054   3.414   3.609   5.163
11037TIP3    H233055   3.282   3.568   5.101
11038TIP3   OH233056   6.560   4.758   0.511
11038TIP3    H133057   6.559   4.793   0.600
11038TIP3    H233058   6.652   4.736   0.496
11039TIP3   OH233059   3.820   2.579   0.868
11039TIP3    H133060   3.848   2.543   0.952
11039TIP3    H233061   3.885   2.647   0.849
11040TIP3   OH233062   0.540   3.448   5.202
11040TIP3    H133063   0.630   3.479   5.217
11040TIP3    H233064   0.551   3.359   5.169
11041TIP3   OH233065   0.779   1.854   3.475
11041TIP3    H133066   0.772   1.811   3.390
11041TIP3    H233067   0.763   1.785   3.539
11042TIP3   OH233068   1.064   0.428   3.613
11042TIP3    H133069   1.108   0.485   3.676
11042TIP3    H233070   0.985   0.398   3.659
11043TIP3   OH233071   8.212   5.637   4.114
11043TIP3    H133072   8.305   5.629   4.133
11043TIP3    H233073   8.170   5.648   4.200
11044TIP3   OH233074   6.086   3.827   5.428
11044TIP3    H133075   6.010   3.796   5.379
11044TIP3    H233076   6.074   3.922   5.433
11045TIP3   OH233077   6.113   5.809   4.011
11045TIP3    H133078   6.048   5.849   3.953
11045TIP3    H233079   6.066   5.791   4.092
11046TIP3   OH233080   0.336   5.552   1.812
11046TIP3    H133081   0.292   5.470   1.833
11046TIP3    H233082   0.305   5.573   1.723
11047TIP3   OH233083   7.548   5.197   6.307
11047TIP3    H133084   7.533   5.226   6.217
11047TIP3    H233085   7.474   5.140   6.326
11048TIP3   OH233086   4.695   2.200   1.497
11048TIP3    H133087   4.720   2.112   1.467
11048TIP3    H233088   4.762   2.222   1.562
11049TIP3   OH233089   2.226   0.293   5.711
11049TIP3    H133090   2.155   0.345   5.674
11049TIP3    H233091   2.206   0.285   5.804
11050TIP3   OH233092   5.151   4.280   1.029
11050TIP3    H133093   5.142   4.284   1.125
11050TIP3    H233094   5.120   4.364   0.998
11051TIP3   OH233095   2.041   7.003   4.787
11051TIP3    H133096   2.014   7.005   4.695
11051TIP3    H233097   1.974   7.054   4.833
11052TIP3   OH233098   4.213   4.912   5.267
11052TIP3    H133099   4.207   4.996   5.222
11052TIP3    H233100   4.258   4.855   5.205
11053TIP3   OH233101   7.559   4.160   1.288
11053TIP3    H133102   7.640   4.203   1.315
11053TIP3    H233103   7.511   4.228   1.240
11054TIP3   OH233104   3.549   0.361   5.775
11054TIP3    H133105   3.482   0.413   5.732
11054TIP3    H233106   3.619   0.354   5.710
11055TIP3   OH233107   4.327   7.756   5.685
11055TIP3    H133108   4.314   7.779   5.593
11055TIP3    H233109   4.296   7.666   5.692
11056TIP3   OH233110   4.140   5.520   2.054
11056TIP3    H133111   4.062   5.573   2.069
11056TIP3    H233112   4.107   5.431   2.043
11057TIP3   OH233113   7.272   7.505   0.910
11057TIP3    H133114   7.318   7.577   0.866
11057TIP3    H233115   7.194   7.491   0.856
11058TIP3   OH233116   0.146   4.813   4.963
11058TIP3    H133117   0.150   4.788   5.055
11058TIP3    H233118   0.197   4.746   4.917
11059TIP3   OH233119   5.693   0.404   2.822
11059TIP3    H133120   5.784   0.430   2.838
11059TIP3    H233121   5.643   0.483   2.841
11060TIP3   OH233122   7.428   0.452   1.958
11060TIP3    H133123   7.386   0.515   1.900
11060TIP3    H233124   7.508   0.427   1.911
11061TIP3   OH233125   0.783   3.696   4.133
11061TIP3    H133126   0.702   3.685   4.082
11061TIP3    H233127   0.835   3.759   4.082
11062TIP3   OH233128   6.312   6.143   1.277
11062TIP3    H133129   6.361   6.180   1.351
11062TIP3    H233130   6.350   6.057   1.263
11063TIP3   OH233131   3.588   5.406   3.868
11063TIP3    H133132   3.501   5.385   3.902
11063TIP3    H233133   3.648   5.384   3.940
11064TIP3   OH233134   1.513   4.401   3.674
11064TIP3    H133135   1.538   4.400   3.582
11064TIP3    H233136   1.428   4.445   3.676
11065TIP3   OH233137   1.545   7.490   2.877
11065TIP3    H133138   1.640   7.501   2.865
11065TIP3    H233139   1.509   7.499   2.789
11066TIP3   OH233140   6.651   5.166   3.609
11066TIP3    H133141   6.639   5.164   3.704
11066TIP3    H233142   6.740   5.200   3.598
11067TIP3   OH233143   4.474   6.199   5.847
11067TIP3    H133144   4.489   6.238   5.761
11067TIP3    H233145   4.426   6.118   5.829
11068TIP3   OH233146   4.708   1.290   4.096
11068TIP3    H133147   4.683   1.334   4.015
11068TIP3    H233148   4.648   1.324   4.162
11069TIP3   OH233149   2.688   4.109   1.430
11069TIP3    H133150   2.761   4.059   1.467
11069TIP3    H233151   2.624   4.113   1.501
11070TIP3   OH233152   6.616   4.989   3.048
11070TIP3    H133153   6.646   5.007   3.137
11070TIP3    H233154   6.645   4.900   3.029
11071TIP3   OH233155   2.945   6.244   3.508
11071TIP3    H133156   3.026   6.251   3.458
11071TIP3    H233157   2.967   6.192   3.585
11072TIP3   OH233158   5.493   1.539   6.069
11072TIP3    H133159   5.447   1.470   6.022
11072TIP3    H233160   5.451   1.542   6.155
11073TIP3   OH233161   2.936   1.128   2.596
11073TIP3    H133162   2.912   1.082   2.516
11073TIP3    H233163   2.958   1.216   2.568
11074TIP3   OH233164   0.510   1.292   1.857
11074TIP3    H133165   0.490   1.203   1.830
11074TIP3    H233166   0.516   1.288   1.952
11075TIP3   OH233167   6.455   3.891   6.603
11075TIP3    H133168   6.402   3.873   6.525
11075TIP3    H233169   6.433   3.820   6.663
11076TIP3   OH233170   6.009   3.330   3.421
11076TIP3    H133171   5.975   3.280   3.495
11076TIP3    H233172   5.986   3.421   3.439
11077TIP3   OH233173   1.826   1.795   4.984
11077TIP3    H133174   1.747   1.831   4.943
11077TIP3    H233175   1.851   1.861   5.049
11078TIP3   OH233176   6.750   7.579   6.519
11078TIP3    H133177   6.761   7.501   6.574
11078TIP3    H233178   6.695   7.637   6.571
11079TIP3   OH233179   2.853   5.072   0.515
11079TIP3    H133180   2.767   5.109   0.536
11079TIP3    H233181   2.908   5.149   0.498
11080TIP3   OH233182   2.316   2.804   3.300
11080TIP3    H133183   2.340   2.896   3.307
11080TIP3    H233184   2.312   2.787   3.206
11081TIP3   OH233185   1.453   3.452   5.258
11081TIP3    H133186   1.540   3.418   5.277
11081TIP3    H233187   1.410   3.458   5.343
11082TIP3   OH233188   6.237   4.286   5.930
11082TIP3    H133189   6.144   4.302   5.947
11082TIP3    H233190   6.249   4.193   5.949
11083TIP3   OH233191   3.697   1.781   0.480
11083TIP3    H133192   3.698   1.735   0.564
11083TIP3    H233193   3.783   1.762   0.442
11084TIP3   OH233194   3.822   2.543   5.052
11084TIP3    H133195   3.808   2.449   5.057
11084TIP3    H233196   3.735   2.581   5.062
11085TIP3   OH233197   3.079   5.683   5.702
11085TIP3    H133198   3.139   5.631   5.648
11085TIP3    H233199   3.047   5.621   5.767
11086TIP3   OH233200   4.251   3.641   3.330
11086TIP3    H133201   4.284   3.570   3.275
11086TIP3    H233202   4.161   3.654   3.301
11087TIP3   OH233203   2.216   1.930   2.638
11087TIP3    H133204   2.172   1.977   2.709
11087TIP3    H233205   2.270   1.997   2.595
11088TIP3   OH233206   7.225   4.925   3.439
11088TIP3    H133207   7.166   4.993   3.404
11088TIP3    H233208   7.241   4.867   3.364
11089TIP3   OH233209   1.281   3.284   4.120
11089TIP3    H133210   1.350   3.273   4.185
11089TIP3    H233211   1.241   3.197   4.113
11090TIP3   OH233212   1.173   7.690   0.057
11090TIP3    H133213   1.254   7.644   0.034
11090TIP3    H233214   1.106   7.621   0.059
11091TIP3   OH233215   0.772   5.374   0.863
11091TIP3    H133216   0.847   5.338   0.815
11091TIP3    H233217   0.703   5.382   0.797
11092TIP3   OH233218   2.166   2.565   6.620
11092TIP3    H133219   2.214   2.643   6.647
11092TIP3    H233220   2.232   2.497   6.615
11093TIP3   OH233221   5.334   5.819   3.665
11093TIP3    H133222   5.378   5.855   3.588
11093TIP3    H233223   5.289   5.741   3.633
11094TIP3   OH233224   7.602   4.459   0.080
11094TIP3    H133225   7.513   4.465   0.047
11094TIP3    H233226   7.596   4.489   0.171
11095TIP3   OH233227   1.205   5.224   0.207
11095TIP3    H133228   1.259   5.166   0.153
11095TIP3    H233229   1.166   5.166   0.273
11096TIP3   OH233230   3.729   2.134   0.161
11096TIP3    H133231   3.796   2.177   0.108
11096TIP3    H233232   3.752   2.157   0.251
11097TIP3   OH233233   6.849   1.752   3.342
11097TIP3    H133234   6.806   1.679   3.298
11097TIP3    H233235   6.785   1.781   3.407
11098TIP3   OH233236   0.480   5.355   2.649
11098TIP3    H133237   0.549   5.405   2.608
11098TIP3    H233238   0.434   5.313   2.577
11099TIP3   OH233239   7.526   4.580   3.711
11099TIP3    H133240   7.488   4.666   3.729
11099TIP3    H233241   7.611   4.582   3.754
11100TIP3   OH233242   4.322   4.145   3.015
11100TIP3    H133243   4.413   4.166   3.038
11100TIP3    H233244   4.317   4.163   2.921
11101TIP3   OH233245   2.951   1.162   3.610
11101TIP3    H133246   2.925   1.221   3.680
11101TIP3    H233247   2.949   1.215   3.530
11102TIP3   OH233248   5.217   3.590   1.576
11102TIP3    H133249   5.129   3.581   1.612
11102TIP3    H233250   5.205   3.583   1.482
11103TIP3   OH233251   7.319   5.076   6.437
11103TIP3    H133252   7.321   5.166   6.404
11103TIP3    H233253   7.227   5.049   6.428
11104TIP3   OH233254   4.865   0.515   0.594
11104TIP3    H133255   4.907   0.455   0.656
11104TIP3    H233256   4.935   0.575   0.568
11105TIP3   OH233257   4.708   3.062   2.390
11105TIP3    H133258   4.692   3.144   2.343
11105TIP3    H233259   4.730   2.999   2.322
11106TIP3   OH233260   2.271   0.933   3.716
11106TIP3    H133261   2.199   0.911   3.774
11106TIP3    H233262   2.242   0.903   3.629
11107TIP3   OH233263   0.990   1.167   5.343
11107TIP3    H133264   1.025   1.217   5.269
11107TIP3    H233265   1.019   1.078   5.328
11108TIP3   OH233266   7.867   7.003   1.495
11108TIP3    H133267   7.870   6.995   1.400
11108TIP3    H233268   7.946   7.052   1.518
11109TIP3   OH233269   3.571   4.490   2.346
11109TIP3    H133270   3.596   4.571   2.302
11109TIP3    H233271   3.530   4.518   2.427
11110TIP3   OH233272   3.436   4.792   4.694
11110TIP3    H133273   3.438   4.881   4.659
11110TIP3    H233274   3.520   4.781   4.738
11111TIP3   OH233275   8.007   7.490   0.377
11111TIP3    H133276   8.074   7.530   0.432
11111TIP3    H233277   8.035   7.399   0.368
11112TIP3   OH233278   2.229   5.177   2.331
11112TIP3    H133279   2.259   5.210   2.246
11112TIP3    H233280   2.271   5.092   2.341
11113TIP3   OH233281   3.263   7.864   3.007
11113TIP3    H133282   3.237   7.842   3.096
11113TIP3    H233283   3.191   7.835   2.952
11114TIP3   OH233284   5.098   2.179   2.664
11114TIP3    H133285   5.026   2.190   2.727
11114TIP3    H233286   5.054   2.166   2.580
11115TIP3   OH233287   7.755   5.348   5.364
11115TIP3    H133288   7.756   5.275   5.426
11115TIP3    H233289   7.783   5.309   5.281
11116TIP3   OH233290   5.002   1.818   4.391
11116TIP3    H133291   4.914   1.801   4.427
11116TIP3    H233292   5.057   1.751   4.431
11117TIP3   OH233293   7.481   0.128   6.732
11117TIP3    H133294   7.478   0.210   6.682
11117TIP3    H233295   7.466   0.060   6.667
11118TIP3   OH233296   3.749   2.931   1.329
11118TIP3    H133297   3.827   2.965   1.373
11118TIP3    H233298   3.678   2.988   1.357
11119TIP3   OH233299   8.014   5.638   4.593
11119TIP3    H133300   8.026   5.641   4.688
11119TIP3    H233301   8.014   5.545   4.571
11120TIP3   OH233302   4.899   7.208   3.206
11120TIP3    H133303   4.922   7.123   3.244
11120TIP3    H233304   4.982   7.255   3.202
11121TIP3   OH233305   7.460   5.988   2.478
11121TIP3    H133306   7.437   6.063   2.534
11121TIP3    H233307   7.504   5.927   2.537
11122TIP3   OH233308   8.271   7.309   3.279
11122TIP3    H133309   8.257   7.368   3.354
11122TIP3    H233310   8.230   7.227   3.305
11123TIP3   OH233311   4.460   1.604   3.262
11123TIP3    H133312   4.485   1.521   3.303
11123TIP3    H233313   4.381   1.631   3.309
11124TIP3   OH233314   5.434   2.539   1.349
11124TIP3    H133315   5.520   2.520   1.387
11124TIP3    H233316   5.453   2.586   1.268
11125TIP3   OH233317   5.027   2.928   0.405
11125TIP3    H133318   5.000   3.019   0.414
11125TIP3    H233319   5.011   2.907   0.313
11126TIP3   OH233320   5.638   4.366   5.487
11126TIP3    H133321   5.634   4.458   5.513
11126TIP3    H233322   5.554   4.350   5.444
11127TIP3   OH233323   2.075   0.216   2.463
11127TIP3    H133324   2.002   0.271   2.490
11127TIP3    H233325   2.058   0.199   2.370
11128TIP3   OH233326   1.185   4.756   6.171
11128TIP3    H133327   1.180   4.781   6.079
11128TIP3    H233328   1.279   4.759   6.192
11129TIP3   OH233329   5.638   0.527   3.117
11129TIP3    H133330   5.640   0.442   3.162
11129TIP3    H233331   5.661   0.591   3.184
11130TIP3   OH233332   2.526   1.431   1.988
11130TIP3    H133333   2.522   1.345   1.947
11130TIP3    H233334   2.548   1.414   2.079
11131TIP3   OH233335   1.201   4.643   4.776
11131TIP3    H133336   1.274   4.650   4.714
11131TIP3    H233337   1.139   4.583   4.734
11132TIP3   OH233338   1.109   1.081   3.311
11132TIP3    H133339   1.101   1.064   3.217
11132TIP3    H233340   1.190   1.132   3.319
11133TIP3   OH233341   4.963   6.927   2.009
11133TIP3    H133342   4.924   6.872   2.077
11133TIP3    H233343   4.940   7.016   2.034
11134TIP3   OH233344   7.273   6.237   6.643
11134TIP3    H133345   7.216   6.265   6.715
11134TIP3    H233346   7.293   6.318   6.596
11135TIP3   OH233347   4.312   5.398   3.406
11135TIP3    H133348   4.273   5.335   3.345
11135TIP3    H233349   4.401   5.411   3.375
11136TIP3   OH233350   3.644   4.751   2.177
11136TIP3    H133351   3.580   4.725   2.111
11136TIP3    H233352   3.673   4.838   2.150
11137TIP3   OH233353   1.424   3.684   3.233
11137TIP3    H133354   1.348   3.698   3.177
11137TIP3    H233355   1.461   3.601   3.203
11138TIP3   OH233356   5.211   3.680   3.140
11138TIP3    H133357   5.229   3.680   3.234
11138TIP3    H233358   5.124   3.719   3.132
11139TIP3   OH233359   6.770   6.709   0.935
11139TIP3    H133360   6.722   6.632   0.906
11139TIP3    H233361   6.826   6.677   1.006
11140TIP3   OH233362   8.061   1.200   1.969
11140TIP3    H133363   8.000   1.141   2.013
11140TIP3    H233364   8.059   1.280   2.021
11141TIP3   OH233365   1.715   4.897   4.104
11141TIP3    H133366   1.620   4.892   4.114
11141TIP3    H233367   1.736   4.989   4.120
11142TIP3   OH233368   3.900   4.959   6.713
11142TIP3    H133369   3.937   5.010   6.785
11142TIP3    H233370   3.967   4.892   6.694
11143TIP3   OH233371   8.177   3.167   0.270
11143TIP3    H133372   8.171   3.099   0.204
11143TIP3    H233373   8.089   3.173   0.307
11144TIP3   OH233374   6.895   5.345   2.446
11144TIP3    H133375   6.818   5.401   2.448
11144TIP3    H233376   6.969   5.405   2.461
11145TIP3   OH233377   4.812   2.703   3.358
11145TIP3    H133378   4.815   2.769   3.428
11145TIP3    H233379   4.793   2.621   3.403
11146TIP3   OH233380   2.846   4.786   0.561
11146TIP3    H133381   2.750   4.785   0.551
11146TIP3    H233382   2.869   4.878   0.563
11147TIP3   OH233383   4.665   5.142   4.520
11147TIP3    H133384   4.622   5.227   4.530
11147TIP3    H233385   4.755   5.163   4.496
11148TIP3   OH233386   1.334   3.296   0.355
11148TIP3    H133387   1.284   3.377   0.350
11148TIP3    H233388   1.356   3.276   0.264
11149TIP3   OH233389   0.415   2.658   5.294
11149TIP3    H133390   0.424   2.609   5.212
11149TIP3    H233391   0.324   2.689   5.293
11150TIP3   OH233392   6.260   1.996   0.147
11150TIP3    H133393   6.219   1.910   0.138
11150TIP3    H233394   6.189   2.058   0.130
11151TIP3   OH233395   6.762   7.488   0.645
11151TIP3    H133396   6.771   7.412   0.703
11151TIP3    H233397   6.679   7.475   0.601
11152TIP3   OH233398   7.936   2.627   5.864
11152TIP3    H133399   7.873   2.620   5.936
11152TIP3    H233400   7.883   2.643   5.787
11153TIP3   OH233401   0.820   1.063   2.524
11153TIP3    H133402   0.769   1.137   2.489
11153TIP3    H233403   0.826   1.002   2.451
11154TIP3   OH233404   7.602   5.762   5.035
11154TIP3    H133405   7.580   5.852   5.059
11154TIP3    H233406   7.695   5.754   5.057
11155TIP3   OH233407   6.953   1.548   3.636
11155TIP3    H133408   6.894   1.623   3.621
11155TIP3    H233409   6.918   1.478   3.582
11156TIP3   OH233410   5.718   7.675   4.903
11156TIP3    H133411   5.768   7.626   4.838
11156TIP3    H233412   5.745   7.766   4.890
11157TIP3   OH233413   2.920   0.141   1.405
11157TIP3    H133414   2.943   0.056   1.443
11157TIP3    H233415   2.912   0.199   1.481
11158TIP3   OH233416   6.366   0.566   5.963
11158TIP3    H133417   6.348   0.649   5.920
11158TIP3    H233418   6.314   0.502   5.913
11159TIP3   OH233419   3.745   6.462   4.289
11159TIP3    H133420   3.777   6.538   4.337
11159TIP3    H233421   3.714   6.497   4.206
11160TIP3   OH233422   0.226   2.541   1.076
11160TIP3    H133423   0.269   2.523   1.160
11160TIP3    H233424   0.235   2.636   1.064
11161TIP3   OH233425   3.748   7.715   0.262
11161TIP3    H133426   3.744   7.713   0.358
11161TIP3    H233427   3.657   7.724   0.234
11162TIP3   OH233428   6.580   4.895   1.740
11162TIP3    H133429   6.612   4.939   1.819
11162TIP3    H233430   6.577   4.964   1.674
11163TIP3   OH233431   5.339   0.077   2.645
11163TIP3    H133432   5.397   0.150   2.667
11163TIP3    H233433   5.334   0.078   2.549
11164TIP3   OH233434   1.973   6.806   2.564
11164TIP3    H133435   1.886   6.804   2.605
11164TIP3    H233436   1.957   6.777   2.474
11165TIP3   OH233437   0.060   2.631   6.609
11165TIP3    H133438  -0.028   2.667   6.607
11165TIP3    H233439   0.117   2.708   6.615
11166TIP3   OH233440   1.128   7.537   5.697
11166TIP3    H133441   1.146   7.560   5.788
11166TIP3    H233442   1.044   7.491   5.700
11167TIP3   OH233443   3.571   3.781   1.895
11167TIP3    H133444   3.611   3.761   1.979
11167TIP3    H233445   3.560   3.696   1.852
11168TIP3   OH233446   2.130   4.118   0.864
11168TIP3    H133447   2.143   4.161   0.779
11168TIP3    H233448   2.204   4.148   0.917
11169TIP3   OH233449   5.370   1.004   6.486
11169TIP3    H133450   5.398   0.985   6.575
11169TIP3    H233451   5.382   0.921   6.439
11170TIP3   OH233452   8.240   6.290   3.008
11170TIP3    H133453   8.265   6.239   2.932
11170TIP3    H233454   8.314   6.348   3.025
11171TIP3   OH233455   5.619   2.790   0.510
11171TIP3    H133456   5.601   2.706   0.468
11171TIP3    H233457   5.566   2.853   0.462
11172TIP3   OH233458   7.283   4.480   2.741
11172TIP3    H133459   7.233   4.545   2.692
11172TIP3    H233460   7.318   4.528   2.816
11173TIP3   OH233461   2.451   5.011   3.657
11173TIP3    H133462   2.498   5.027   3.576
11173TIP3    H233463   2.476   5.083   3.715
11174TIP3   OH233464   4.238   6.052   4.845
11174TIP3    H133465   4.329   6.021   4.842
11174TIP3    H233466   4.246   6.148   4.849
11175TIP3   OH233467   3.108   4.778   6.651
11175TIP3    H133468   3.134   4.865   6.679
11175TIP3    H233469   3.033   4.793   6.593
11176TIP3   OH233470   6.019   3.128   5.778
11176TIP3    H133471   6.051   3.043   5.809
11176TIP3    H233472   6.057   3.136   5.690
11177TIP3   OH233473   2.686   4.033   1.914
11177TIP3    H133474   2.707   4.004   2.003
11177TIP3    H233475   2.768   4.021   1.865
11178TIP3   OH233476   6.210   6.100   3.793
11178TIP3    H133477   6.288   6.137   3.835
11178TIP3    H233478   6.228   6.107   3.699
11179TIP3   OH233479   7.089   5.861   3.706
11179TIP3    H133480   7.110   5.786   3.650
11179TIP3    H233481   7.141   5.846   3.786
11180TIP3   OH233482   7.976   3.156   2.741
11180TIP3    H133483   7.915   3.230   2.740
11180TIP3    H233484   7.991   3.139   2.834
11181TIP3   OH233485   1.507   1.036   4.574
11181TIP3    H133486   1.549   1.014   4.657
11181TIP3    H233487   1.472   0.953   4.543
11182TIP3   OH233488   5.438   5.342   6.383
11182TIP3    H133489   5.372   5.409   6.403
11182TIP3    H233490   5.507   5.356   6.448
11183TIP3   OH233491   2.518   2.329   6.040
11183TIP3    H133492   2.422   2.334   6.045
11183TIP3    H233493   2.536   2.237   6.024
11184TIP3   OH233494   0.113   4.571   6.766
11184TIP3    H133495   0.061   4.597   6.690
11184TIP3    H233496   0.077   4.622   6.839
11185TIP3   OH233497   6.501   0.737   0.740
11185TIP3    H133498   6.548   0.655   0.725
11185TIP3    H233499   6.418   0.726   0.693
11186TIP3   OH233500   3.842   5.494   4.450
11186TIP3    H133501   3.853   5.400   4.437
11186TIP3    H233502   3.928   5.531   4.430
11187TIP3   OH233503   1.660   2.701   2.576
11187TIP3    H133504   1.637   2.608   2.576
11187TIP3    H233505   1.725   2.709   2.506
11188TIP3   OH233506   3.456   3.842   5.029
11188TIP3    H133507   3.531   3.861   4.972
11188TIP3    H233508   3.434   3.751   5.009
11189TIP3   OH233509   2.722   3.568   0.508
11189TIP3    H133510   2.753   3.493   0.559
11189TIP3    H233511   2.661   3.531   0.445
11190TIP3   OH233512   7.817   2.280   6.440
11190TIP3    H133513   7.740   2.229   6.416
11190TIP3    H233514   7.787   2.371   6.440
11191TIP3   OH233515   5.432   4.957   1.241
11191TIP3    H133516   5.445   5.050   1.227
11191TIP3    H233517   5.340   4.949   1.266
11192TIP3   OH233518   0.840   3.127   5.439
11192TIP3    H133519   0.761   3.129   5.384
11192TIP3    H233520   0.850   3.035   5.461
11193TIP3   OH233521   3.212   7.056   2.780
11193TIP3    H133522   3.283   7.046   2.717
11193TIP3    H233523   3.255   7.076   2.863
11194TIP3   OH233524   7.207   3.096   2.669
11194TIP3    H133525   7.215   3.131   2.758
11194TIP3    H233526   7.272   3.145   2.618
11195TIP3   OH233527   1.087   7.444   1.400
11195TIP3    H133528   1.010   7.389   1.417
11195TIP3    H233529   1.108   7.427   1.308
11196TIP3   OH233530   0.603   4.108   4.768
11196TIP3    H133531   0.604   4.139   4.859
11196TIP3    H233532   0.602   4.012   4.775
11197TIP3   OH233533   7.123   2.836   3.551
11197TIP3    H133534   7.194   2.797   3.499
11197TIP3    H233535   7.152   2.925   3.568
11198TIP3   OH233536   6.045   4.532   1.097
11198TIP3    H133537   6.126   4.583   1.098
11198TIP3    H233538   6.008   4.542   1.185
11199TIP3   OH233539   0.063   0.258   5.341
11199TIP3    H133540   0.005   0.184   5.358
11199TIP3    H233541   0.123   0.259   5.416
11200TIP3   OH233542   7.088   1.609   1.845
11200TIP3    H133543   7.078   1.551   1.770
11200TIP3    H233544   7.065   1.555   1.921
11201TIP3   OH233545   6.268   0.933   0.901
11201TIP3    H133546   6.253   0.976   0.817
11201TIP3    H233547   6.360   0.908   0.899
11202TIP3   OH233548   4.259   7.490   5.630
11202TIP3    H133549   4.325   7.509   5.564
11202TIP3    H233550   4.203   7.423   5.589
11203TIP3   OH233551   3.963   3.811   1.724
11203TIP3    H133552   3.965   3.717   1.742
11203TIP3    H233553   4.046   3.828   1.679
11204TIP3   OH233554   3.659   0.274   4.585
11204TIP3    H133555   3.626   0.330   4.515
11204TIP3    H233556   3.732   0.323   4.623
11205TIP3   OH233557   7.378   5.592   5.537
11205TIP3    H133558   7.454   5.564   5.588
11205TIP3    H233559   7.323   5.513   5.530
11206TIP3   OH233560   2.070   0.023   4.114
11206TIP3    H133561   2.139   0.075   4.075
11206TIP3    H233562   2.096   0.011   4.205
11207TIP3   OH233563   1.841   5.170   5.611
11207TIP3    H133564   1.813   5.258   5.586
11207TIP3    H233565   1.832   5.118   5.531
11208TIP3   OH233566   6.661   3.442   1.394
11208TIP3    H133567   6.648   3.536   1.391
11208TIP3    H233568   6.677   3.416   1.303
11209TIP3   OH233569   2.857   3.569   2.469
11209TIP3    H133570   2.803   3.490   2.461
11209TIP3    H233571   2.943   3.536   2.496
11210TIP3   OH233572   2.695   2.190   1.739
11210TIP3    H133573   2.700   2.239   1.822
11210TIP3    H233574   2.610   2.146   1.743
11211TIP3   OH233575   1.017   3.231   2.073
11211TIP3    H133576   1.050   3.317   2.102
11211TIP3    H233577   1.088   3.194   2.022
11212TIP3   OH233578   2.876   2.660   5.216
11212TIP3    H133579   2.916   2.574   5.209
11212TIP3    H233580   2.906   2.694   5.300
11213TIP3   OH233581   2.621   6.907   3.934
11213TIP3    H133582   2.535   6.944   3.917
11213TIP3    H233583   2.662   6.968   3.995
11214TIP3   OH233584   6.600   5.280   5.552
11214TIP3    H133585   6.624   5.238   5.634
11214TIP3    H233586   6.570   5.209   5.496
11215TIP3   OH233587   5.708   7.055   1.717
11215TIP3    H133588   5.791   7.049   1.765
11215TIP3    H233589   5.668   6.969   1.728
11216TIP3   OH233590   2.357   6.972   1.539
11216TIP3    H133591   2.428   7.029   1.569
11216TIP3    H233592   2.293   6.973   1.611
11217TIP3   OH233593   4.972   5.842   2.406
11217TIP3    H133594   4.973   5.885   2.492
11217TIP3    H233595   5.057   5.864   2.368
11218TIP3   OH233596   1.366   2.614   2.415
11218TIP3    H133597   1.416   2.589   2.337
11218TIP3    H233598   1.414   2.575   2.488
11219TIP3   OH233599   3.352   7.192   4.876
11219TIP3    H133600   3.334   7.249   4.951
11219TIP3    H233601   3.329   7.244   4.800
11220TIP3   OH233602   4.666   4.014   5.078
11220TIP3    H133603   4.646   4.108   5.081
11220TIP3    H233604   4.585   3.973   5.050
11221TIP3   OH233605   4.117   4.219   6.567
11221TIP3    H133606   4.064   4.205   6.645
11221TIP3    H233607   4.153   4.307   6.578
11222TIP3   OH233608   2.130   2.575   5.025
11222TIP3    H133609   2.063   2.510   5.049
11222TIP3    H233610   2.208   2.548   5.074
11223TIP3   OH233611   0.382   1.201   6.256
11223TIP3    H133612   0.413   1.111   6.246
11223TIP3    H233613   0.288   1.195   6.238
11224TIP3   OH233614   1.741   5.881   1.912
11224TIP3    H133615   1.712   5.951   1.853
11224TIP3    H233616   1.680   5.809   1.894
11225TIP3   OH233617   7.653   6.741   1.368
11225TIP3    H133618   7.685   6.817   1.319
11225TIP3    H233619   7.655   6.769   1.459
11226TIP3   OH233620   1.192   7.027   2.963
11226TIP3    H133621   1.145   6.945   2.980
11226TIP3    H233622   1.227   7.053   3.049
11227TIP3   OH233623   2.896   5.525   3.865
11227TIP3    H133624   2.829   5.546   3.801
11227TIP3    H233625   2.869   5.441   3.902
11228TIP3   OH233626   5.765   7.664   6.109
11228TIP3    H133627   5.856   7.686   6.090
11228TIP3    H233628   5.725   7.650   6.023
11229TIP3   OH233629   2.722   7.717   5.472
11229TIP3    H133630   2.764   7.799   5.448
11229TIP3    H233631   2.680   7.688   5.391
11230TIP3   OH233632   6.652   5.489   2.772
11230TIP3    H133633   6.700   5.489   2.855
11230TIP3    H233634   6.578   5.429   2.788
11231TIP3   OH233635   6.909   6.642   1.471
11231TIP3    H133636   6.855   6.563   1.469
11231TIP3    H233637   6.930   6.655   1.563
11232TIP3   OH233638   6.595   3.150   1.422
11232TIP3    H133639   6.501   3.137   1.417
11232TIP3    H233640   6.605   3.245   1.428
11233TIP3   OH233641   0.847   1.138   4.847
11233TIP3    H133642   0.893   1.222   4.849
11233TIP3    H233643   0.794   1.136   4.926
11234TIP3   OH233644   7.887   6.955   0.591
11234TIP3    H133645   7.798   6.939   0.624
11234TIP3    H233646   7.933   6.872   0.605
11235TIP3   OH233647   2.197   6.639   3.976
11235TIP3    H133648   2.176   6.731   3.995
11235TIP3    H233649   2.113   6.600   3.953
11236TIP3   OH233650   2.951   3.589   3.424
11236TIP3    H133651   2.958   3.595   3.519
11236TIP3    H233652   2.930   3.678   3.396
11237TIP3   OH233653   3.935   7.456   6.030
11237TIP3    H133654   3.841   7.442   6.025
11237TIP3    H233655   3.971   7.374   6.064
11238TIP3   OH233656   7.317   1.771   2.403
11238TIP3    H133657   7.384   1.723   2.452
11238TIP3    H233658   7.323   1.861   2.438
11239TIP3   OH233659   3.141   4.883   2.872
11239TIP3    H133660   3.146   4.787   2.869
11239TIP3    H233661   3.128   4.909   2.781
11240TIP3   OH233662   6.022   3.705   2.141
11240TIP3    H133663   6.104   3.660   2.118
11240TIP3    H233664   6.042   3.751   2.223
11241TIP3   OH233665   4.614   2.713   1.715
11241TIP3    H133666   4.631   2.793   1.665
11241TIP3    H233667   4.586   2.649   1.650
11242TIP3   OH233668   1.725   2.101   0.186
11242TIP3    H133669   1.717   2.131   0.276
11242TIP3    H233670   1.787   2.162   0.146
11243TIP3   OH233671   0.770   4.201   5.992
11243TIP3    H133672   0.862   4.201   6.017
11243TIP3    H233673   0.759   4.280   5.939
11244TIP3   OH233674   1.960   0.293   0.699
11244TIP3    H133675   1.879   0.241   0.695
11244TIP3    H233676   2.025   0.238   0.655
11245TIP3   OH233677   4.703   5.794   4.740
11245TIP3    H133678   4.759   5.720   4.717
11245TIP3    H233679   4.758   5.849   4.797
11246TIP3   OH233680   5.708   4.530   3.238
11246TIP3    H133681   5.683   4.501   3.150
11246TIP3    H233682   5.803   4.520   3.240
11247TIP3   OH233683   5.329   0.035   1.472
11247TIP3    H133684   5.388  -0.037   1.494
11247TIP3    H233685   5.378   0.114   1.495
11248TIP3   OH233686   1.915   4.613   5.191
11248TIP3    H133687   1.956   4.697   5.169
11248TIP3    H233688   1.966   4.579   5.264
11249TIP3   OH233689   3.612   3.565   4.947
11249TIP3    H133690   3.669   3.534   5.017
11249TIP3    H233691   3.525   3.567   4.986
11250TIP3   OH233692   3.936   6.595   3.941
11250TIP3    H133693   3.873   6.648   3.990
11250TIP3    H233694   3.883   6.549   3.876
11251TIP3   OH233695   5.611   7.319   6.098
11251TIP3    H133696   5.546   7.312   6.168
11251TIP3    H233697   5.692   7.343   6.142
11252TIP3   OH233698   7.057   7.348   5.128
11252TIP3    H133699   7.024   7.275   5.075
11252TIP3    H233700   6.979   7.383   5.171
11253TIP3   OH233701   4.369   3.261   0.722
11253TIP3    H133702   4.403   3.261   0.812
11253TIP3    H233703   4.289   3.313   0.727
11254TIP3   OH233704   1.845   2.272   1.513
11254TIP3    H133705   1.836   2.357   1.471
11254TIP3    H233706   1.920   2.231   1.469
11255TIP3   OH233707   6.664   5.513   5.329
11255TIP3    H133708   6.619   5.433   5.356
11255TIP3    H233709   6.617   5.542   5.251
11256TIP3   OH233710   3.261   3.657   1.824
11256TIP3    H133711   3.236   3.727   1.764
11256TIP3    H233712   3.344   3.624   1.791
11257TIP3   OH233713   7.670   6.830   0.303
11257TIP3    H133714   7.706   6.830   0.215
11257TIP3    H233715   7.723   6.767   0.352
11258TIP3   OH233716   2.728   5.307   4.497
11258TIP3    H133717   2.662   5.281   4.434
11258TIP3    H233718   2.685   5.300   4.583
11259TIP3   OH233719   6.592   2.886   4.164
11259TIP3    H133720   6.686   2.872   4.154
11259TIP3    H233721   6.572   2.850   4.251
11260TIP3   OH233722   0.607   2.944   5.680
11260TIP3    H133723   0.675   2.949   5.746
11260TIP3    H233724   0.633   2.872   5.622
11261TIP3   OH233725   6.915   6.828   4.880
11261TIP3    H133726   6.887   6.794   4.795
11261TIP3    H233727   7.003   6.793   4.893
11262TIP3   OH233728   1.358   3.696   6.323
11262TIP3    H133729   1.392   3.610   6.298
11262TIP3    H233730   1.415   3.758   6.278
11263TIP3   OH233731   4.929   3.851   1.287
11263TIP3    H133732   4.902   3.831   1.197
11263TIP3    H233733   4.987   3.926   1.278
11264TIP3   OH233734   4.643   3.388   4.650
11264TIP3    H133735   4.682   3.415   4.733
11264TIP3    H233736   4.608   3.300   4.667
11265TIP3   OH233737   7.474   6.710   1.655
11265TIP3    H133738   7.568   6.728   1.657
11265TIP3    H233739   7.465   6.641   1.588
11266TIP3   OH233740   5.954   1.183   4.542
11266TIP3    H133741   5.912   1.222   4.618
11266TIP3    H233742   6.036   1.232   4.532
11267TIP3   OH233743   7.736   5.675   4.517
11267TIP3    H133744   7.819   5.666   4.564
11267TIP3    H233745   7.669   5.677   4.586
11268TIP3   OH233746   5.748   0.452   4.600
11268TIP3    H133747   5.795   0.526   4.561
11268TIP3    H233748   5.787   0.375   4.559
11269TIP3   OH233749   0.425   7.219   4.173
11269TIP3    H133750   0.456   7.129   4.179
11269TIP3    H233751   0.437   7.256   4.260
11270TIP3   OH233752   8.124   5.565   1.505
11270TIP3    H133753   8.055   5.628   1.482
11270TIP3    H233754   8.190   5.577   1.436
11271TIP3   OH233755   4.170   7.736   3.940
11271TIP3    H133756   4.178   7.673   4.012
11271TIP3    H233757   4.236   7.709   3.877
11272TIP3   OH233758   4.754   2.791   2.626
11272TIP3    H133759   4.844   2.823   2.625
11272TIP3    H233760   4.747   2.735   2.549
11273TIP3   OH233761   8.137   0.063   1.425
11273TIP3    H133762   8.112  -0.018   1.381
11273TIP3    H233763   8.083   0.131   1.385
11274TIP3   OH233764   3.769   2.485   1.362
11274TIP3    H133765   3.696   2.538   1.393
11274TIP3    H233766   3.846   2.525   1.402
11275TIP3   OH233767   5.178   5.730   6.259
11275TIP3    H133768   5.097   5.750   6.305
11275TIP3    H233769   5.188   5.803   6.197
11276TIP3   OH233770   3.510   7.606   1.530
11276TIP3    H133771   3.570   7.550   1.481
11276TIP3    H233772   3.457   7.649   1.463
11277TIP3   OH233773   1.204   1.246   0.605
11277TIP3    H133774   1.266   1.319   0.603
11277TIP3    H233775   1.177   1.239   0.696
11278TIP3   OH233776   7.640   3.299   1.234
11278TIP3    H133777   7.596   3.267   1.312
11278TIP3    H233778   7.687   3.223   1.200
11279TIP3   OH233779   4.291   5.113   2.390
11279TIP3    H133780   4.230   5.113   2.464
11279TIP3    H233781   4.253   5.050   2.328
11280TIP3   OH233782   2.978   3.608   3.023
11280TIP3    H133783   2.991   3.514   3.035
11280TIP3    H233784   2.908   3.631   3.085
11281TIP3   OH233785   0.672   1.674   0.999
11281TIP3    H133786   0.679   1.611   0.927
11281TIP3    H233787   0.585   1.712   0.989
11282TIP3   OH233788   0.382   7.125   5.522
11282TIP3    H133789   0.461   7.157   5.478
11282TIP3    H233790   0.314   7.189   5.499
11283TIP3   OH233791   1.850   6.630   0.243
11283TIP3    H133792   1.859   6.682   0.323
11283TIP3    H233793   1.889   6.545   0.265
11284TIP3   OH233794   5.701   0.498   5.360
11284TIP3    H133795   5.751   0.435   5.308
11284TIP3    H233796   5.742   0.582   5.342
11285TIP3   OH233797   1.166   7.357   1.131
11285TIP3    H133798   1.226   7.299   1.083
11285TIP3    H233799   1.086   7.357   1.079
11286TIP3   OH233800   3.052   6.425   1.217
11286TIP3    H133801   3.111   6.431   1.293
11286TIP3    H233802   2.988   6.358   1.242
11287TIP3   OH233803   6.876   2.301   4.242
11287TIP3    H133804   6.943   2.277   4.178
11287TIP3    H233805   6.920   2.291   4.326
11288TIP3   OH233806   6.621   6.045   4.364
11288TIP3    H133807   6.569   6.034   4.443
11288TIP3    H233808   6.571   6.108   4.312
11289TIP3   OH233809   1.165   5.079   5.992
11289TIP3    H133810   1.097   5.146   6.000
11289TIP3    H233811   1.216   5.086   6.073
11290TIP3   OH233812   4.277   7.148   1.303
11290TIP3    H133813   4.347   7.205   1.271
11290TIP3    H233814   4.208   7.154   1.237
11291TIP3   OH233815   0.106   3.425   5.984
11291TIP3    H133816   0.140   3.418   6.074
11291TIP3    H233817   0.168   3.373   5.932
11292TIP3   OH233818   1.263   2.403   3.360
11292TIP3    H133819   1.251   2.496   3.377
11292TIP3    H233820   1.316   2.371   3.434
11293TIP3   OH233821   8.043   5.218   6.514
11293TIP3    H133822   8.076   5.220   6.604
11293TIP3    H233823   8.064   5.304   6.479
11294TIP3   OH233824   3.971   7.601   0.725
11294TIP3    H133825   4.065   7.609   0.705
11294TIP3    H233826   3.952   7.508   0.714
11295TIP3   OH233827   6.039   6.835   1.492
11295TIP3    H133828   6.096   6.796   1.558
11295TIP3    H233829   5.984   6.764   1.462
11296TIP3   OH233830   6.071   1.411   4.816
11296TIP3    H133831   6.068   1.483   4.753
11296TIP3    H233832   6.164   1.396   4.831
11297TIP3   OH233833   2.507   6.114   3.371
11297TIP3    H133834   2.498   6.167   3.450
11297TIP3    H233835   2.574   6.160   3.319
11298TIP3   OH233836   5.273   3.714   0.242
11298TIP3    H133837   5.352   3.673   0.206
11298TIP3    H233838   5.291   3.721   0.336
11299TIP3   OH233839   4.257   7.851   6.111
11299TIP3    H133840   4.277   7.759   6.128
11299TIP3    H233841   4.187   7.872   6.172
11300TIP3   OH233842   6.557   7.759   6.618
11300TIP3    H133843   6.562   7.852   6.640
11300TIP3    H233844   6.507   7.721   6.690
11301TIP3   OH233845   3.272   0.271   4.261
11301TIP3    H133846   3.342   0.334   4.276
11301TIP3    H233847   3.282   0.206   4.331
11302TIP3   OH233848   6.489   3.619   6.739
11302TIP3    H133849   6.551   3.552   6.768
11302TIP3    H233850   6.405   3.572   6.732
11303TIP3   OH233851   4.862   0.900   0.908
11303TIP3    H133852   4.932   0.926   0.967
11303TIP3    H233853   4.875   0.806   0.896
11304TIP3   OH233854   1.979   3.358   4.132
11304TIP3    H133855   1.917   3.358   4.206
11304TIP3    H233856   1.995   3.266   4.115
11305TIP3   OH233857   3.704   2.609   1.948
11305TIP3    H133858   3.790   2.651   1.938
11305TIP3    H233859   3.660   2.661   2.016
11306TIP3   OH233860   2.648   0.998   1.282
11306TIP3    H133861   2.563   1.010   1.239
11306TIP3    H233862   2.674   0.908   1.259
11307TIP3   OH233863   3.894   5.669   3.095
11307TIP3    H133864   3.933   5.654   3.008
11307TIP3    H233865   3.922   5.594   3.147
11308TIP3   OH233866   3.722   0.517   2.456
11308TIP3    H133867   3.690   0.559   2.536
11308TIP3    H233868   3.816   0.511   2.468
11309TIP3   OH233869   8.044   3.218   1.331
11309TIP3    H133870   8.012   3.268   1.406
11309TIP3    H233871   8.038   3.126   1.358
11310TIP3   OH233872   5.023   4.472   1.826
11310TIP3    H133873   5.093   4.511   1.878
11310TIP3    H233874   4.965   4.546   1.805
11311TIP3   OH233875   4.212   7.084   2.240
11311TIP3    H133876   4.216   7.005   2.187
11311TIP3    H233877   4.285   7.138   2.210
11312TIP3   OH233878   3.625   0.463   1.831
11312TIP3    H133879   3.624   0.548   1.788
11312TIP3    H233880   3.550   0.464   1.889
11313TIP3   OH233881   6.999   0.432   6.071
11313TIP3    H133882   6.913   0.401   6.100
11313TIP3    H233883   7.012   0.391   5.986
11314TIP3   OH233884   6.216   7.146   0.265
11314TIP3    H133885   6.137   7.140   0.211
11314TIP3    H233886   6.257   7.228   0.240
11315TIP3   OH233887   7.508   3.017   5.155
11315TIP3    H133888   7.464   3.085   5.104
11315TIP3    H233889   7.526   2.947   5.092
11316TIP3   OH233890   3.178   0.364   0.244
11316TIP3    H133891   3.237   0.327   0.178
11316TIP3    H233892   3.116   0.416   0.195
11317TIP3   OH233893   1.822   0.838   4.273
11317TIP3    H133894   1.786   0.818   4.187
11317TIP3    H233895   1.797   0.763   4.327
11318TIP3   OH233896   5.404   1.605   5.137
11318TIP3    H133897   5.473   1.671   5.134
11318TIP3    H233898   5.350   1.624   5.060
11319TIP3   OH233899   4.683   3.954   1.421
11319TIP3    H133900   4.682   3.981   1.513
11319TIP3    H233901   4.775   3.934   1.403
11320TIP3   OH233902   3.187   7.681   5.598
11320TIP3    H133903   3.203   7.773   5.576
11320TIP3    H233904   3.260   7.659   5.657
11321TIP3   OH233905   3.148   3.295   5.668
11321TIP3    H133906   3.146   3.390   5.655
11321TIP3    H233907   3.120   3.282   5.758
11322TIP3   OH233908   3.389   2.079   2.722
11322TIP3    H133909   3.326   2.098   2.653
11322TIP3    H233910   3.337   2.039   2.792
11323TIP3   OH233911   7.995   5.466   3.993
11323TIP3    H133912   8.077   5.493   4.033
11323TIP3    H233913   7.930   5.474   4.063
11324TIP3   OH233914   0.090   0.181   6.647
11324TIP3    H133915   0.042   0.161   6.567
11324TIP3    H233916   0.178   0.146   6.630
11325TIP3   OH233917   5.037   5.820   1.570
11325TIP3    H133918   5.132   5.826   1.570
11325TIP3    H233919   5.008   5.897   1.521
11326TIP3   OH233920   3.129   1.314   4.093
11326TIP3    H133921   3.033   1.316   4.091
11326TIP3    H233922   3.155   1.406   4.106
11327TIP3   OH233923   8.190   5.829   2.015
11327TIP3    H133924   8.279   5.809   2.043
11327TIP3    H233925   8.145   5.744   2.013
11328TIP3   OH233926   1.275   5.543   3.332
11328TIP3    H133927   1.197   5.552   3.386
11328TIP3    H233928   1.335   5.491   3.386
11329TIP3   OH233929   8.065   0.424   3.807
11329TIP3    H133930   8.099   0.498   3.858
11329TIP3    H233931   8.134   0.358   3.810
11330TIP3   OH233932   7.675   0.461   1.050
11330TIP3    H133933   7.758   0.484   1.092
11330TIP3    H233934   7.701   0.430   0.963
11331TIP3   OH233935   7.798   0.219   3.144
11331TIP3    H133936   7.782   0.207   3.237
11331TIP3    H233937   7.882   0.264   3.139
11332TIP3   OH233938   3.298   5.692   3.142
11332TIP3    H133939   3.212   5.651   3.152
11332TIP3    H233940   3.359   5.618   3.145
11333TIP3   OH233941   7.246   2.285   2.314
11333TIP3    H133942   7.264   2.364   2.366
11333TIP3    H233943   7.171   2.310   2.259
11334TIP3   OH233944   3.213   1.449   5.979
11334TIP3    H133945   3.167   1.410   6.053
11334TIP3    H233946   3.161   1.527   5.957
11335TIP3   OH233947   0.950   4.776   4.536
11335TIP3    H133948   0.912   4.702   4.488
11335TIP3    H233949   0.941   4.850   4.476
11336TIP3   OH233950   0.049   0.661   0.638
11336TIP3    H133951   0.071   0.651   0.731
11336TIP3    H233952   0.118   0.614   0.592
11337TIP3   OH233953   5.990   3.722   0.382
11337TIP3    H133954   6.053   3.710   0.453
11337TIP3    H233955   6.039   3.769   0.314
11338TIP3   OH233956   7.193   7.585   0.556
11338TIP3    H133957   7.135   7.529   0.607
11338TIP3    H233958   7.137   7.654   0.522
11339TIP3   OH233959   7.643   3.208   0.539
11339TIP3    H133960   7.619   3.219   0.447
11339TIP3    H233961   7.691   3.125   0.542
11340TIP3   OH233962   0.094   2.990   0.119
11340TIP3    H133963   0.160   3.034   0.066
11340TIP3    H233964   0.038   2.945   0.055
11341TIP3   OH233965   7.148   4.397   3.603
11341TIP3    H133966   7.101   4.468   3.647
11341TIP3    H233967   7.083   4.327   3.596
11342TIP3   OH233968   5.629   2.989   4.645
11342TIP3    H133969   5.625   2.966   4.738
11342TIP3    H233970   5.579   2.921   4.601
11343TIP3   OH233971   7.782   2.177   2.737
11343TIP3    H133972   7.797   2.101   2.793
11343TIP3    H233973   7.706   2.152   2.684
11344TIP3   OH233974   1.729   1.762   0.397
11344TIP3    H133975   1.821   1.784   0.413
11344TIP3    H233976   1.680   1.838   0.427
11345TIP3   OH233977   3.019   1.767   0.126
11345TIP3    H133978   3.016   1.850   0.079
11345TIP3    H233979   3.023   1.701   0.057
11346TIP3   OH233980   6.992   4.096   0.620
11346TIP3    H133981   7.012   4.058   0.705
11346TIP3    H233982   6.943   4.176   0.641
11347TIP3   OH233983   3.597   0.170   1.534
11347TIP3    H133984   3.688   0.181   1.563
11347TIP3    H233985   3.559   0.258   1.537
11348TIP3   OH233986   6.722   5.977   3.213
11348TIP3    H133987   6.682   5.926   3.143
11348TIP3    H233988   6.732   6.065   3.177
11349TIP3   OH233989   2.606   1.932   2.333
11349TIP3    H133990   2.647   1.873   2.270
11349TIP3    H233991   2.652   1.915   2.415
11350TIP3   OH233992   8.116   4.790   6.705
11350TIP3    H133993   8.098   4.706   6.661
11350TIP3    H233994   8.040   4.844   6.682
11351TIP3   OH233995   6.811   7.182   5.803
11351TIP3    H133996   6.814   7.093   5.837
11351TIP3    H233997   6.903   7.207   5.792
11352TIP3   OH233998   4.550   5.135   6.338
11352TIP3    H133999   4.614   5.109   6.404
11352TIP3    H234000   4.599   5.136   6.256
11353TIP3   OH234001   2.529   2.305   5.495
11353TIP3    H134002   2.574   2.287   5.578
11353TIP3    H234003   2.530   2.221   5.449
11354TIP3   OH234004   8.008   6.495   2.873
11354TIP3    H134005   8.039   6.581   2.903
11354TIP3    H234006   8.062   6.476   2.796
11355TIP3   OH234007   4.753   5.999   2.624
11355TIP3    H134008   4.776   5.912   2.655
11355TIP3    H234009   4.678   5.985   2.566
11356TIP3   OH234010   8.308   0.070   0.547
11356TIP3    H134011   8.366  -0.005   0.560
11356TIP3    H234012   8.365   0.137   0.510
11357TIP3   OH234013   0.263   1.727   5.169
11357TIP3    H134014   0.218   1.676   5.102
11357TIP3    H234015   0.257   1.817   5.137
11358TIP3   OH234016   3.393   1.914   6.654
11358TIP3    H134017   3.326   1.851   6.627
11358TIP3    H234018   3.412   1.891   6.745
11359TIP3   OH234019   1.710   1.274   6.134
11359TIP3    H134020   1.648   1.332   6.177
11359TIP3    H234021   1.744   1.217   6.203
11360TIP3   OH234022   0.800   6.589   1.463
11360TIP3    H134023   0.778   6.601   1.555
11360TIP3    H234024   0.835   6.673   1.435
11361TIP3   OH234025   6.240   1.148   6.751
11361TIP3    H134026   6.274   1.162   6.663
11361TIP3    H234027   6.153   1.111   6.737
11362TIP3   OH234028   0.316   2.201   3.241
11362TIP3    H134029   0.274   2.281   3.210
11362TIP3    H234030   0.273   2.181   3.324
11363TIP3   OH234031   3.048   2.533   0.923
11363TIP3    H134032   2.986   2.533   0.996
11363TIP3    H234033   3.041   2.446   0.885
11364TIP3   OH234034   6.347   1.189   2.651
11364TIP3    H134035   6.408   1.164   2.720
11364TIP3    H234036   6.260   1.168   2.686
11365TIP3   OH234037   3.777   1.184   0.157
11365TIP3    H134038   3.838   1.206   0.228
11365TIP3    H234039   3.691   1.209   0.190
11366TIP3   OH234040   4.384   5.544   1.932
11366TIP3    H134041   4.295   5.525   1.963
11366TIP3    H234042   4.399   5.635   1.956
11367TIP3   OH234043   2.945   0.586   5.139
11367TIP3    H134044   2.971   0.510   5.088
11367TIP3    H234045   2.855   0.604   5.112
11368TIP3   OH234046   6.698   5.029   0.399
11368TIP3    H134047   6.632   5.028   0.468
11368TIP3    H234048   6.689   5.115   0.359
11369TIP3   OH234049   1.496   6.310   3.664
11369TIP3    H134050   1.499   6.314   3.568
11369TIP3    H234051   1.514   6.400   3.692
11370TIP3   OH234052   6.024   4.579   5.733
11370TIP3    H134053   5.962   4.527   5.682
11370TIP3    H234054   6.086   4.515   5.767
11371TIP3   OH234055   7.675   4.480   6.416
11371TIP3    H134056   7.700   4.462   6.507
11371TIP3    H234057   7.708   4.405   6.367
11372TIP3   OH234058   0.548   0.621   4.279
11372TIP3    H134059   0.567   0.694   4.338
11372TIP3    H234060   0.537   0.545   4.336
11373TIP3   OH234061   0.800   5.157   5.455
11373TIP3    H134062   0.718   5.205   5.442
11373TIP3    H234063   0.868   5.225   5.455
11374TIP3   OH234064   6.204   6.182   4.378
11374TIP3    H134065   6.213   6.096   4.338
11374TIP3    H234066   6.286   6.227   4.358
11375TIP3   OH234067   3.275   0.897   4.737
11375TIP3    H134068   3.313   0.835   4.799
11375TIP3    H234069   3.331   0.975   4.744
11376TIP3   OH234070   2.060   5.070   1.217
11376TIP3    H134071   2.071   5.155   1.175
11376TIP3    H234072   2.078   5.006   1.148
11377TIP3   OH234073   1.450   1.411   5.709
11377TIP3    H134074   1.487   1.430   5.795
11377TIP3    H234075   1.510   1.347   5.670
11378TIP3   OH234076   4.460   3.925   0.115
11378TIP3    H134077   4.542   3.946   0.069
11378TIP3    H234078   4.405   4.003   0.101
11379TIP3   OH234079   1.131   4.882   1.393
11379TIP3    H134080   1.073   4.959   1.393
11379TIP3    H234081   1.216   4.917   1.366
11380TIP3   OH234082   5.203   7.509   4.902
11380TIP3    H134083   5.281   7.511   4.957
11380TIP3    H234084   5.191   7.417   4.880
11381TIP3   OH234085   4.729   6.281   2.332
11381TIP3    H134086   4.704   6.255   2.421
11381TIP3    H234087   4.722   6.376   2.332
11382TIP3   OH234088   2.049   0.779   0.000
11382TIP3    H134089   1.985   0.715   0.029
11382TIP3    H234090   2.031   0.857   0.052
11383TIP3   OH234091   3.900   0.968   2.855
11383TIP3    H134092   3.809   0.958   2.884
11383TIP3    H234093   3.893   0.989   2.761
11384TIP3   OH234094   3.719   5.907   0.171
11384TIP3    H134095   3.627   5.883   0.180
11384TIP3    H234096   3.736   5.903   0.076
11385TIP3   OH234097   1.417   6.379   5.678
11385TIP3    H134098   1.439   6.381   5.584
11385TIP3    H234099   1.480   6.440   5.718
11386TIP3   OH234100   5.170   7.636   3.998
11386TIP3    H134101   5.085   7.592   4.001
11386TIP3    H234102   5.174   7.675   3.911
11387TIP3   OH234103   5.605   0.662   4.391
11387TIP3    H134104   5.699   0.677   4.404
11387TIP3    H234105   5.564   0.700   4.469
11388TIP3   OH234106   5.451   0.188   1.974
11388TIP3    H134107   5.424   0.276   2.001
11388TIP3    H234108   5.538   0.200   1.935
11389TIP3   OH234109   4.842   1.055   0.107
11389TIP3    H134110   4.886   0.970   0.100
11389TIP3    H234111   4.749   1.033   0.107
11390TIP3   OH234112   3.137   4.004   3.125
11390TIP3    H134113   3.200   4.074   3.105
11390TIP3    H234114   3.058   4.028   3.077
11391TIP3   OH234115   7.502   5.577   5.970
11391TIP3    H134116   7.409   5.569   5.994
11391TIP3    H234117   7.538   5.639   6.033
11392TIP3   OH234118   1.913   5.054   5.053
11392TIP3    H134119   1.861   5.003   4.991
11392TIP3    H234120   1.961   5.117   4.998
11393TIP3   OH234121   7.728   7.430   0.349
11393TIP3    H134122   7.744   7.336   0.359
11393TIP3    H234123   7.815   7.470   0.354
11394TIP3   OH234124   4.338   4.766   5.070
11394TIP3    H134125   4.316   4.676   5.048
11394TIP3    H234126   4.343   4.811   4.986
11395TIP3   OH234127   5.479   1.461   2.462
11395TIP3    H134128   5.509   1.519   2.392
11395TIP3    H234129   5.512   1.502   2.543
11396TIP3   OH234130   1.553   3.897   4.363
11396TIP3    H134131   1.530   3.989   4.357
11396TIP3    H234132   1.509   3.866   4.442
11397TIP3   OH234133   7.520   7.216   1.780
11397TIP3    H134134   7.446   7.159   1.798
11397TIP3    H234135   7.578   7.206   1.855
11398TIP3   OH234136   0.687   1.832   6.060
11398TIP3    H134137   0.763   1.862   6.110
11398TIP3    H234138   0.615   1.835   6.122
11399TIP3   OH234139   5.883   1.018   4.269
11399TIP3    H134140   5.851   0.933   4.240
11399TIP3    H234141   5.821   1.044   4.338
11400TIP3   OH234142   0.042   5.364   4.058
11400TIP3    H134143   0.102   5.433   4.089
11400TIP3    H234144   0.081   5.336   3.975
11401TIP3   OH234145   1.847   3.261   1.324
11401TIP3    H134146   1.830   3.219   1.408
11401TIP3    H234147   1.766   3.251   1.275
11402TIP3   OH234148   7.243   7.685   5.069
11402TIP3    H134149   7.180   7.669   5.140
11402TIP3    H234150   7.265   7.778   5.077
11403TIP3   OH234151   0.589   0.444   4.942
11403TIP3    H134152   0.562   0.501   4.870
11403TIP3    H234153   0.660   0.391   4.906
11404TIP3   OH234154   7.572   2.800   0.177
11404TIP3    H134155   7.563   2.721   0.231
11404TIP3    H234156   7.508   2.789   0.107
11405TIP3   OH234157   6.744   5.796   4.702
11405TIP3    H134158   6.792   5.844   4.634
11405TIP3    H234159   6.654   5.830   4.696
11406TIP3   OH234160   4.426   0.308   2.607
11406TIP3    H134161   4.495   0.244   2.587
11406TIP3    H234162   4.346   0.265   2.577
11407TIP3   OH234163   7.456   3.169   4.088
11407TIP3    H134164   7.540   3.126   4.076
11407TIP3    H234165   7.442   3.169   4.183
11408TIP3   OH234166   6.177   5.807   6.256
11408TIP3    H134167   6.264   5.775   6.232
11408TIP3    H234168   6.170   5.791   6.350
11409TIP3   OH234169   0.744   5.875   1.355
11409TIP3    H134170   0.793   5.952   1.383
11409TIP3    H234171   0.805   5.802   1.365
11410TIP3   OH234172   5.138   0.105   3.237
11410TIP3    H134173   5.124   0.081   3.146
11410TIP3    H234174   5.054   0.087   3.280
11411TIP3   OH234175   6.989   3.381   2.089
11411TIP3    H134176   6.907   3.372   2.040
11411TIP3    H234177   6.994   3.302   2.143
11412TIP3   OH234178   7.898   7.369   5.251
11412TIP3    H134179   7.913   7.330   5.165
11412TIP3    H234180   7.809   7.341   5.275
11413TIP3   OH234181   7.017   2.825   1.722
11413TIP3    H134182   7.049   2.885   1.654
11413TIP3    H234183   7.032   2.738   1.685
11414TIP3   OH234184   1.231   6.677   2.058
11414TIP3    H134185   1.215   6.770   2.076
11414TIP3    H234186   1.263   6.642   2.141
11415TIP3   OH234187   0.875   1.264   3.972
11415TIP3    H134188   0.883   1.285   3.878
11415TIP3    H234189   0.781   1.248   3.985
11416TIP3   OH234190   1.729   6.865   2.687
11416TIP3    H134191   1.704   6.954   2.661
11416TIP3    H234192   1.665   6.808   2.645
11417TIP3   OH234193   7.531   0.201   5.378
11417TIP3    H134194   7.626   0.203   5.371
11417TIP3    H234195   7.502   0.277   5.327
11418TIP3   OH234196   3.214   7.551   1.214
11418TIP3    H134197   3.118   7.558   1.215
11418TIP3    H234198   3.234   7.490   1.285
11419TIP3   OH234199   3.123   4.291   6.353
11419TIP3    H134200   3.115   4.375   6.399
11419TIP3    H234201   3.056   4.235   6.392
11420TIP3   OH234202   4.199   1.966   5.942
11420TIP3    H134203   4.176   1.929   6.026
11420TIP3    H234204   4.267   2.031   5.962
11421TIP3   OH234205   4.759   4.956   4.780
11421TIP3    H134206   4.671   4.977   4.748
11421TIP3    H234207   4.746   4.885   4.843
11422TIP3   OH234208   6.059   7.278   5.846
11422TIP3    H134209   5.978   7.232   5.865
11422TIP3    H234210   6.036   7.338   5.775
11423TIP3   OH234211   2.003   1.052   2.173
11423TIP3    H134212   2.038   0.987   2.112
11423TIP3    H234213   2.081   1.096   2.208
11424TIP3   OH234214   0.386   2.118   1.066
11424TIP3    H134215   0.422   2.095   0.981
11424TIP3    H234216   0.320   2.185   1.047
11425TIP3   OH234217   3.806   5.725   5.315
11425TIP3    H134218   3.835   5.792   5.376
11425TIP3    H234219   3.883   5.705   5.262
11426TIP3   OH234220   2.445   1.820   0.232
11426TIP3    H134221   2.537   1.846   0.231
11426TIP3    H234222   2.398   1.893   0.193
11427TIP3   OH234223   2.052   7.221   2.201
11427TIP3    H134224   1.998   7.210   2.280
11427TIP3    H234225   2.019   7.154   2.141
11428TIP3   OH234226   4.473   4.885   0.755
11428TIP3    H134227   4.559   4.855   0.785
11428TIP3    H234228   4.493   4.942   0.680
11429TIP3   OH234229   4.511   7.619   1.343
11429TIP3    H134230   4.521   7.706   1.305
11429TIP3    H234231   4.492   7.635   1.435
11430TIP3   OH234232   0.105   1.827   2.957
11430TIP3    H134233   0.031   1.835   2.898
11430TIP3    H234234   0.165   1.898   2.932
11431TIP3   OH234235   0.515   4.265   5.061
11431TIP3    H134236   0.439   4.213   5.089
11431TIP3    H234237   0.540   4.314   5.139
11432TIP3   OH234238   4.663   5.267   3.865
11432TIP3    H134239   4.639   5.360   3.863
11432TIP3    H234240   4.590   5.222   3.824
11433TIP3   OH234241   1.415   1.395   0.644
11433TIP3    H134242   1.497   1.444   0.643
11433TIP3    H234243   1.437   1.313   0.689
11434TIP3   OH234244   5.794   3.836   5.538
11434TIP3    H134245   5.785   3.870   5.449
11434TIP3    H234246   5.748   3.901   5.592
11435TIP3   OH234247   2.368   0.817   4.900
11435TIP3    H134248   2.455   0.805   4.939
11435TIP3    H234249   2.353   0.911   4.905
11436TIP3   OH234250   5.849   2.380   3.112
11436TIP3    H134251   5.782   2.424   3.165
11436TIP3    H234252   5.898   2.327   3.175
11437TIP3   OH234253   0.807   0.427   1.996
11437TIP3    H134254   0.807   0.463   1.908
11437TIP3    H234255   0.899   0.404   2.013
11438TIP3   OH234256   6.921   5.625   2.190
11438TIP3    H134257   6.953   5.545   2.148
11438TIP3    H234258   6.963   5.696   2.141
11439TIP3   OH234259   3.982   1.423   2.834
11439TIP3    H134260   3.890   1.429   2.807
11439TIP3    H234261   3.987   1.476   2.913
11440TIP3   OH234262   7.009   5.877   2.068
11440TIP3    H134263   7.067   5.833   2.005
11440TIP3    H234264   7.046   5.965   2.078
11441TIP3   OH234265   0.881   6.937   1.425
11441TIP3    H134266   0.792   6.913   1.449
11441TIP3    H234267   0.871   6.997   1.351
11442TIP3   OH234268   2.094   4.769   6.147
11442TIP3    H134269   2.171   4.824   6.164
11442TIP3    H234270   2.043   4.820   6.084
11443TIP3   OH234271   4.462   0.737   4.324
11443TIP3    H134272   4.454   0.644   4.304
11443TIP3    H234273   4.493   0.739   4.415
11444TIP3   OH234274   2.352   2.429   5.090
11444TIP3    H134275   2.444   2.422   5.063
11444TIP3    H234276   2.336   2.350   5.142
11445TIP3   OH234277   4.837   1.014   2.938
11445TIP3    H134278   4.923   1.055   2.937
11445TIP3    H234279   4.800   1.039   3.022
11446TIP3   OH234280   2.621   1.290   4.212
11446TIP3    H134281   2.568   1.211   4.199
11446TIP3    H234282   2.677   1.270   4.287
11447TIP3   OH234283   7.515   6.628   2.263
11447TIP3    H134284   7.490   6.718   2.282
11447TIP3    H234285   7.433   6.578   2.269
11448TIP3   OH234286   0.099   3.132   3.142
11448TIP3    H134287   0.186   3.098   3.167
11448TIP3    H234288   0.038   3.067   3.175
11449TIP3   OH234289   0.600   0.050   4.709
11449TIP3    H134290   0.567   0.114   4.772
11449TIP3    H234291   0.662   0.098   4.656
11450TIP3   OH234292   4.780   6.967   3.774
11450TIP3    H134293   4.775   6.885   3.726
11450TIP3    H234294   4.775   7.035   3.707
11451TIP3   OH234295   2.462   6.029   5.245
11451TIP3    H134296   2.552   6.005   5.269
11451TIP3    H234297   2.417   5.945   5.232
11452TIP3   OH234298   1.877   2.083   1.241
11452TIP3    H134299   1.891   2.169   1.201
11452TIP3    H234300   1.783   2.078   1.255
11453TIP3   OH234301   5.634   7.365   2.370
11453TIP3    H134302   5.563   7.389   2.430
11453TIP3    H234303   5.657   7.448   2.328
11454TIP3   OH234304   2.666   5.602   6.100
11454TIP3    H134305   2.600   5.669   6.116
11454TIP3    H234306   2.675   5.557   6.184
11455TIP3   OH234307   7.889   2.259   5.928
11455TIP3    H134308   7.982   2.245   5.908
11455TIP3    H234309   7.890   2.305   6.013
11456TIP3   OH234310   3.681   4.491   3.213
11456TIP3    H134311   3.692   4.398   3.232
11456TIP3    H234312   3.716   4.536   3.289
11457TIP3   OH234313   8.238   6.695   1.016
11457TIP3    H134314   8.202   6.607   1.027
11457TIP3    H234315   8.269   6.719   1.103
11458TIP3   OH234316   0.765   3.857   4.376
11458TIP3    H134317   0.675   3.886   4.363
11458TIP3    H234318   0.780   3.795   4.304
11459TIP3   OH234319   7.699   2.118   6.236
11459TIP3    H134320   7.748   2.061   6.176
11459TIP3    H234321   7.696   2.202   6.191
11460TIP3   OH234322   7.896   4.958   1.916
11460TIP3    H134323   7.916   4.865   1.929
11460TIP3    H234324   7.823   4.957   1.853
11461TIP3   OH234325   4.114   6.679   4.871
11461TIP3    H134326   4.190   6.709   4.921
11461TIP3    H234327   4.076   6.609   4.925
11462TIP3   OH234328   3.910   3.881   4.134
11462TIP3    H134329   3.870   3.836   4.209
11462TIP3    H234330   3.836   3.915   4.083
11463TIP3   OH234331   0.769   1.930   1.091
11463TIP3    H134332   0.718   1.975   1.025
11463TIP3    H234333   0.758   1.837   1.071
11464TIP3   OH234334   8.230   3.102   4.021
11464TIP3    H134335   8.318   3.066   4.025
11464TIP3    H234336   8.241   3.188   3.980
11465TIP3   OH234337   3.315   3.827   3.587
11465TIP3    H134338   3.322   3.752   3.646
11465TIP3    H234339   3.404   3.863   3.583
11466TIP3   OH234340   5.510   5.319   3.063
11466TIP3    H134341   5.560   5.250   3.107
11466TIP3    H234342   5.569   5.353   2.996
11467TIP3   OH234343   4.894   5.359   1.353
11467TIP3    H134344   4.949   5.427   1.391
11467TIP3    H234345   4.933   5.342   1.267
11468TIP3   OH234346   1.548   4.616   4.929
11468TIP3    H134347   1.607   4.569   4.869
11468TIP3    H234348   1.498   4.675   4.873
11469TIP3   OH234349   8.230   4.340   4.551
11469TIP3    H134350   8.192   4.271   4.496
11469TIP3    H234351   8.269   4.401   4.488
11470TIP3   OH234352   7.067   3.418   5.357
11470TIP3    H134353   7.119   3.498   5.366
11470TIP3    H234354   7.003   3.438   5.289
11471TIP3   OH234355   6.174   4.360   5.640
11471TIP3    H134356   6.197   4.281   5.690
11471TIP3    H234357   6.079   4.360   5.638
11472TIP3   OH234358   7.019   1.974   0.903
11472TIP3    H134359   7.082   1.924   0.851
11472TIP3    H234360   7.018   1.930   0.988
11473TIP3   OH234361   4.511   1.299   1.512
11473TIP3    H134362   4.466   1.223   1.476
11473TIP3    H234363   4.496   1.369   1.449
11474TIP3   OH234364   5.234   6.486   4.529
11474TIP3    H134365   5.230   6.409   4.586
11474TIP3    H234366   5.225   6.451   4.440
11475TIP3   OH234367   1.609   1.878   4.842
11475TIP3    H134368   1.523   1.921   4.849
11475TIP3    H234369   1.665   1.945   4.802
11476TIP3   OH234370   8.056   2.867   1.158
11476TIP3    H134371   8.128   2.853   1.096
11476TIP3    H234372   8.099   2.885   1.241
11477TIP3   OH234373   5.560   3.479   3.995
11477TIP3    H134374   5.575   3.478   4.089
11477TIP3    H234375   5.488   3.417   3.982
11478TIP3   OH234376   2.593   4.216   4.678
11478TIP3    H134377   2.513   4.269   4.679
11478TIP3    H234378   2.570   4.139   4.626
11479TIP3   OH234379   3.570   5.446   5.535
11479TIP3    H134380   3.665   5.431   5.544
11479TIP3    H234381   3.533   5.359   5.526
11480TIP3   OH234382   1.001   4.463   3.690
11480TIP3    H134383   0.959   4.399   3.632
11480TIP3    H234384   0.957   4.451   3.774
11481TIP3   OH234385   1.518   0.093   1.415
11481TIP3    H134386   1.563   0.169   1.453
11481TIP3    H234387   1.508   0.115   1.322
11482TIP3   OH234388   6.765   7.383   3.014
11482TIP3    H134389   6.835   7.329   3.049
11482TIP3    H234390   6.754   7.453   3.079
11483TIP3   OH234391  -0.005   1.927   4.387
11483TIP3    H134392   0.056   2.001   4.385
11483TIP3    H234393   0.025   1.870   4.316
11484TIP3   OH234394   3.614   3.281   5.066
11484TIP3    H134395   3.671   3.264   4.991
11484TIP3    H234396   3.674   3.295   5.139
11485TIP3   OH234397   6.055   3.057   1.957
11485TIP3    H134398   6.123   2.991   1.967
11485TIP3    H234399   5.987   3.031   2.019
11486TIP3   OH234400   2.959   7.525   1.297
11486TIP3    H134401   2.933   7.469   1.370
11486TIP3    H234402   2.965   7.613   1.335
11487TIP3   OH234403   4.964   2.985   3.448
11487TIP3    H134404   4.996   3.068   3.484
11487TIP3    H234405   5.000   2.982   3.360
11488TIP3   OH234406   5.852   2.997   5.450
11488TIP3    H134407   5.809   2.970   5.369
11488TIP3    H234408   5.946   2.996   5.429
11489TIP3   OH234409   2.162   4.331   4.021
11489TIP3    H134410   2.182   4.392   3.950
11489TIP3    H234411   2.171   4.384   4.101
11490TIP3   OH234412   5.160   0.988   0.853
11490TIP3    H134413   5.254   0.984   0.837
11490TIP3    H234414   5.129   1.058   0.794
11491TIP3   OH234415   4.161   2.673   4.807
11491TIP3    H134416   4.128   2.583   4.808
11491TIP3    H234417   4.221   2.675   4.733
11492TIP3   OH234418   2.165   5.710   2.100
11492TIP3    H134419   2.258   5.696   2.113
11492TIP3    H234420   2.147   5.793   2.143
11493TIP3   OH234421   2.230   4.674   1.628
11493TIP3    H134422   2.318   4.687   1.594
11493TIP3    H234423   2.179   4.643   1.554
11494TIP3   OH234424   3.218   0.992   2.679
11494TIP3    H134425   3.299   1.033   2.707
11494TIP3    H234426   3.153   1.062   2.683
11495TIP3   OH234427   2.846   7.071   4.441
11495TIP3    H134428   2.926   7.025   4.466
11495TIP3    H234429   2.836   7.138   4.508
11496TIP3   OH234430   3.033   2.998   6.585
11496TIP3    H134431   2.975   2.956   6.522
11496TIP3    H234432   3.094   2.930   6.610
11497TIP3   OH234433   5.058   2.750   1.676
11497TIP3    H134434   5.117   2.676   1.658
11497TIP3    H234435   5.062   2.804   1.597
11498TIP3   OH234436   0.558   4.788   1.865
11498TIP3    H134437   0.556   4.714   1.927
11498TIP3    H234438   0.467   4.811   1.852
11499TIP3   OH234439   7.775   1.515   2.591
11499TIP3    H134440   7.822   1.432   2.581
11499TIP3    H234441   7.760   1.522   2.686
11500TIP3   OH234442   1.638   0.866   2.522
11500TIP3    H134443   1.610   0.905   2.605
11500TIP3    H234444   1.701   0.798   2.548
11501TIP3   OH234445   2.839   7.245   5.035
11501TIP3    H134446   2.935   7.236   5.033
11501TIP3    H234447   2.813   7.213   5.121
11502TIP3   OH234448   3.572   6.610   6.159
11502TIP3    H134449   3.543   6.527   6.123
11502TIP3    H234450   3.668   6.607   6.154
11503TIP3   OH234451   7.840   6.048   3.867
11503TIP3    H134452   7.783   6.019   3.939
11503TIP3    H234453   7.917   6.083   3.911
11504TIP3   OH234454   5.740   1.395   6.412
11504TIP3    H134455   5.746   1.488   6.388
11504TIP3    H234456   5.697   1.395   6.497
11505TIP3   OH234457   5.580   2.354   3.723
11505TIP3    H134458   5.655   2.346   3.665
11505TIP3    H234459   5.529   2.274   3.708
11506TIP3   OH234460   5.539   1.606   4.291
11506TIP3    H134461   5.513   1.621   4.382
11506TIP3    H234462   5.622   1.560   4.297
11507TIP3   OH234463   3.918   5.108   1.715
11507TIP3    H134464   3.926   5.110   1.620
11507TIP3    H234465   3.980   5.040   1.742
11508TIP3   OH234466   0.010   7.061   4.048
11508TIP3    H134467   0.011   7.153   4.023
11508TIP3    H234468   0.086   7.023   4.004
11509TIP3   OH234469   3.279   4.536   2.206
11509TIP3    H134470   3.362   4.520   2.161
11509TIP3    H234471   3.283   4.629   2.229
11510TIP3   OH234472   7.654   4.508   1.446
11510TIP3    H134473   7.640   4.504   1.351
11510TIP3    H234474   7.608   4.588   1.473
11511TIP3   OH234475   5.926   3.205   4.195
11511TIP3    H134476   5.847   3.154   4.177
11511TIP3    H234477   5.950   3.244   4.111
11512TIP3   OH234478   3.781   4.641   3.028
11512TIP3    H134479   3.748   4.590   3.102
11512TIP3    H234480   3.717   4.710   3.015
11513TIP3   OH234481   6.336   4.676   4.933
11513TIP3    H134482   6.251   4.643   4.904
11513TIP3    H234483   6.355   4.627   5.013
11514TIP3   OH234484   6.167   6.113   1.009
11514TIP3    H134485   6.073   6.131   1.005
11514TIP3    H234486   6.195   6.154   1.091
11515TIP3   OH234487   3.635   7.382   5.936
11515TIP3    H134488   3.579   7.438   5.991
11515TIP3    H234489   3.616   7.293   5.966
11516TIP3   OH234490   5.869   5.558   5.101
11516TIP3    H134491   5.807   5.562   5.029
11516TIP3    H234492   5.821   5.594   5.176
11517TIP3   OH234493   3.837   7.821   3.953
11517TIP3    H134494   3.814   7.876   4.028
11517TIP3    H234495   3.909   7.767   3.985
11518TIP3   OH234496   0.900   0.158   2.671
11518TIP3    H134497   0.843   0.190   2.740
11518TIP3    H234498   0.988   0.160   2.710
11519TIP3   OH234499   7.078   2.788   1.287
11519TIP3    H134500   7.163   2.744   1.288
11519TIP3    H234501   7.099   2.880   1.273
11520TIP3   OH234502   3.504   6.390   3.820
11520TIP3    H134503   3.497   6.360   3.911
11520TIP3    H234504   3.435   6.456   3.811
11521TIP3   OH234505   1.069   7.245   4.514
11521TIP3    H134506   1.120   7.180   4.562
11521TIP3    H234507   1.129   7.318   4.502
11522TIP3   OH234508   7.801   2.816   4.935
11522TIP3    H134509   7.782   2.909   4.946
11522TIP3    H234510   7.800   2.802   4.841
11523TIP3   OH234511   4.134   2.699   1.668
11523TIP3    H134512   4.187   2.627   1.702
11523TIP3    H234513   4.049   2.689   1.712
11524TIP3   OH234514   1.695   4.281   4.549
11524TIP3    H134515   1.652   4.219   4.607
11524TIP3    H234516   1.642   4.361   4.557
11525TIP3   OH234517   1.270   6.477   5.213
11525TIP3    H134518   1.228   6.443   5.134
11525TIP3    H234519   1.218   6.441   5.285
11526TIP3   OH234520   6.168   4.676   0.865
11526TIP3    H134521   6.119   4.601   0.830
11526TIP3    H234522   6.217   4.710   0.790
11527TIP3   OH234523   2.983   0.347   5.864
11527TIP3    H134524   2.936   0.341   5.946
11527TIP3    H234525   3.076   0.350   5.889
11528TIP3   OH234526   7.705   2.830   0.952
11528TIP3    H134527   7.718   2.738   0.930
11528TIP3    H234528   7.718   2.835   1.047
11529TIP3   OH234529   4.610   6.323   1.880
11529TIP3    H134530   4.520   6.340   1.909
11529TIP3    H234531   4.601   6.249   1.819
11530TIP3   OH234532   3.606   6.347   6.526
11530TIP3    H134533   3.515   6.364   6.549
11530TIP3    H234534   3.649   6.331   6.610
11531TIP3   OH234535   7.627   3.559   0.407
11531TIP3    H134536   7.683   3.624   0.365
11531TIP3    H234537   7.563   3.611   0.457
11532TIP3   OH234538   3.753   4.842   0.791
11532TIP3    H134539   3.709   4.766   0.830
11532TIP3    H234540   3.682   4.903   0.770
11533TIP3   OH234541   4.777   4.909   5.827
11533TIP3    H134542   4.694   4.956   5.836
11533TIP3    H234543   4.821   4.952   5.754
11534TIP3   OH234544   0.143   3.799   2.664
11534TIP3    H134545   0.095   3.760   2.736
11534TIP3    H234546   0.180   3.880   2.700
11535TIP3   OH234547   6.533   6.645   4.791
11535TIP3    H134548   6.568   6.581   4.854
11535TIP3    H234549   6.461   6.600   4.748
11536TIP3   OH234550   5.224   2.105   5.704
11536TIP3    H134551   5.156   2.137   5.762
11536TIP3    H234552   5.258   2.027   5.747
11537TIP3   OH234553   6.399   7.531   4.673
11537TIP3    H134554   6.490   7.553   4.651
11537TIP3    H234555   6.401   7.514   4.767
11538TIP3   OH234556   0.366   2.140   0.101
11538TIP3    H134557   0.401   2.228   0.086
11538TIP3    H234558   0.329   2.145   0.189
11539TIP3   OH234559   5.850   0.259   4.416
11539TIP3    H134560   5.942   0.282   4.413
11539TIP3    H234561   5.833   0.218   4.331
11540TIP3   OH234562   1.157   1.381   3.019
11540TIP3    H134563   1.224   1.342   3.075
11540TIP3    H234564   1.117   1.307   2.974
11541TIP3   OH234565   5.106   0.917   1.161
11541TIP3    H134566   5.174   0.947   1.222
11541TIP3    H234567   5.126   0.825   1.145
11542TIP3   OH234568   5.008   0.415   5.044
11542TIP3    H134569   4.962   0.491   5.008
11542TIP3    H234570   4.943   0.346   5.047
11543TIP3   OH234571   5.946   3.540   6.596
11543TIP3    H134572   5.881   3.580   6.653
11543TIP3    H234573   5.902   3.465   6.556
11544TIP3   OH234574   3.996   4.214   3.031
11544TIP3    H134575   4.077   4.257   3.057
11544TIP3    H234576   3.943   4.283   2.991
11545TIP3   OH234577   3.840   3.443   0.574
11545TIP3    H134578   3.862   3.534   0.551
11545TIP3    H234579   3.745   3.441   0.574
11546TIP3   OH234580   6.632   2.448   1.293
11546TIP3    H134581   6.708   2.502   1.274
11546TIP3    H234582   6.629   2.384   1.221
11547TIP3   OH234583   4.587   4.287   4.244
11547TIP3    H134584   4.513   4.227   4.240
11547TIP3    H234585   4.563   4.350   4.312
11548TIP3   OH234586   2.276   6.943   2.083
11548TIP3    H134587   2.195   6.992   2.069
11548TIP3    H234588   2.297   6.957   2.175
11549TIP3   OH234589   6.832   7.093   3.511
11549TIP3    H134590   6.868   7.175   3.545
11549TIP3    H234591   6.897   7.061   3.449
11550TIP3   OH234592   5.790   1.846   2.099
11550TIP3    H134593   5.733   1.919   2.126
11550TIP3    H234594   5.876   1.886   2.089
11551TIP3   OH234595   0.933   5.078   4.089
11551TIP3    H134596   0.858   5.032   4.050
11551TIP3    H234597   1.009   5.045   4.041
11552TIP3   OH234598   7.872   7.605   3.159
11552TIP3    H134599   7.877   7.533   3.222
11552TIP3    H234600   7.954   7.599   3.110
11553TIP3   OH234601   6.498   7.456   0.505
11553TIP3    H134602   6.514   7.411   0.422
11553TIP3    H234603   6.432   7.402   0.549
11554TIP3   OH234604   8.276   5.163   5.897
11554TIP3    H134605   8.325   5.232   5.942
11554TIP3    H234606   8.187   5.172   5.930
11555TIP3   OH234607   3.699   1.926   3.198
11555TIP3    H134608   3.714   1.832   3.207
11555TIP3    H234609   3.618   1.943   3.247
11556TIP3   OH234610   2.538   6.821   1.955
11556TIP3    H134611   2.531   6.912   1.984
11556TIP3    H234612   2.480   6.772   2.012
11557TIP3   OH234613   5.212   2.025   4.425
11557TIP3    H134614   5.159   1.960   4.381
11557TIP3    H234615   5.168   2.039   4.509
11558TIP3   OH234616   2.261   7.326   3.542
11558TIP3    H134617   2.240   7.375   3.622
11558TIP3    H234618   2.346   7.361   3.514
11559TIP3   OH234619   4.209   0.214   3.088
11559TIP3    H134620   4.255   0.266   3.022
11559TIP3    H234621   4.161   0.148   3.038
11560TIP3   OH234622   4.028   2.117   1.748
11560TIP3    H134623   4.109   2.072   1.771
11560TIP3    H234624   3.973   2.111   1.827
11561TIP3   OH234625   0.110   0.556   2.400
11561TIP3    H134626   0.180   0.532   2.460
11561TIP3    H234627   0.033   0.509   2.433
11562TIP3   OH234628   8.241   2.730   2.777
11562TIP3    H134629   8.299   2.693   2.711
11562TIP3    H234630   8.172   2.774   2.727
11563TIP3   OH234631   0.607   3.688   3.888
11563TIP3    H134632   0.663   3.766   3.894
11563TIP3    H234633   0.538   3.713   3.826
11564TIP3   OH234634   4.306   3.044   5.927
11564TIP3    H134635   4.391   3.027   5.886
11564TIP3    H234636   4.325   3.106   5.997
11565TIP3   OH234637   2.976   4.529   1.177
11565TIP3    H134638   2.918   4.477   1.232
11565TIP3    H234639   2.921   4.559   1.105
11566TIP3   OH234640   2.480   4.529   1.054
11566TIP3    H134641   2.533   4.531   0.975
11566TIP3    H234642   2.407   4.589   1.035
11567TIP3   OH234643   4.466   5.734   5.633
11567TIP3    H134644   4.433   5.716   5.545
11567TIP3    H234645   4.533   5.800   5.620
11568TIP3   OH234646   1.933   1.808   0.588
11568TIP3    H134647   2.016   1.855   0.586
11568TIP3    H234648   1.956   1.719   0.615
11569TIP3   OH234649   4.500   6.128   3.717
11569TIP3    H134650   4.555   6.130   3.795
11569TIP3    H234651   4.544   6.068   3.658
11570TIP3   OH234652   3.516   6.033   3.780
11570TIP3    H134653   3.495   6.003   3.869
11570TIP3    H234654   3.474   5.970   3.722
11571TIP3   OH234655   4.722   1.387   5.821
11571TIP3    H134656   4.751   1.445   5.751
11571TIP3    H234657   4.706   1.303   5.778
11572TIP3   OH234658   0.260   2.298   2.204
11572TIP3    H134659   0.200   2.274   2.274
11572TIP3    H234660   0.268   2.393   2.210
11573TIP3   OH234661   3.925   3.450   1.342
11573TIP3    H134662   4.008   3.429   1.300
11573TIP3    H234663   3.859   3.411   1.284
11574TIP3   OH234664   2.736   1.732   0.194
11574TIP3    H134665   2.826   1.742   0.163
11574TIP3    H234666   2.714   1.818   0.230
11575TIP3   OH234667   2.095   3.499   3.617
11575TIP3    H134668   2.033   3.455   3.559
11575TIP3    H234669   2.062   3.480   3.705
11576TIP3   OH234670   0.996   7.555   5.952
11576TIP3    H134671   0.942   7.554   6.031
11576TIP3    H234672   1.018   7.647   5.938
11577TIP3   OH234673   5.711   7.146   3.862
11577TIP3    H134674   5.630   7.185   3.895
11577TIP3    H234675   5.682   7.082   3.797
11578TIP3   OH234676   0.443   6.461   4.379
11578TIP3    H134677   0.376   6.473   4.447
11578TIP3    H234678   0.454   6.366   4.373
11579TIP3   OH234679   8.062   5.142   2.489
11579TIP3    H134680   8.156   5.135   2.474
11579TIP3    H234681   8.029   5.052   2.486
11580TIP3   OH234682   3.682   5.116   5.013
11580TIP3    H134683   3.721   5.189   4.965
11580TIP3    H234684   3.643   5.061   4.945
11581TIP3   OH234685   3.102   6.057   0.940
11581TIP3    H134686   3.170   6.110   0.898
11581TIP3    H234687   3.128   5.967   0.924
11582TIP3   OH234688   2.823   2.185   2.794
11582TIP3    H134689   2.762   2.191   2.720
11582TIP3    H234690   2.804   2.262   2.848
11583TIP3   OH234691   3.120   4.153   4.879
11583TIP3    H134692   3.071   4.150   4.797
11583TIP3    H234693   3.149   4.244   4.887
11584TIP3   OH234694   5.637   2.992   2.992
11584TIP3    H134695   5.624   2.980   2.898
11584TIP3    H234696   5.574   2.933   3.033
11585TIP3   OH234697   7.331   6.768   0.087
11585TIP3    H134698   7.393   6.834   0.057
11585TIP3    H234699   7.312   6.792   0.178
11586TIP3   OH234700   6.563   4.185   4.187
11586TIP3    H134701   6.623   4.259   4.193
11586TIP3    H234702   6.477   4.221   4.208
11587TIP3   OH234703   2.744   1.891   2.574
11587TIP3    H134704   2.714   1.894   2.665
11587TIP3    H234705   2.826   1.940   2.574
11588TIP3   OH234706   8.002   0.410   5.984
11588TIP3    H134707   7.948   0.457   6.048
11588TIP3    H234708   7.946   0.339   5.953
11589TIP3   OH234709   3.687   4.479   0.610
11589TIP3    H134710   3.757   4.424   0.644
11589TIP3    H234711   3.687   4.557   0.666
11590TIP3   OH234712   0.365   6.677   5.201
11590TIP3    H134713   0.388   6.767   5.222
11590TIP3    H234714   0.422   6.653   5.128
11591TIP3   OH234715   5.981   4.024   6.082
11591TIP3    H134716   5.997   4.104   6.033
11591TIP3    H234717   5.893   4.034   6.117
11592TIP3   OH234718   4.786   7.434   3.376
11592TIP3    H134719   4.857   7.372   3.359
11592TIP3    H234720   4.770   7.475   3.291
11593TIP3   OH234721   0.813   7.424   1.963
11593TIP3    H134722   0.869   7.492   1.925
11593TIP3    H234723   0.736   7.422   1.905
11594TIP3   OH234724   7.473   5.250   0.839
11594TIP3    H134725   7.466   5.249   0.743
11594TIP3    H234726   7.533   5.178   0.859
11595TIP3   OH234727   2.614   0.009   1.516
11595TIP3    H134728   2.570   0.037   1.597
11595TIP3    H234729   2.648   0.090   1.478
11596TIP3   OH234730   5.349   6.589   0.823
11596TIP3    H134731   5.356   6.622   0.913
11596TIP3    H234732   5.306   6.661   0.775
11597TIP3   OH234733   5.826   6.754   5.043
11597TIP3    H134734   5.911   6.765   5.085
11597TIP3    H234735   5.845   6.741   4.951
11598TIP3   OH234736   5.423   1.259   0.010
11598TIP3    H134737   5.408   1.324   0.080
11598TIP3    H234738   5.347   1.201   0.015
11599TIP3   OH234739   7.214   5.300   3.701
11599TIP3    H134740   7.188   5.209   3.716
11599TIP3    H234741   7.202   5.343   3.786
11600TIP3   OH234742   5.529   5.432   0.051
11600TIP3    H134743   5.477   5.353   0.038
11600TIP3    H234744   5.566   5.423   0.139
11601TIP3   OH234745   0.206   7.343   0.053
11601TIP3    H134746   0.170   7.283  -0.012
11601TIP3    H234747   0.301   7.338   0.041
11602TIP3   OH234748   3.762   0.213   5.407
11602TIP3    H134749   3.825   0.153   5.448
11602TIP3    H234750   3.697   0.155   5.366
11603TIP3   OH234751   8.071   2.929   3.667
11603TIP3    H134752   8.006   2.865   3.637
11603TIP3    H234753   8.042   3.012   3.628
11604TIP3   OH234754   1.270   6.243   1.880
11604TIP3    H134755   1.272   6.267   1.787
11604TIP3    H234756   1.358   6.210   1.899
11605TIP3   OH234757   6.476   0.020   4.649
11605TIP3    H134758   6.451   0.024   4.742
11605TIP3    H234759   6.499   0.110   4.627
11606TIP3   OH234760   2.004   3.883   5.183
11606TIP3    H134761   1.983   3.795   5.214
11606TIP3    H234762   1.919   3.924   5.169
11607TIP3   OH234763   1.370   7.180   4.412
11607TIP3    H134764   1.351   7.166   4.504
11607TIP3    H234765   1.440   7.246   4.412
11608TIP3   OH234766   2.012   7.751   5.248
11608TIP3    H134767   2.002   7.801   5.329
11608TIP3    H234768   2.075   7.683   5.270
11609TIP3   OH234769   6.445   6.972   0.221
11609TIP3    H134770   6.476   6.974   0.311
11609TIP3    H234771   6.374   7.036   0.218
11610TIP3   OH234772   0.435   4.489   5.633
11610TIP3    H134773   0.480   4.405   5.621
11610TIP3    H234774   0.410   4.515   5.544
11611TIP3   OH234775   4.170   0.758   5.941
11611TIP3    H134776   4.155   0.793   6.029
11611TIP3    H234777   4.257   0.791   5.917
11612TIP3   OH234778   6.660   6.839   4.271
11612TIP3    H134779   6.631   6.784   4.344
11612TIP3    H234780   6.677   6.924   4.311
11613TIP3   OH234781   0.639   4.602   2.928
11613TIP3    H134782   0.641   4.545   3.005
11613TIP3    H234783   0.592   4.680   2.958
11614TIP3   OH234784   3.501   6.599   2.828
11614TIP3    H134785   3.576   6.604   2.888
11614TIP3    H234786   3.453   6.680   2.842
11615TIP3   OH234787   6.529   7.131   5.321
11615TIP3    H134788   6.527   7.090   5.407
11615TIP3    H234789   6.470   7.205   5.327
11616TIP3   OH234790   2.079   3.980   3.285
11616TIP3    H134791   2.026   3.925   3.342
11616TIP3    H234792   2.090   3.928   3.205
11617TIP3   OH234793   8.063   2.476   1.878
11617TIP3    H134794   8.068   2.523   1.961
11617TIP3    H234795   8.134   2.511   1.825
11618TIP3   OH234796   4.269   5.288   0.946
11618TIP3    H134797   4.333   5.249   0.887
11618TIP3    H234798   4.255   5.376   0.911
11619TIP3   OH234799   6.905   2.765   6.112
11619TIP3    H134800   6.916   2.829   6.042
11619TIP3    H234801   6.936   2.683   6.074
11620TIP3   OH234802   7.791   5.013   2.883
11620TIP3    H134803   7.867   4.961   2.909
11620TIP3    H234804   7.810   5.101   2.918
11621TIP3   OH234805   2.896   4.211   1.117
11621TIP3    H134806   2.862   4.125   1.141
11621TIP3    H234807   2.860   4.270   1.182
11622TIP3   OH234808   1.671   5.429   4.613
11622TIP3    H134809   1.757   5.460   4.585
11622TIP3    H234810   1.656   5.473   4.696
11623TIP3   OH234811   1.103   3.725   6.422
11623TIP3    H134812   1.196   3.717   6.399
11623TIP3    H234813   1.101   3.723   6.517
11624TIP3   OH234814   2.210   4.184   4.750
11624TIP3    H134815   2.263   4.262   4.735
11624TIP3    H234816   2.158   4.174   4.670
11625TIP3   OH234817   4.319   0.063   6.529
11625TIP3    H134818   4.384   0.073   6.598
11625TIP3    H234819   4.314  -0.031   6.514
11626TIP3   OH234820   6.012   2.516   1.635
11626TIP3    H134821   5.934   2.569   1.614
11626TIP3    H234822   6.084   2.579   1.637
11627TIP3   OH234823   2.149   5.663   5.001
11627TIP3    H134824   2.081   5.730   4.998
11627TIP3    H234825   2.105   5.587   5.038
11628TIP3   OH234826   8.130   2.654   5.522
11628TIP3    H134827   8.146   2.635   5.615
11628TIP3    H234828   8.201   2.712   5.497
11629TIP3   OH234829   6.299   5.962   1.880
11629TIP3    H134830   6.379   5.957   1.828
11629TIP3    H234831   6.233   5.995   1.820
11630TIP3   OH234832   5.651   0.945   2.075
11630TIP3    H134833   5.582   0.881   2.095
11630TIP3    H234834   5.731   0.905   2.109
11631TIP3   OH234835   5.139   1.862   2.124
11631TIP3    H134836   5.207   1.918   2.087
11631TIP3    H234837   5.187   1.795   2.173
11632TIP3   OH234838   2.915   3.792   4.263
11632TIP3    H134839   2.956   3.708   4.246
11632TIP3    H234840   2.941   3.815   4.352
11633TIP3   OH234841   2.219   5.442   2.026
11633TIP3    H134842   2.229   5.452   1.931
11633TIP3    H234843   2.182   5.526   2.054
11634TIP3   OH234844   2.401   4.844   5.890
11634TIP3    H134845   2.375   4.760   5.928
11634TIP3    H234846   2.497   4.844   5.896
11635TIP3   OH234847   2.944   5.498   6.285
11635TIP3    H134848   2.907   5.410   6.282
11635TIP3    H234849   3.003   5.498   6.360
11636TIP3   OH234850   8.035   5.340   5.951
11636TIP3    H134851   8.026   5.428   5.988
11636TIP3    H234852   8.016   5.281   6.025
11637TIP3   OH234853   7.850   3.201   3.819
11637TIP3    H134854   7.838   3.183   3.725
11637TIP3    H234855   7.827   3.119   3.862
11638TIP3   OH234856   3.429   2.292   4.124
11638TIP3    H134857   3.435   2.336   4.209
11638TIP3    H234858   3.498   2.332   4.071
11639TIP3   OH234859   1.648   3.666   3.669
11639TIP3    H134860   1.584   3.626   3.610
11639TIP3    H234861   1.612   3.753   3.687
11640TIP3   OH234862   5.871   1.179   2.795
11640TIP3    H134863   5.845   1.225   2.874
11640TIP3    H234864   5.791   1.171   2.744
11641TIP3   OH234865   2.518   4.624   6.367
11641TIP3    H134866   2.474   4.708   6.379
11641TIP3    H234867   2.456   4.572   6.316
11642TIP3   OH234868   1.381   3.455   5.520
11642TIP3    H134869   1.429   3.425   5.597
11642TIP3    H234870   1.290   3.431   5.538
11643TIP3   OH234871   5.332   1.056   0.466
11643TIP3    H134872   5.418   1.023   0.440
11643TIP3    H234873   5.350   1.138   0.512
11644TIP3   OH234874   1.090   7.571   1.652
11644TIP3    H134875   1.101   7.516   1.574
11644TIP3    H234876   1.103   7.660   1.619
11645TIP3   OH234877   6.066   1.868   3.245
11645TIP3    H134878   6.022   1.952   3.234
11645TIP3    H234879   6.151   1.879   3.203
11646TIP3   OH234880   0.545   5.138   1.299
11646TIP3    H134881   0.540   5.049   1.264
11646TIP3    H234882   0.454   5.162   1.314
11647TIP3   OH234883   5.191   7.087   2.159
11647TIP3    H134884   5.281   7.096   2.191
11647TIP3    H234885   5.142   7.049   2.232
11648TIP3   OH234886   4.133   4.682   4.179
11648TIP3    H134887   4.148   4.745   4.250
11648TIP3    H234888   4.220   4.651   4.155
11649TIP3   OH234889   6.596   2.123   3.753
11649TIP3    H134890   6.566   2.033   3.742
11649TIP3    H234891   6.662   2.134   3.684
11650TIP3   OH234892   3.155   4.377   0.624
11650TIP3    H134893   3.106   4.458   0.642
11650TIP3    H234894   3.100   4.308   0.662
11651TIP3   OH234895   7.230   5.288   4.911
11651TIP3    H134896   7.300   5.224   4.907
11651TIP3    H234897   7.211   5.309   4.819
11652TIP3   OH234898   1.711   4.248   5.066
11652TIP3    H134899   1.787   4.197   5.038
11652TIP3    H234900   1.724   4.260   5.160
11653TIP3   OH234901   2.911   4.310   3.273
11653TIP3    H134902   2.897   4.216   3.283
11653TIP3    H234903   2.823   4.346   3.264
11654TIP3   OH234904   3.203   2.373   2.973
11654TIP3    H134905   3.203   2.307   2.904
11654TIP3    H234906   3.116   2.368   3.012
11655TIP3   OH234907   8.346   5.595   0.166
11655TIP3    H134908   8.291   5.518   0.153
11655TIP3    H234909   8.299   5.648   0.230
11656TIP3   OH234910   6.303   4.375   2.696
11656TIP3    H134911   6.361   4.429   2.643
11656TIP3    H234912   6.258   4.319   2.633
11657TIP3   OH234913   1.575   7.514   4.143
11657TIP3    H134914   1.526   7.434   4.121
11657TIP3    H234915   1.521   7.585   4.109
11658TIP3   OH234916   6.360   7.072   2.918
11658TIP3    H134917   6.444   7.116   2.932
11658TIP3    H234918   6.383   6.988   2.879
11659TIP3   OH234919   0.373   0.981   2.542
11659TIP3    H134920   0.449   0.997   2.598
11659TIP3    H234921   0.359   1.064   2.496
11660TIP3   OH234922   6.502   1.356   3.321
11660TIP3    H134923   6.425   1.376   3.268
11660TIP3    H234924   6.575   1.394   3.272
11661TIP3   OH234925   0.516   0.609   0.803
11661TIP3    H134926   0.422   0.602   0.815
11661TIP3    H234927   0.527   0.628   0.710
11662TIP3   OH234928   2.144   0.152   5.088
11662TIP3    H134929   2.231   0.125   5.058
11662TIP3    H234930   2.097   0.174   5.008
11663TIP3   OH234931   2.313   5.908   0.083
11663TIP3    H134932   2.396   5.862   0.083
11663TIP3    H234933   2.256   5.856   0.026
11664TIP3   OH234934   2.608  -0.010   1.001
11664TIP3    H134935   2.670  -0.062   0.948
11664TIP3    H234936   2.528  -0.009   0.949
11665TIP3   OH234937   2.610   1.365   4.832
11665TIP3    H134938   2.532   1.360   4.777
11665TIP3    H234939   2.579   1.402   4.914
11666TIP3   OH234940   3.174   2.777   6.747
11666TIP3    H134941   3.175   2.802   6.839
11666TIP3    H234942   3.198   2.684   6.747
11667TIP3   OH234943   5.546   1.967   2.985
11667TIP3    H134944   5.591   1.936   3.064
11667TIP3    H234945   5.613   2.014   2.936
11668TIP3   OH234946   0.542   2.884   0.144
11668TIP3    H134947   0.612   2.894   0.080
11668TIP3    H234948   0.555   2.956   0.206
11669TIP3   OH234949   5.488   3.025   6.609
11669TIP3    H134950   5.481   2.949   6.666
11669TIP3    H234951   5.398   3.044   6.583
11670TIP3   OH234952   2.967   2.789   0.811
11670TIP3    H134953   2.974   2.695   0.824
11670TIP3    H234954   3.002   2.804   0.723
11671TIP3   OH234955   5.206   7.139   5.719
11671TIP3    H134956   5.188   7.091   5.638
11671TIP3    H234957   5.257   7.078   5.772
11672TIP3   OH234958   4.206   5.322   3.921
11672TIP3    H134959   4.121   5.300   3.959
11672TIP3    H234960   4.226   5.409   3.957
11673TIP3   OH234961   0.719   3.244   2.045
11673TIP3    H134962   0.812   3.221   2.045
11673TIP3    H234963   0.710   3.308   2.116
11674TIP3   OH234964   4.350   2.236   2.080
11674TIP3    H134965   4.328   2.277   1.997
11674TIP3    H234966   4.383   2.307   2.135
11675TIP3   OH234967   2.615   0.444   4.491
11675TIP3    H134968   2.603   0.515   4.554
11675TIP3    H234969   2.707   0.452   4.463
11676TIP3   OH234970   0.817   1.047   0.867
11676TIP3    H134971   0.910   1.045   0.842
11676TIP3    H234972   0.789   0.956   0.859
11677TIP3   OH234973   6.791   3.667   4.469
11677TIP3    H134974   6.855   3.739   4.468
11677TIP3    H234975   6.753   3.667   4.381
11678TIP3   OH234976   8.189   1.492   6.477
11678TIP3    H134977   8.199   1.583   6.450
11678TIP3    H234978   8.134   1.495   6.555
11679TIP3   OH234979   8.308   2.152   3.302
11679TIP3    H134980   8.336   2.086   3.365
11679TIP3    H234981   8.241   2.108   3.249
11680TIP3   OH234982   0.918   1.365   4.524
11680TIP3    H134983   0.910   1.381   4.430
11680TIP3    H234984   0.942   1.273   4.531
11681TIP3   OH234985   6.203   4.024   1.803
11681TIP3    H134986   6.181   3.933   1.824
11681TIP3    H234987   6.216   4.024   1.708
11682TIP3   OH234988   6.138   6.588   6.072
11682TIP3    H134989   6.114   6.584   6.164
11682TIP3    H234990   6.234   6.583   6.072
11683TIP3   OH234991   7.414   3.848   5.675
11683TIP3    H134992   7.499   3.831   5.633
11683TIP3    H234993   7.417   3.941   5.698
11684TIP3   OH234994   0.435   4.578   4.177
11684TIP3    H134995   0.386   4.592   4.096
11684TIP3    H234996   0.448   4.483   4.181
11685TIP3   OH234997   7.033   3.130   6.315
11685TIP3    H134998   6.959   3.077   6.345
11685TIP3    H234999   7.110   3.079   6.339
11686TIP3   OH235000   0.765   2.049   0.319
11686TIP3    H135001   0.854   2.015   0.311
11686TIP3    H235002   0.719   2.013   0.243
11687TIP3   OH235003   1.752   2.054   1.666
11687TIP3    H135004   1.780   2.139   1.633
11687TIP3    H235005   1.809   1.991   1.622
11688TIP3   OH235006   1.855   5.545   2.782
11688TIP3    H135007   1.783   5.527   2.842
11688TIP3    H235008   1.846   5.637   2.760
11689TIP3   OH235009   1.147   4.412   4.384
11689TIP3    H135010   1.196   4.492   4.364
11689TIP3    H235011   1.155   4.358   4.305
11690TIP3   OH235012   3.097   3.871   4.874
11690TIP3    H135013   3.101   3.961   4.841
11690TIP3    H235014   3.077   3.882   4.968
11691TIP3   OH235015   3.131   6.033   1.841
11691TIP3    H135016   3.124   5.975   1.765
11691TIP3    H235017   3.040   6.056   1.861
11692TIP3   OH235018   7.489   4.953   3.513
11692TIP3    H135019   7.396   4.933   3.521
11692TIP3    H235020   7.517   4.908   3.434
11693TIP3   OH235021   5.686   4.974   1.736
11693TIP3    H135022   5.780   4.985   1.750
11693TIP3    H235023   5.646   4.989   1.821
11694TIP3   OH235024   2.084   0.175   0.986
11694TIP3    H135025   2.104   0.084   0.967
11694TIP3    H235026   2.033   0.205   0.910
11695TIP3   OH235027   1.774   0.280   5.490
11695TIP3    H135028   1.819   0.223   5.552
11695TIP3    H235029   1.818   0.265   5.407
11696TIP3   OH235030   5.258   0.078   5.457
11696TIP3    H135031   5.304  -0.003   5.478
11696TIP3    H235032   5.231   0.068   5.366
11697TIP3   OH235033   1.226   3.564   0.262
11697TIP3    H135034   1.249   3.558   0.169
11697TIP3    H235035   1.147   3.618   0.263
11698TIP3   OH235036   7.421   6.924   0.309
11698TIP3    H135037   7.403   6.850   0.367
11698TIP3    H235038   7.508   6.906   0.272
11699TIP3   OH235039   0.025   7.096   1.848
11699TIP3    H135040   0.023   7.083   1.753
11699TIP3    H235041  -0.056   7.056   1.880
11700TIP3   OH235042   6.585   6.677   4.485
11700TIP3    H135043   6.513   6.618   4.464
11700TIP3    H235044   6.556   6.723   4.564
11701TIP3   OH235045   1.636   0.301   2.140
11701TIP3    H135046   1.570   0.370   2.143
11701TIP3    H235047   1.599   0.235   2.081
11702TIP3   OH235048   3.104   6.135   4.975
11702TIP3    H135049   3.155   6.075   5.029
11702TIP3    H235050   3.107   6.097   4.888
11703TIP3   OH235051   6.076   0.526   3.524
11703TIP3    H135052   6.063   0.615   3.558
11703TIP3    H235053   6.163   0.501   3.556
11704TIP3   OH235054   0.742   6.578   3.436
11704TIP3    H135055   0.791   6.610   3.360
11704TIP3    H235056   0.804   6.521   3.482
11705TIP3   OH235057   7.366   5.408   2.562
11705TIP3    H135058   7.450   5.429   2.521
11705TIP3    H235059   7.389   5.352   2.636
11706TIP3   OH235060   0.771   7.507   0.930
11706TIP3    H135061   0.821   7.576   0.974
11706TIP3    H235062   0.693   7.552   0.897
11707TIP3   OH235063   5.344   1.734   2.963
11707TIP3    H135064   5.365   1.642   2.945
11707TIP3    H235065   5.303   1.732   3.050
11708TIP3   OH235066   6.048   0.921   2.963
11708TIP3    H135067   6.051   1.002   3.014
11708TIP3    H235068   5.965   0.881   2.986
11709TIP3   OH235069   4.421   1.577   6.393
11709TIP3    H135070   4.461   1.660   6.420
11709TIP3    H235071   4.372   1.548   6.470
11710TIP3   OH235072   0.111   5.198   5.295
11710TIP3    H135073   0.161   5.193   5.377
11710TIP3    H235074   0.178   5.202   5.227
11711TIP3   OH235075   6.606   3.145   3.611
11711TIP3    H135076   6.511   3.153   3.621
11711TIP3    H235077   6.632   3.083   3.680
11712TIP3   OH235078   3.477   5.210   6.537
11712TIP3    H135079   3.541   5.146   6.571
11712TIP3    H235080   3.530   5.286   6.513
11713TIP3   OH235081   7.396   6.120   2.987
11713TIP3    H135082   7.387   6.038   3.035
11713TIP3    H235083   7.320   6.172   3.015
11714TIP3   OH235084   6.499   0.263   1.120
11714TIP3    H135085   6.526   0.308   1.200
11714TIP3    H235086   6.473   0.176   1.149
11715TIP3   OH235087   4.305   1.881   4.507
11715TIP3    H135088   4.217   1.853   4.483
11715TIP3    H235089   4.345   1.804   4.548
11716TIP3   OH235090   2.491   6.943   0.353
11716TIP3    H135091   2.525   7.032   0.363
11716TIP3    H235092   2.438   6.947   0.273
11717TIP3   OH235093   1.812   5.105   6.481
11717TIP3    H135094   1.731   5.078   6.438
11717TIP3    H235095   1.817   5.051   6.560
11718TIP3   OH235096   4.991   1.447   0.311
11718TIP3    H135097   5.042   1.450   0.392
11718TIP3    H235098   4.901   1.434   0.341
11719TIP3   OH235099   1.620   2.186   3.303
11719TIP3    H135100   1.700   2.151   3.344
11719TIP3    H235101   1.552   2.125   3.331
11720TIP3   OH235102   3.874   4.136   3.872
11720TIP3    H135103   3.868   4.040   3.881
11720TIP3    H235104   3.947   4.160   3.930
11721TIP3   OH235105   1.054   7.110   6.381
11721TIP3    H135106   1.114   7.168   6.428
11721TIP3    H235107   1.088   7.107   6.292
11722TIP3   OH235108   6.411   5.531   5.976
11722TIP3    H135109   6.368   5.446   5.972
11722TIP3    H235110   6.502   5.514   5.951
11723TIP3   OH235111   4.845   4.739   6.522
11723TIP3    H135112   4.776   4.674   6.508
11723TIP3    H235113   4.833   4.765   6.614
11724TIP3   OH235114   3.014   5.550   3.148
11724TIP3    H135115   2.976   5.469   3.184
11724TIP3    H235116   2.942   5.592   3.102
11725TIP3   OH235117   1.799   5.053   2.556
11725TIP3    H135118   1.869   5.042   2.620
11725TIP3    H235119   1.719   5.038   2.606
11726TIP3   OH235120   3.048   0.678   0.868
11726TIP3    H135121   3.091   0.646   0.789
11726TIP3    H235122   2.971   0.621   0.879
11727TIP3   OH235123   5.424   6.411   3.400
11727TIP3    H135124   5.514   6.422   3.370
11727TIP3    H235125   5.387   6.499   3.400
11728TIP3   OH235126   5.618   5.932   4.959
11728TIP3    H135127   5.659   6.009   4.998
11728TIP3    H235128   5.692   5.878   4.931
11729TIP3   OH235129   2.818   7.437   0.123
11729TIP3    H135130   2.786   7.516   0.080
11729TIP3    H235131   2.896   7.465   0.170
11730TIP3   OH235132   7.032   3.105   0.199
11730TIP3    H135133   7.078   3.189   0.189
11730TIP3    H235134   6.965   3.107   0.131
11731TIP3   OH235135   7.270   5.515   6.112
11731TIP3    H135136   7.183   5.551   6.130
11731TIP3    H235137   7.318   5.526   6.193
11732TIP3   OH235138   8.175   1.592   2.645
11732TIP3    H135139   8.116   1.531   2.690
11732TIP3    H235140   8.214   1.540   2.574
11733TIP3   OH235141   3.821   2.531   4.409
11733TIP3    H135142   3.803   2.612   4.458
11733TIP3    H235143   3.783   2.462   4.464
11734TIP3   OH235144   3.490   6.240   4.078
11734TIP3    H135145   3.491   6.279   4.166
11734TIP3    H235146   3.471   6.147   4.094
11735TIP3   OH235147   3.533   4.100   4.664
11735TIP3    H135148   3.615   4.066   4.697
11735TIP3    H235149   3.531   4.191   4.693
11736TIP3   OH235150   3.612   0.769   2.370
11736TIP3    H135151   3.574   0.780   2.283
11736TIP3    H235152   3.671   0.694   2.360
11737TIP3   OH235153   4.199   3.456   6.666
11737TIP3    H135154   4.152   3.539   6.656
11737TIP3    H235155   4.142   3.391   6.626
11738TIP3   OH235156   2.428   4.547   5.620
11738TIP3    H135157   2.344   4.583   5.593
11738TIP3    H235158   2.490   4.618   5.607
11739TIP3   OH235159   7.820   7.748   2.934
11739TIP3    H135160   7.788   7.676   2.988
11739TIP3    H235161   7.907   7.721   2.905
11740TIP3   OH235162   2.380   5.733   3.933
11740TIP3    H135163   2.401   5.643   3.907
11740TIP3    H235164   2.406   5.786   3.858
11741TIP3   OH235165   6.393   1.092   4.899
11741TIP3    H135166   6.483   1.097   4.866
11741TIP3    H235167   6.403   1.073   4.992
11742TIP3   OH235168   1.004   3.435   3.646
11742TIP3    H135169   0.910   3.442   3.635
11742TIP3    H235170   1.016   3.356   3.699
11743TIP3   OH235171   3.348   2.293   3.227
11743TIP3    H135172   3.285   2.294   3.154
11743TIP3    H235173   3.294   2.281   3.305
11744TIP3   OH235174   6.598   4.409   3.917
11744TIP3    H135175   6.588   4.315   3.901
11744TIP3    H235176   6.693   4.423   3.920
11745TIP3   OH235177   2.094   6.210   5.466
11745TIP3    H135178   2.105   6.160   5.385
11745TIP3    H235179   2.004   6.190   5.494
11746TIP3   OH235180   4.252   5.027   1.419
11746TIP3    H135181   4.240   5.066   1.333
11746TIP3    H235182   4.281   5.100   1.474
11747TIP3   OH235183   0.273   7.363   5.528
11747TIP3    H135184   0.325   7.437   5.558
11747TIP3    H235185   0.264   7.376   5.434
11748TIP3   OH235186   6.754   6.975   0.731
11748TIP3    H135187   6.846   6.950   0.737
11748TIP3    H235188   6.708   6.893   0.711
11749TIP3   OH235189   6.854   4.212   5.352
11749TIP3    H135190   6.812   4.292   5.321
11749TIP3    H235191   6.844   4.151   5.279
11750TIP3   OH235192   5.489   4.420   1.779
11750TIP3    H135193   5.575   4.460   1.783
11750TIP3    H235194   5.476   4.400   1.686
11751TIP3   OH235195   7.783   7.302   2.256
11751TIP3    H135196   7.759   7.253   2.335
11751TIP3    H235197   7.772   7.394   2.281
11752TIP3   OH235198   2.997   6.986   4.975
11752TIP3    H135199   3.025   7.047   4.907
11752TIP3    H235200   3.016   6.899   4.940
11753TIP3   OH235201   5.160   3.938   1.082
11753TIP3    H135202   5.222   3.966   1.014
11753TIP3    H235203   5.090   3.893   1.034
11754TIP3   OH235204   0.843   3.637   1.083
11754TIP3    H135205   0.929   3.627   1.043
11754TIP3    H235206   0.857   3.700   1.154
11755TIP3   OH235207   6.474   2.015   2.970
11755TIP3    H135208   6.547   2.059   2.925
11755TIP3    H235209   6.506   2.003   3.060
11756TIP3   OH235210   0.415   7.306   4.838
11756TIP3    H135211   0.351   7.373   4.815
11756TIP3    H235212   0.363   7.228   4.857
11757TIP3   OH235213   0.210   0.794   5.450
11757TIP3    H135214   0.262   0.834   5.519
11757TIP3    H235215   0.130   0.764   5.494
11758TIP3   OH235216   6.791   4.631   5.838
11758TIP3    H135217   6.859   4.613   5.773
11758TIP3    H235218   6.710   4.604   5.796
11759TIP3   OH235219   0.049   4.000   1.583
11759TIP3    H135220   0.141   4.019   1.565
11759TIP3    H235221   0.029   4.053   1.660
11760TIP3   OH235222   2.269   7.675   3.730
11760TIP3    H135223   2.258   7.588   3.766
11760TIP3    H235224   2.326   7.720   3.793
11761TIP3   OH235225   4.661   4.037   6.617
11761TIP3    H135226   4.699   4.049   6.704
11761TIP3    H235227   4.584   3.982   6.632
11762TIP3   OH235228   2.375   4.129   4.090
11762TIP3    H135229   2.316   4.202   4.073
11762TIP3    H235230   2.357   4.104   4.181
11763TIP3   OH235231   5.982   2.958   4.784
11763TIP3    H135232   5.964   3.047   4.751
11763TIP3    H235233   6.058   2.969   4.841
11764TIP3   OH235234   7.336   5.535   0.751
11764TIP3    H135235   7.362   5.443   0.740
11764TIP3    H235236   7.241   5.535   0.740
11765TIP3   OH235237   1.574   7.400   2.351
11765TIP3    H135238   1.605   7.360   2.270
11765TIP3    H235239   1.482   7.373   2.357
11766TIP3   OH235240   0.376   1.201   0.627
11766TIP3    H135241   0.369   1.221   0.534
11766TIP3    H235242   0.324   1.269   0.670
11767TIP3   OH235243   6.950   7.479   2.159
11767TIP3    H135244   6.941   7.475   2.064
11767TIP3    H235245   6.964   7.572   2.179
11768TIP3   OH235246   0.839   4.656   5.634
11768TIP3    H135247   0.902   4.662   5.706
11768TIP3    H235248   0.757   4.632   5.677
11769TIP3   OH235249   2.689   2.654   2.622
11769TIP3    H135250   2.720   2.704   2.697
11769TIP3    H235251   2.595   2.674   2.617
11770TIP3   OH235252   5.485   0.239   1.544
11770TIP3    H135253   5.580   0.222   1.550
11770TIP3    H235254   5.465   0.287   1.624
11771TIP3   OH235255   1.799   6.501   5.641
11771TIP3    H135256   1.806   6.413   5.678
11771TIP3    H235257   1.889   6.523   5.616
11772TIP3   OH235258   1.823   3.894   0.174
11772TIP3    H135259   1.869   3.941   0.104
11772TIP3    H235260   1.758   3.840   0.128
11773TIP3   OH235261   5.745   1.521   5.508
11773TIP3    H135262   5.684   1.466   5.558
11773TIP3    H235263   5.747   1.482   5.421
11774TIP3   OH235264   6.082   4.644   4.508
11774TIP3    H135265   6.032   4.655   4.588
11774TIP3    H235266   6.025   4.594   4.450
11775TIP3   OH235267   1.252   6.870   3.693
11775TIP3    H135268   1.239   6.957   3.731
11775TIP3    H235269   1.163   6.839   3.673
11776TIP3   OH235270   7.005   6.834   0.851
11776TIP3    H135271   7.055   6.753   0.840
11776TIP3    H235272   6.915   6.805   0.864
11777TIP3   OH235273   1.430   1.732   0.160
11777TIP3    H135274   1.456   1.697   0.245
11777TIP3    H235275   1.334   1.729   0.162
11778TIP3   OH235276   0.064   1.860   6.397
11778TIP3    H135277   0.112   1.925   6.446
11778TIP3    H235278  -0.024   1.861   6.435
11779TIP3   OH235279   0.832   4.788   5.158
11779TIP3    H135280   0.879   4.868   5.183
11779TIP3    H235281   0.803   4.804   5.069
11780TIP3   OH235282   7.302   3.033   0.312
11780TIP3    H135283   7.384   3.040   0.263
11780TIP3    H235284   7.267   2.948   0.289
11781TIP3   OH235285   6.765   6.892   1.390
11781TIP3    H135286   6.821   6.823   1.424
11781TIP3    H235287   6.694   6.899   1.454
11782TIP3   OH235288   8.233   2.168   4.666
11782TIP3    H135289   8.219   2.160   4.761
11782TIP3    H235290   8.145   2.166   4.629
11783TIP3   OH235291   0.801   1.215   1.764
11783TIP3    H135292   0.710   1.243   1.777
11783TIP3    H235293   0.811   1.208   1.669
11784TIP3   OH235294   4.672   3.061   0.971
11784TIP3    H135295   4.729   3.026   1.039
11784TIP3    H235296   4.609   3.115   1.019
11785TIP3   OH235297   1.801   4.357   4.290
11785TIP3    H135298   1.842   4.436   4.326
11785TIP3    H235299   1.771   4.309   4.367
11786TIP3   OH235300   0.464   3.743   6.396
11786TIP3    H135301   0.431   3.657   6.421
11786TIP3    H235302   0.395   3.779   6.339
11787TIP3   OH235303   2.590   0.520   2.634
11787TIP3    H135304   2.642   0.539   2.556
11787TIP3    H235305   2.536   0.597   2.647
11788TIP3   OH235306   3.244   3.385   3.483
11788TIP3    H135307   3.296   3.385   3.564
11788TIP3    H235308   3.246   3.477   3.454
11789TIP3   OH235309   7.634   5.689   6.554
11789TIP3    H135310   7.549   5.732   6.569
11789TIP3    H235311   7.623   5.601   6.589
11790TIP3   OH235312   8.044   4.306   2.457
11790TIP3    H135313   7.969   4.356   2.491
11790TIP3    H235314   8.059   4.237   2.522
11791TIP3   OH235315   2.079   5.513   0.978
11791TIP3    H135316   2.082   5.606   1.002
11791TIP3    H235317   2.116   5.510   0.890
11792TIP3   OH235318   5.215   1.646   2.507
11792TIP3    H135319   5.223   1.566   2.559
11792TIP3    H235320   5.134   1.634   2.457
11793TIP3   OH235321   1.551   1.295   2.322
11793TIP3    H135322   1.584   1.383   2.304
11793TIP3    H235323   1.487   1.309   2.392
11794TIP3   OH235324   2.958   4.996   3.785
11794TIP3    H135325   2.904   5.007   3.707
11794TIP3    H235326   3.038   5.044   3.766
11795TIP3   OH235327   6.087   7.244   4.390
11795TIP3    H135328   6.038   7.248   4.473
11795TIP3    H235329   6.055   7.319   4.340
11796TIP3   OH235330   7.970   4.102   2.935
11796TIP3    H135331   7.949   4.020   2.981
11796TIP3    H235332   8.064   4.096   2.918
11797TIP3   OH235333   6.651   7.682   0.381
11797TIP3    H135334   6.586   7.641   0.438
11797TIP3    H235335   6.718   7.614   0.368
11798TIP3   OH235336   0.163   6.856   0.201
11798TIP3    H135337   0.226   6.906   0.150
11798TIP3    H235338   0.113   6.922   0.249
11799TIP3   OH235339   7.312   2.483   4.036
11799TIP3    H135340   7.345   2.541   4.104
11799TIP3    H235341   7.385   2.424   4.018
11800TIP3   OH235342   4.211   3.814   6.127
11800TIP3    H135343   4.134   3.818   6.071
11800TIP3    H235344   4.279   3.773   6.073
11801TIP3   OH235345   0.249   0.029   2.925
11801TIP3    H135346   0.243  -0.051   2.977
11801TIP3    H235347   0.332   0.020   2.878
11802TIP3   OH235348   7.998   3.740   6.217
11802TIP3    H135349   7.970   3.653   6.247
11802TIP3    H235350   7.919   3.780   6.182
11803TIP3   OH235351   6.654   1.718   1.919
11803TIP3    H135352   6.617   1.733   1.832
11803TIP3    H235353   6.592   1.658   1.962
11804TIP3   OH235354   6.741   7.111   4.403
11804TIP3    H135355   6.684   7.146   4.334
11804TIP3    H235356   6.681   7.084   4.472
11805TIP3   OH235357   6.438   6.235   4.239
11805TIP3    H135358   6.378   6.177   4.191
11805TIP3    H235359   6.494   6.272   4.170
11806TIP3   OH235360   7.546   3.254   1.505
11806TIP3    H135361   7.593   3.173   1.521
11806TIP3    H235362   7.605   3.323   1.537
11807TIP3   OH235363   5.627   5.093   3.496
11807TIP3    H135364   5.664   5.180   3.514
11807TIP3    H235365   5.534   5.109   3.481
11808TIP3   OH235366   7.292   2.100   6.266
11808TIP3    H135367   7.202   2.104   6.299
11808TIP3    H235368   7.301   2.010   6.234
11809TIP3   OH235369   7.131   1.854   3.843
11809TIP3    H135370   7.175   1.769   3.842
11809TIP3    H235371   7.161   1.895   3.924
11810TIP3   OH235372   7.600   7.723   0.893
11810TIP3    H135373   7.655   7.677   0.830
11810TIP3    H235374   7.628   7.689   0.978
11811TIP3   OH235375   6.396   6.730   0.930
11811TIP3    H135376   6.464   6.792   0.902
11811TIP3    H235377   6.360   6.769   1.010
11812TIP3   OH235378   1.266   7.063   2.538
11812TIP3    H135379   1.198   7.082   2.472
11812TIP3    H235380   1.218   7.025   2.611
11813TIP3   OH235381   4.704   5.401   6.771
11813TIP3    H135382   4.685   5.487   6.808
11813TIP3    H235383   4.715   5.417   6.677
11814TIP3   OH235384   6.866   6.277   4.393
11814TIP3    H135385   6.805   6.232   4.334
11814TIP3    H235386   6.817   6.290   4.474
11815TIP3   OH235387   6.272   6.564   1.174
11815TIP3    H135388   6.349   6.514   1.146
11815TIP3    H235389   6.219   6.574   1.095
11816TIP3   OH235390   3.730   6.121   1.945
11816TIP3    H135391   3.767   6.070   1.873
11816TIP3    H235392   3.731   6.061   2.019
11817TIP3   OH235393   1.977   5.911   3.513
11817TIP3    H135394   2.047   5.957   3.561
11817TIP3    H235395   1.914   5.887   3.581
11818TIP3   OH235396   5.153   0.620   3.430
11818TIP3    H135397   5.134   0.532   3.463
11818TIP3    H235398   5.245   0.616   3.404
11819TIP3   OH235399   1.183   6.995   1.450
11819TIP3    H135400   1.221   6.907   1.447
11819TIP3    H235401   1.091   6.983   1.429
11820TIP3   OH235402   7.601   6.429   5.160
11820TIP3    H135403   7.514   6.460   5.182
11820TIP3    H235404   7.658   6.505   5.172
11821TIP3   OH235405   7.564   6.271   0.934
11821TIP3    H135406   7.471   6.283   0.949
11821TIP3    H235407   7.576   6.176   0.932
11822TIP3   OH235408   7.734   2.569   0.855
11822TIP3    H135409   7.641   2.551   0.866
11822TIP3    H235410   7.777   2.511   0.917
11823TIP3   OH235411   1.478   4.333   5.346
11823TIP3    H135412   1.495   4.427   5.357
11823TIP3    H235413   1.469   4.322   5.251
11824TIP3   OH235414   0.711   2.786   4.604
11824TIP3    H135415   0.728   2.826   4.688
11824TIP3    H235416   0.650   2.846   4.560
11825TIP3   OH235417   0.653   2.534   1.061
11825TIP3    H135418   0.718   2.589   1.017
11825TIP3    H235419   0.700   2.497   1.136
11826TIP3   OH235420   3.203   2.859   1.250
11826TIP3    H135421   3.296   2.865   1.273
11826TIP3    H235422   3.190   2.932   1.188
11827TIP3   OH235423   7.092   4.417   5.510
11827TIP3    H135424   7.156   4.349   5.487
11827TIP3    H235425   7.064   4.394   5.599
11828TIP3   OH235426   0.751   6.348   4.750
11828TIP3    H135427   0.795   6.371   4.668
11828TIP3    H235428   0.676   6.407   4.754
11829TIP3   OH235429   6.491   7.317   6.064
11829TIP3    H135430   6.468   7.225   6.078
11829TIP3    H235431   6.438   7.343   5.989
11830TIP3   OH235432   0.286   2.323   0.664
11830TIP3    H135433   0.338   2.394   0.703
11830TIP3    H235434   0.242   2.282   0.738
11831TIP3   OH235435   1.990   6.224   2.206
11831TIP3    H135436   2.073   6.210   2.251
11831TIP3    H235437   1.964   6.136   2.177
11832TIP3   OH235438   3.298   4.135   1.451
11832TIP3    H135439   3.336   4.124   1.538
11832TIP3    H235440   3.333   4.219   1.420
11833TIP3   OH235441   6.455   5.980   1.661
11833TIP3    H135442   6.539   5.982   1.706
11833TIP3    H235443   6.454   6.058   1.606
11834TIP3   OH235444   7.741   3.878   5.265
11834TIP3    H135445   7.691   3.960   5.273
11834TIP3    H235446   7.766   3.874   5.173
11835TIP3   OH235447   1.063   1.603   4.534
11835TIP3    H135448   1.013   1.522   4.537
11835TIP3    H235449   1.060   1.630   4.442
11836TIP3   OH235450   0.817   7.301   1.384
11836TIP3    H135451   0.856   7.233   1.328
11836TIP3    H235452   0.734   7.321   1.342
11837TIP3   OH235453   5.747   6.012   3.760
11837TIP3    H135454   5.737   6.037   3.668
11837TIP3    H235455   5.813   6.071   3.794
11838TIP3   OH235456   2.346   1.394   5.862
11838TIP3    H135457   2.359   1.393   5.957
11838TIP3    H235458   2.434   1.404   5.826
11839TIP3   OH235459   5.139   5.025   1.826
11839TIP3    H135460   5.084   5.099   1.800
11839TIP3    H235461   5.198   5.061   1.892
11840TIP3   OH235462   5.486   6.075   5.951
11840TIP3    H135463   5.482   6.026   6.033
11840TIP3    H235464   5.424   6.147   5.963
11841TIP3   OH235465   7.444   1.920   3.762
11841TIP3    H135466   7.462   1.909   3.669
11841TIP3    H235467   7.379   1.853   3.782
11842TIP3   OH235468   4.319   1.873   1.496
11842TIP3    H135469   4.287   1.936   1.431
11842TIP3    H235470   4.261   1.798   1.486
11843TIP3   OH235471   1.795   7.497   4.308
11843TIP3    H135472   1.724   7.526   4.250
11843TIP3    H235473   1.875   7.520   4.262
11844TIP3   OH235474   5.892   3.598   2.875
11844TIP3    H135475   5.902   3.590   2.970
11844TIP3    H235476   5.980   3.622   2.844
11845TIP3   OH235477   3.210   4.385   1.116
11845TIP3    H135478   3.211   4.421   1.027
11845TIP3    H235479   3.126   4.411   1.152
11846TIP3   OH235480   4.737   5.651   4.053
11846TIP3    H135481   4.801   5.584   4.032
11846TIP3    H235482   4.759   5.678   4.142
11847TIP3   OH235483   6.679   2.994   1.124
11847TIP3    H135484   6.733   2.987   1.202
11847TIP3    H235485   6.693   3.084   1.094
11848TIP3   OH235486   5.194   3.965   3.298
11848TIP3    H135487   5.273   3.943   3.349
11848TIP3    H235488   5.122   3.947   3.358
11849TIP3   OH235489   3.489   0.169   0.497
11849TIP3    H135490   3.484   0.265   0.499
11849TIP3    H235491   3.546   0.146   0.570
11850TIP3   OH235492   6.069   1.730   0.564
11850TIP3    H135493   6.071   1.818   0.604
11850TIP3    H235494   6.150   1.724   0.515
11851TIP3   OH235495   3.691   0.946   6.376
11851TIP3    H135496   3.645   0.880   6.428
11851TIP3    H235497   3.638   1.025   6.384
11852TIP3   OH235498   3.508   1.337   1.925
11852TIP3    H135499   3.562   1.404   1.966
11852TIP3    H235500   3.529   1.342   1.831
11853TIP3   OH235501   2.581   4.076   3.290
11853TIP3    H135502   2.507   4.082   3.350
11853TIP3    H235503   2.655   4.050   3.345
11854TIP3   OH235504   1.607   2.077   1.281
11854TIP3    H135505   1.564   2.022   1.215
11854TIP3    H235506   1.587   2.035   1.364
11855TIP3   OH235507   1.112   5.104   0.641
11855TIP3    H135508   1.063   5.049   0.701
11855TIP3    H235509   1.091   5.194   0.668
11856TIP3   OH235510   2.468   2.774   4.943
11856TIP3    H135511   2.530   2.824   4.891
11856TIP3    H235512   2.516   2.753   5.023
11857TIP3   OH235513   7.828   4.301   0.174
11857TIP3    H135514   7.756   4.355   0.140
11857TIP3    H235515   7.789   4.252   0.247
11858TIP3   OH235516   2.073   5.024   0.647
11858TIP3    H135517   2.102   4.938   0.618
11858TIP3    H235518   2.002   5.047   0.586
11859TIP3   OH235519   3.959   6.752   1.952
11859TIP3    H135520   3.878   6.737   1.903
11859TIP3    H235521   4.029   6.737   1.888
11860TIP3   OH235522   6.837   4.261   0.430
11860TIP3    H135523   6.897   4.332   0.452
11860TIP3    H235524   6.767   4.267   0.494
11861TIP3   OH235525   5.917   5.454   1.975
11861TIP3    H135526   5.978   5.381   1.990
11861TIP3    H235527   5.907   5.495   2.060
11862TIP3   OH235528   2.294   4.316   0.989
11862TIP3    H135529   2.361   4.382   0.972
11862TIP3    H235530   2.212   4.366   0.991
11863TIP3   OH235531   0.509   7.602   1.205
11863TIP3    H135532   0.505   7.507   1.198
11863TIP3    H235533   0.594   7.620   1.245
11864TIP3   OH235534   8.274   3.321   1.924
11864TIP3    H135535   8.362   3.304   1.957
11864TIP3    H235536   8.282   3.400   1.871
11865TIP3   OH235537   4.141   1.970   4.948
11865TIP3    H135538   4.101   1.903   5.003
11865TIP3    H235539   4.230   1.938   4.932
11866TIP3   OH235540   0.987   2.886   6.275
11866TIP3    H135541   0.918   2.952   6.276
11866TIP3    H235542   1.068   2.936   6.264
11867TIP3   OH235543   4.309   7.095   6.073
11867TIP3    H135544   4.280   7.113   5.983
11867TIP3    H235545   4.352   7.010   6.068
11868TIP3   OH235546   6.040   6.947   4.769
11868TIP3    H135547   6.093   6.902   4.835
11868TIP3    H235548   5.981   6.880   4.736
11869TIP3   OH235549   2.818   2.184   4.307
11869TIP3    H135550   2.816   2.176   4.212
11869TIP3    H235551   2.904   2.221   4.326
11870TIP3   OH235552   3.370   5.177   1.144
11870TIP3    H135553   3.356   5.270   1.126
11870TIP3    H235554   3.341   5.133   1.064
11871TIP3   OH235555   4.791   0.234   4.990
11871TIP3    H135556   4.730   0.296   4.949
11871TIP3    H235557   4.794   0.159   4.930
11872TIP3   OH235558   0.306   5.677   6.676
11872TIP3    H135559   0.363   5.642   6.607
11872TIP3    H235560   0.272   5.758   6.640
11873TIP3   OH235561   1.565   6.882   3.439
11873TIP3    H135562   1.502   6.838   3.382
11873TIP3    H235563   1.548   6.975   3.426
11874TIP3   OH235564   4.897   4.675   5.643
11874TIP3    H135565   4.980   4.720   5.661
11874TIP3    H235566   4.834   4.719   5.700
11875TIP3   OH235567   1.931   2.774   4.922
11875TIP3    H135568   1.991   2.760   4.849
11875TIP3    H235569   1.962   2.714   4.990
11876TIP3   OH235570   7.647   6.093   5.294
11876TIP3    H135571   7.565   6.078   5.247
11876TIP3    H235572   7.632   6.172   5.345
11877TIP3   OH235573   2.758   2.457   6.011
11877TIP3    H135574   2.689   2.399   6.043
11877TIP3    H235575   2.733   2.544   6.043
11878TIP3   OH235576   8.056   4.243   3.618
11878TIP3    H135577   8.099   4.264   3.535
11878TIP3    H235578   8.062   4.148   3.625
11879TIP3   OH235579   4.127   1.276   5.005
11879TIP3    H135580   4.183   1.300   4.932
11879TIP3    H235581   4.137   1.181   5.012
11880TIP3   OH235582   7.022   1.424   0.618
11880TIP3    H135583   7.070   1.421   0.535
11880TIP3    H235584   7.000   1.517   0.630
11881TIP3   OH235585   4.993   2.010   3.376
11881TIP3    H135586   4.928   2.070   3.340
11881TIP3    H235587   4.995   1.937   3.314
11882TIP3   OH235588   7.669   0.832   2.421
11882TIP3    H135589   7.719   0.866   2.347
11882TIP3    H235590   7.586   0.879   2.418
11883TIP3   OH235591   7.501   5.753   2.190
11883TIP3    H135592   7.578   5.748   2.247
11883TIP3    H235593   7.427   5.745   2.250
11884TIP3   OH235594   1.873   7.787   0.859
11884TIP3    H135595   1.894   7.699   0.827
11884TIP3    H235596   1.956   7.835   0.851
11885TIP3   OH235597   5.212   5.348   2.750
11885TIP3    H135598   5.229   5.368   2.658
11885TIP3    H235599   5.121   5.318   2.752
11886TIP3   OH235600   5.548   3.200   4.449
11886TIP3    H135601   5.534   3.128   4.511
11886TIP3    H235602   5.479   3.188   4.384
11887TIP3   OH235603   4.445   4.898   3.947
11887TIP3    H135604   4.440   4.986   3.909
11887TIP3    H235605   4.354   4.872   3.958
11888TIP3   OH235606   3.114   7.167   4.137
11888TIP3    H135607   3.186   7.105   4.151
11888TIP3    H235608   3.153   7.240   4.090
11889TIP3   OH235609   8.084   4.549   5.962
11889TIP3    H135610   7.999   4.547   6.007
11889TIP3    H235611   8.138   4.606   6.016
11890TIP3   OH235612   4.970   4.326   1.581
11890TIP3    H135613   4.879   4.348   1.561
11890TIP3    H235614   4.990   4.375   1.661
11891TIP3   OH235615   5.439   3.491   0.069
11891TIP3    H135616   5.383   3.546   0.016
11891TIP3    H235617   5.409   3.402   0.052
11892TIP3   OH235618   6.085   3.826   3.563
11892TIP3    H135619   6.046   3.913   3.560
11892TIP3    H235620   6.176   3.840   3.536
11893TIP3   OH235621   4.093   7.571   3.381
11893TIP3    H135622   4.033   7.646   3.376
11893TIP3    H235623   4.071   7.529   3.464
11894TIP3   OH235624   1.211   4.827   0.274
11894TIP3    H135625   1.148   4.807   0.205
11894TIP3    H235626   1.179   4.909   0.313
11895TIP3   OH235627   7.875   2.556   2.947
11895TIP3    H135628   7.928   2.526   2.873
11895TIP3    H235629   7.873   2.651   2.937
11896TIP3   OH235630   2.519   5.416   2.147
11896TIP3    H135631   2.444   5.457   2.190
11896TIP3    H235632   2.522   5.327   2.183
11897TIP3   OH235633   6.291   3.673   1.376
11897TIP3    H135634   6.276   3.595   1.429
11897TIP3    H235635   6.385   3.673   1.359
11898TIP3   OH235636   5.937   3.693   4.837
11898TIP3    H135637   5.891   3.777   4.833
11898TIP3    H235638   6.011   3.703   4.778
11899TIP3   OH235639   6.977   0.370   3.925
11899TIP3    H135640   7.028   0.327   3.856
11899TIP3    H235641   6.891   0.384   3.885
11900TIP3   OH235642   6.576   2.385   0.605
11900TIP3    H135643   6.501   2.387   0.544
11900TIP3    H235644   6.537   2.368   0.690
11901TIP3   OH235645   7.090   5.856   2.589
11901TIP3    H135646   7.159   5.794   2.611
11901TIP3    H235647   7.106   5.931   2.646
11902TIP3   OH235648   1.888   7.394   5.200
11902TIP3    H135649   1.921   7.382   5.289
11902TIP3    H235650   1.852   7.309   5.175
11903TIP3   OH235651   7.721   1.466   3.302
11903TIP3    H135652   7.655   1.398   3.310
11903TIP3    H235653   7.719   1.511   3.387
11904TIP3   OH235654   0.746   0.506   3.240
11904TIP3    H135655   0.749   0.422   3.286
11904TIP3    H235656   0.673   0.554   3.280
11905TIP3   OH235657   0.804   6.488   1.090
11905TIP3    H135658   0.887   6.452   1.059
11905TIP3    H235659   0.793   6.451   1.177
11906TIP3   OH235660   2.364   3.419   3.171
11906TIP3    H135661   2.344   3.487   3.235
11906TIP3    H235662   2.288   3.416   3.113
11907TIP3   OH235663   0.005   0.931   0.216
11907TIP3    H135664  -0.037   0.845   0.217
11907TIP3    H235665   0.075   0.924   0.282
11908TIP3   OH235666   4.689   6.513   2.677
11908TIP3    H135667   4.596   6.531   2.662
11908TIP3    H235668   4.700   6.421   2.652
11909TIP3   OH235669   8.093   3.698   0.341
11909TIP3    H135670   8.093   3.604   0.322
11909TIP3    H235671   8.082   3.740   0.256
11910TIP3   OH235672   5.263   1.068   4.333
11910TIP3    H135673   5.247   0.976   4.351
11910TIP3    H235674   5.337   1.092   4.389
11911TIP3   OH235675   3.986   1.337   2.106
11911TIP3    H135676   3.921   1.289   2.054
11911TIP3    H235677   4.030   1.269   2.157
11912TIP3   OH235678   2.090   1.639   6.480
11912TIP3    H135679   2.038   1.563   6.454
11912TIP3    H235680   2.153   1.604   6.543
11913TIP3   OH235681   1.276   6.380   4.222
11913TIP3    H135682   1.228   6.309   4.180
11913TIP3    H235683   1.357   6.388   4.171
11914TIP3   OH235684   0.297   1.958   4.489
11914TIP3    H135685   0.300   2.054   4.485
11914TIP3    H235686   0.384   1.930   4.463
11915TIP3   OH235687   4.271   5.786   4.462
11915TIP3    H135688   4.197   5.839   4.492
11915TIP3    H235689   4.283   5.811   4.371
11916TIP3   OH235690   7.890   1.217   4.612
11916TIP3    H135691   7.926   1.212   4.700
11916TIP3    H235692   7.843   1.135   4.600
11917TIP3   OH235693   2.442   3.777   2.608
11917TIP3    H135694   2.527   3.769   2.652
11917TIP3    H235695   2.452   3.855   2.553
11918TIP3   OH235696   7.713   2.050   4.551
11918TIP3    H135697   7.633   2.099   4.533
11918TIP3    H235698   7.689   1.959   4.533
11919TIP3   OH235699   7.770   2.900   0.035
11919TIP3    H135700   7.715   2.857   0.100
11919TIP3    H235701   7.737   2.869  -0.049
11920TIP3   OH235702   4.141   2.958   1.582
11920TIP3    H135703   4.222   2.995   1.617
11920TIP3    H235704   4.128   2.877   1.630
11921TIP3   OH235705   3.953   2.371   4.037
11921TIP3    H135706   3.987   2.455   4.070
11921TIP3    H235707   4.025   2.335   3.986
11922TIP3   OH235708   2.043   1.525   6.122
11922TIP3    H135709   2.089   1.441   6.124
11922TIP3    H235710   1.984   1.519   6.047
11923TIP3   OH235711   1.227   3.843   2.285
11923TIP3    H135712   1.154   3.896   2.317
11923TIP3    H235713   1.209   3.755   2.318
11924TIP3   OH235714   0.227   2.053   3.466
11924TIP3    H135715   0.288   1.988   3.431
11924TIP3    H235716   0.156   2.001   3.504
11925TIP3   OH235717   6.130   3.703   5.089
11925TIP3    H135718   6.109   3.612   5.110
11925TIP3    H235719   6.185   3.697   5.010
11926TIP3   OH235720   6.957   0.637   0.778
11926TIP3    H135721   6.899   0.676   0.712
11926TIP3    H235722   6.958   0.544   0.757
11927TIP3   OH235723   8.170   0.184   2.665
11927TIP3    H135724   8.263   0.194   2.646
11927TIP3    H235725   8.143   0.107   2.615
11928TIP3   OH235726   7.061   4.268   4.156
11928TIP3    H135727   7.088   4.274   4.064
11928TIP3    H235728   6.995   4.199   4.158
11929TIP3   OH235729   2.763   4.186   3.860
11929TIP3    H135730   2.830   4.135   3.906
11929TIP3    H235731   2.810   4.230   3.790
11930TIP3   OH235732   4.040   1.909   1.420
11930TIP3    H135733   4.022   2.003   1.430
11930TIP3    H235734   4.048   1.877   1.510
11931TIP3   OH235735   7.308   0.119   1.662
11931TIP3    H135736   7.387   0.165   1.689
11931TIP3    H235737   7.248   0.188   1.635
11932TIP3   OH235738   2.110   5.843   6.237
11932TIP3    H135739   2.179   5.803   6.290
11932TIP3    H235740   2.033   5.789   6.254
11933TIP3   OH235741   4.444   0.388   0.500
11933TIP3    H135742   4.447   0.301   0.541
11933TIP3    H235743   4.523   0.393   0.447
11934TIP3   OH235744   4.233   7.440   6.163
11934TIP3    H135745   4.168   7.369   6.170
11934TIP3    H235746   4.258   7.439   6.070
11935TIP3   OH235747   6.704   3.245   0.949
11935TIP3    H135748   6.632   3.229   0.888
11935TIP3    H235749   6.783   3.235   0.896
11936TIP3   OH235750   4.778   5.866   1.357
11936TIP3    H135751   4.747   5.784   1.395
11936TIP3    H235752   4.762   5.858   1.263
11937TIP3   OH235753   0.282   0.410   4.909
11937TIP3    H135754   0.267   0.495   4.951
11937TIP3    H235755   0.287   0.348   4.981
11938TIP3   OH235756   2.432   0.978   4.520
11938TIP3    H135757   2.369   0.997   4.590
11938TIP3    H235758   2.516   1.002   4.557
11939TIP3   OH235759   1.043   2.476   3.659
11939TIP3    H135760   1.033   2.473   3.564
11939TIP3    H235761   0.967   2.525   3.690
11940TIP3   OH235762   6.227   1.657   6.309
11940TIP3    H135763   6.174   1.592   6.262
11940TIP3    H235764   6.314   1.651   6.268
11941TIP3   OH235765   7.693   6.256   1.403
11941TIP3    H135766   7.648   6.266   1.487
11941TIP3    H235767   7.737   6.339   1.389
11942TIP3   OH235768   6.353   2.389   0.426
11942TIP3    H135769   6.298   2.444   0.369
11942TIP3    H235770   6.395   2.328   0.366
11943TIP3   OH235771   0.887   0.093   3.528
11943TIP3    H135772   0.983   0.097   3.533
11943TIP3    H235773   0.866   0.001   3.546
11944TIP3   OH235774   1.855   7.638   1.381
11944TIP3    H135775   1.803   7.569   1.340
11944TIP3    H235776   1.843   7.625   1.475
11945TIP3   OH235777   1.587   3.542   0.139
11945TIP3    H135778   1.548   3.457   0.159
11945TIP3    H235779   1.596   3.542   0.043
11946TIP3   OH235780   1.578   6.546   5.802
11946TIP3    H135781   1.649   6.510   5.748
11946TIP3    H235782   1.622   6.608   5.860
11947TIP3   OH235783   8.041   7.296   2.801
11947TIP3    H135784   8.124   7.337   2.777
11947TIP3    H235785   8.065   7.208   2.831
11948TIP3   OH235786   1.935   2.400   3.756
11948TIP3    H135787   2.009   2.423   3.812
11948TIP3    H235788   1.921   2.479   3.703
11949TIP3   OH235789   0.588   6.996   1.412
11949TIP3    H135790   0.553   6.932   1.474
11949TIP3    H235791   0.611   7.072   1.466
11950TIP3   OH235792   6.535   1.955   0.590
11950TIP3    H135793   6.623   1.939   0.623
11950TIP3    H235794   6.478   1.905   0.649
11951TIP3   OH235795   0.176   2.433   3.485
11951TIP3    H135796   0.228   2.386   3.550
11951TIP3    H235797   0.085   2.412   3.508
11952TIP3   OH235798   3.870   7.111   2.615
11952TIP3    H135799   3.784   7.124   2.575
11952TIP3    H235800   3.932   7.147   2.551
11953TIP3   OH235801   4.065   0.115   0.626
11953TIP3    H135802   4.025   0.194   0.590
11953TIP3    H235803   4.056   0.050   0.557
11954TIP3   OH235804   2.633   5.408   0.792
11954TIP3    H135805   2.688   5.460   0.851
11954TIP3    H235806   2.568   5.470   0.759
11955TIP3   OH235807   0.321   2.991   5.525
11955TIP3    H135808   0.277   3.059   5.473
11955TIP3    H235809   0.408   3.027   5.543
11956TIP3   OH235810   5.862   0.012   0.251
11956TIP3    H135811   5.831   0.058   0.173
11956TIP3    H235812   5.913   0.077   0.299
11957TIP3   OH235813   0.867   1.426   0.035
11957TIP3    H135814   0.783   1.472   0.037
11957TIP3    H235815   0.847   1.338   0.067
11958TIP3   OH235816   2.907   6.800   5.202
11958TIP3    H135817   2.892   6.857   5.128
11958TIP3    H235818   2.829   6.811   5.257
11959TIP3   OH235819   6.581   6.267   5.086
11959TIP3    H135820   6.659   6.216   5.065
11959TIP3    H235821   6.530   6.211   5.145
11960TIP3   OH235822   0.374   5.258   6.529
11960TIP3    H135823   0.306   5.220   6.584
11960TIP3    H235824   0.384   5.195   6.457
11961TIP3   OH235825   5.343   7.258   0.960
11961TIP3    H135826   5.403   7.184   0.963
11961TIP3    H235827   5.393   7.331   0.999
11962TIP3   OH235828   5.095   3.772   4.929
11962TIP3    H135829   5.004   3.798   4.947
11962TIP3    H235830   5.090   3.729   4.843
11963TIP3   OH235831   6.591   1.564   2.241
11963TIP3    H135832   6.527   1.531   2.177
11963TIP3    H235833   6.570   1.657   2.249
11964TIP3   OH235834   6.192   2.870   1.019
11964TIP3    H135835   6.244   2.943   1.054
11964TIP3    H235836   6.102   2.900   1.024
11965TIP3   OH235837   1.394   5.630   2.298
11965TIP3    H135838   1.473   5.631   2.353
11965TIP3    H235839   1.380   5.538   2.279
11966TIP3   OH235840   1.718   0.394   1.034
11966TIP3    H135841   1.668   0.469   1.000
11966TIP3    H235842   1.804   0.430   1.054
11967TIP3   OH235843   3.157   4.738   5.652
11967TIP3    H135844   3.177   4.815   5.704
11967TIP3    H235845   3.226   4.675   5.673
11968TIP3   OH235846   3.809   2.995   3.803
11968TIP3    H135847   3.829   2.901   3.802
11968TIP3    H235848   3.777   3.012   3.891
11969TIP3   OH235849   4.439   2.573   2.610
11969TIP3    H135850   4.464   2.539   2.696
11969TIP3    H235851   4.344   2.581   2.615
11970TIP3   OH235852   6.147   5.087   2.809
11970TIP3    H135853   6.157   5.155   2.743
11970TIP3    H235854   6.060   5.051   2.794
11971TIP3   OH235855   4.767   1.864   1.723
11971TIP3    H135856   4.680   1.906   1.729
11971TIP3    H235857   4.798   1.887   1.635
11972TIP3   OH235858   5.764   4.257   0.207
11972TIP3    H135859   5.676   4.294   0.204
11972TIP3    H235860   5.798   4.271   0.118
11973TIP3   OH235861   6.951   5.319   1.437
11973TIP3    H135862   6.976   5.283   1.352
11973TIP3    H235863   6.856   5.308   1.441
11974TIP3   OH235864   2.237   7.701   0.030
11974TIP3    H135865   2.284   7.674  -0.049
11974TIP3    H235866   2.261   7.635   0.096
11975TIP3   OH235867   5.825   6.643   6.308
11975TIP3    H135868   5.909   6.658   6.351
11975TIP3    H235869   5.780   6.727   6.314
11976TIP3   OH235870   7.741   1.039   3.656
11976TIP3    H135871   7.793   1.082   3.724
11976TIP3    H235872   7.650   1.054   3.683
11977TIP3   OH235873   2.872   4.734   4.749
11977TIP3    H135874   2.957   4.774   4.730
11977TIP3    H235875   2.816   4.808   4.771
11978TIP3   OH235876   6.979   6.794   6.252
11978TIP3    H135877   6.914   6.795   6.323
11978TIP3    H235878   6.936   6.746   6.181
11979TIP3   OH235879   0.992   5.648   5.718
11979TIP3    H135880   1.007   5.619   5.808
11979TIP3    H235881   1.079   5.650   5.679
11980TIP3   OH235882   0.545   1.918   4.414
11980TIP3    H135883   0.623   1.972   4.423
11980TIP3    H235884   0.569   1.852   4.349
11981TIP3   OH235885   2.897   0.277   3.511
11981TIP3    H135886   2.872   0.369   3.516
11981TIP3    H235887   2.989   0.275   3.535
11982TIP3   OH235888   3.281   2.537   6.750
11982TIP3    H135889   3.299   2.466   6.812
11982TIP3    H235890   3.321   2.507   6.668
11983TIP3   OH235891   3.723   1.739   2.589
11983TIP3    H135892   3.735   1.805   2.521
11983TIP3    H235893   3.781   1.667   2.565
11984TIP3   OH235894   1.471   5.613   2.025
11984TIP3    H135895   1.431   5.526   2.027
11984TIP3    H235896   1.447   5.652   2.109
11985TIP3   OH235897   4.809   4.849   0.740
11985TIP3    H135898   4.869   4.856   0.815
11985TIP3    H235899   4.792   4.755   0.732
11986TIP3   OH235900   7.741   4.167   1.707
11986TIP3    H135901   7.697   4.114   1.641
11986TIP3    H235902   7.810   4.110   1.742
11987TIP3   OH235903   5.350   4.499   6.607
11987TIP3    H135904   5.436   4.461   6.585
11987TIP3    H235905   5.371   4.580   6.653
11988TIP3   OH235906   3.456   1.481   1.464
11988TIP3    H135907   3.452   1.433   1.547
11988TIP3    H235908   3.549   1.478   1.439
11989TIP3   OH235909   2.262   0.062   1.949
11989TIP3    H135910   2.196   0.104   1.895
11989TIP3    H235911   2.222   0.054   2.036
11990TIP3   OH235912   5.526   4.551   2.594
11990TIP3    H135913   5.615   4.521   2.576
11990TIP3    H235914   5.482   4.475   2.632
11991TIP3   OH235915   2.036   6.899   3.928
11991TIP3    H135916   1.978   6.957   3.878
11991TIP3    H235917   2.016   6.919   4.020
11992TIP3   OH235918   6.776   3.993   3.543
11992TIP3    H135919   6.840   3.929   3.572
11992TIP3    H235920   6.697   3.973   3.593
11993TIP3   OH235921   4.157   2.713   0.392
11993TIP3    H135922   4.164   2.696   0.299
11993TIP3    H235923   4.186   2.632   0.434
11994TIP3   OH235924   7.321   4.672   4.755
11994TIP3    H135925   7.272   4.617   4.694
11994TIP3    H235926   7.406   4.629   4.763
11995TIP3   OH235927   0.750   5.701   3.066
11995TIP3    H135928   0.693   5.775   3.084
11995TIP3    H235929   0.837   5.740   3.052
11996TIP3   OH235930   1.770   5.840   3.693
11996TIP3    H135931   1.791   5.805   3.780
11996TIP3    H235932   1.712   5.914   3.711
11997TIP3   OH235933   2.881   4.901   5.718
11997TIP3    H135934   2.901   4.811   5.743
11997TIP3    H235935   2.800   4.921   5.765
11998TIP3   OH235936   0.229   4.702   0.523
11998TIP3    H135937   0.188   4.694   0.608
11998TIP3    H235938   0.287   4.779   0.531
11999TIP3   OH235939   4.505   2.695   6.646
11999TIP3    H135940   4.522   2.767   6.708
11999TIP3    H235941   4.592   2.669   6.615
12000TIP3   OH235942   3.957   5.788   4.950
12000TIP3    H135943   3.864   5.781   4.973
12000TIP3    H235944   4.003   5.747   5.023
12001TIP3   OH235945   3.136   0.995   0.843
12001TIP3    H135946   3.117   0.933   0.913
12001TIP3    H235947   3.161   1.075   0.888
12002TIP3   OH235948   5.767   7.537   5.584
12002TIP3    H135949   5.796   7.627   5.596
12002TIP3    H235950   5.847   7.488   5.566
12003TIP3   OH235951   2.885   2.194   3.439
12003TIP3    H135952   2.907   2.128   3.505
12003TIP3    H235953   2.869   2.274   3.490
12004TIP3   OH235954   6.037   7.735   1.351
12004TIP3    H135955   6.125   7.767   1.369
12004TIP3    H235956   6.018   7.766   1.263
12005TIP3   OH235957   3.275   6.678   1.543
12005TIP3    H135958   3.258   6.767   1.574
12005TIP3    H235959   3.295   6.628   1.623
12006TIP3   OH235960   5.981   2.770   2.015
12006TIP3    H135961   6.076   2.779   2.012
12006TIP3    H235962   5.965   2.676   2.012
12007TIP3   OH235963   2.365   4.130   1.455
12007TIP3    H135964   2.422   4.139   1.379
12007TIP3    H235965   2.393   4.199   1.515
12008TIP3   OH235966   6.127   6.390   5.382
12008TIP3    H135967   6.203   6.432   5.340
12008TIP3    H235968   6.056   6.452   5.372
12009TIP3   OH235969   4.057   6.091   5.940
12009TIP3    H135970   4.000   6.140   5.999
12009TIP3    H235971   4.141   6.137   5.944
12010TIP3   OH235972   4.408   2.279   3.438
12010TIP3    H135973   4.376   2.319   3.358
12010TIP3    H235974   4.345   2.209   3.457
12011TIP3   OH235975   7.388   4.351   5.918
12011TIP3    H135976   7.385   4.393   5.833
12011TIP3    H235977   7.404   4.422   5.980
12012TIP3   OH235978   6.365   5.202   0.079
12012TIP3    H135979   6.381   5.150   0.158
12012TIP3    H235980   6.378   5.140   0.007
12013TIP3   OH235981   0.074   6.166   5.943
12013TIP3    H135982   0.157   6.201   5.974
12013TIP3    H235983   0.079   6.172   5.848
12014TIP3   OH235984   7.345   6.658   3.070
12014TIP3    H135985   7.330   6.574   3.113
12014TIP3    H235986   7.378   6.635   2.983
12015TIP3   OH235987   5.204   5.920   6.027
12015TIP3    H135988   5.295   5.896   6.042
12015TIP3    H235989   5.207   6.013   6.005
12016TIP3   OH235990   6.178   3.142   3.103
12016TIP3    H135991   6.084   3.123   3.099
12016TIP3    H235992   6.220   3.056   3.104
12017TIP3   OH235993   2.190   1.579   3.209
12017TIP3    H135994   2.134   1.618   3.143
12017TIP3    H235995   2.139   1.582   3.290
12018TIP3   OH235996   2.005   6.586   5.935
12018TIP3    H135997   2.030   6.497   5.962
12018TIP3    H235998   2.089   6.631   5.921
12019TIP3   OH235999   4.897   2.365   4.070
12019TIP3    H136000   4.930   2.385   3.983
12019TIP3    H236001   4.930   2.436   4.125
12020TIP3   OH236002   8.218   6.477   2.397
12020TIP3    H136003   8.311   6.502   2.395
12020TIP3    H236004   8.181   6.516   2.318
12021TIP3   OH236005   7.788   4.169   3.421
12021TIP3    H136006   7.761   4.216   3.500
12021TIP3    H236007   7.870   4.211   3.394
12022TIP3   OH236008   2.674   0.771   5.049
12022TIP3    H136009   2.667   0.676   5.054
12022TIP3    H236010   2.671   0.800   5.141
12023TIP3   OH236011   5.485   1.370   3.950
12023TIP3    H136012   5.462   1.298   4.009
12023TIP3    H236013   5.534   1.431   4.004
12024TIP3   OH236014   6.648   6.994   1.875
12024TIP3    H136015   6.707   6.941   1.929
12024TIP3    H236016   6.705   7.056   1.830
12025TIP3   OH236017   4.369   4.284   3.487
12025TIP3    H136018   4.387   4.378   3.481
12025TIP3    H236019   4.454   4.242   3.474
12026TIP3   OH236020   2.856   3.965   4.065
12026TIP3    H136021   2.786   4.026   4.086
12026TIP3    H236022   2.866   3.910   4.143
12027TIP3   OH236023   7.640   1.925   5.134
12027TIP3    H136024   7.628   1.926   5.040
12027TIP3    H236025   7.556   1.954   5.170
12028TIP3   OH236026   0.406   4.327   1.980
12028TIP3    H136027   0.494   4.359   2.002
12028TIP3    H236028   0.346   4.391   2.019
12029TIP3   OH236029   6.487   2.181   5.495
12029TIP3    H136030   6.413   2.143   5.448
12029TIP3    H236031   6.467   2.167   5.587
12030TIP3   OH236032   4.269   4.795   0.435
12030TIP3    H136033   4.348   4.820   0.386
12030TIP3    H236034   4.246   4.708   0.400
12031TIP3   OH236035   6.906   2.989   1.899
12031TIP3    H136036   6.950   2.918   1.852
12031TIP3    H236037   6.968   3.062   1.898
12032TIP3   OH236038   4.231   5.494   2.533
12032TIP3    H136039   4.284   5.425   2.572
12032TIP3    H236040   4.249   5.488   2.439
12033TIP3   OH236041   6.269   3.974   2.221
12033TIP3    H136042   6.187   4.006   2.260
12033TIP3    H236043   6.299   3.905   2.281
12034TIP3   OH236044   0.491   7.303   1.226
12034TIP3    H136045   0.399   7.327   1.225
12034TIP3    H236046   0.499   7.232   1.161
12035TIP3   OH236047   6.641   3.124   2.497
12035TIP3    H136048   6.599   3.120   2.583
12035TIP3    H236049   6.662   3.216   2.484
12036TIP3   OH236050   7.263   1.016   3.254
12036TIP3    H136051   7.215   1.013   3.172
12036TIP3    H236052   7.337   0.957   3.242
12037TIP3   OH236053   7.855   7.118   0.382
12037TIP3    H136054   7.853   7.071   0.466
12037TIP3    H236055   7.786   7.077   0.330
12038TIP3   OH236056   2.897   0.144   2.301
12038TIP3    H136057   2.826   0.189   2.255
12038TIP3    H236058   2.926   0.206   2.368
12039TIP3   OH236059   2.268   4.255   2.539
12039TIP3    H136060   2.276   4.172   2.493
12039TIP3    H236061   2.300   4.321   2.477
12040TIP3   OH236062   0.302   2.012   0.738
12040TIP3    H136063   0.335   2.013   0.648
12040TIP3    H236064   0.361   2.069   0.786
12041TIP3   OH236065   2.560   4.941   2.985
12041TIP3    H136066   2.543   4.848   3.003
12041TIP3    H236067   2.655   4.948   2.984
12042TIP3   OH236068   1.648   3.468   6.818
12042TIP3    H136069   1.624   3.436   6.731
12042TIP3    H236070   1.673   3.559   6.804
12043TIP3   OH236071   3.821   5.576   0.137
12043TIP3    H136072   3.879   5.644   0.173
12043TIP3    H236073   3.749   5.625   0.097
12044TIP3   OH236074   1.492   2.849   3.935
12044TIP3    H136075   1.527   2.938   3.927
12044TIP3    H236076   1.565   2.792   3.907
12045TIP3   OH236077   1.562   7.644   2.094
12045TIP3    H136078   1.655   7.620   2.101
12045TIP3    H236079   1.516   7.573   2.139
12046TIP3   OH236080   5.318   3.145   0.195
12046TIP3    H136081   5.276   3.133   0.281
12046TIP3    H236082   5.288   3.071   0.143
12047TIP3   OH236083   1.338   5.268   3.672
12047TIP3    H136084   1.244   5.263   3.651
12047TIP3    H236085   1.375   5.322   3.602
12048TIP3   OH236086   4.834   6.556   4.331
12048TIP3    H136087   4.760   6.606   4.367
12048TIP3    H236088   4.839   6.478   4.386
12049TIP3   OH236089   7.742   0.655   1.730
12049TIP3    H136090   7.831   0.676   1.756
12049TIP3    H236091   7.696   0.739   1.733
12050TIP3   OH236092   0.489   3.192   6.560
12050TIP3    H136093   0.514   3.181   6.469
12050TIP3    H236094   0.472   3.103   6.591
12051TIP3   OH236095   3.872   1.913   5.639
12051TIP3    H136096   3.931   1.987   5.653
12051TIP3    H236097   3.801   1.927   5.702
12052TIP3   OH236098   6.401   7.676   1.618
12052TIP3    H136099   6.409   7.728   1.697
12052TIP3    H236100   6.328   7.616   1.636
12053TIP3   OH236101   4.679   7.134   1.343
12053TIP3    H136102   4.685   7.225   1.374
12053TIP3    H236103   4.685   7.081   1.422
12054TIP3   OH236104   1.458   3.931   3.323
12054TIP3    H136105   1.468   3.853   3.268
12054TIP3    H236106   1.386   3.909   3.383
12055TIP3   OH236107   1.446   3.586   3.486
12055TIP3    H136108   1.434   3.636   3.405
12055TIP3    H236109   1.364   3.600   3.534
12056TIP3   OH236110   3.506   1.879   2.179
12056TIP3    H136111   3.514   1.830   2.261
12056TIP3    H236112   3.466   1.962   2.204
12057TIP3   OH236113   2.759   5.244   2.974
12057TIP3    H136114   2.668   5.227   2.949
12057TIP3    H236115   2.772   5.337   2.958
12058TIP3   OH236116   1.728   7.047   5.457
12058TIP3    H136117   1.680   7.029   5.538
12058TIP3    H236118   1.690   6.987   5.392
12059TIP3   OH236119   1.879   5.419   0.792
12059TIP3    H136120   1.918   5.428   0.878
12059TIP3    H236121   1.787   5.399   0.809
12060TIP3   OH236122   2.214   1.221   0.322
12060TIP3    H136123   2.304   1.253   0.330
12060TIP3    H236124   2.166   1.292   0.278
12061TIP3   OH236125   4.942   0.302   4.123
12061TIP3    H136126   5.003   0.316   4.195
12061TIP3    H236127   4.909   0.390   4.103
12062TIP3   OH236128   5.836   2.414   2.600
12062TIP3    H136129   5.850   2.421   2.694
12062TIP3    H236130   5.923   2.424   2.562
12063TIP3   OH236131   4.557   0.734   0.240
12063TIP3    H136132   4.535   0.754   0.331
12063TIP3    H236133   4.521   0.646   0.226
12064TIP3   OH236134   3.041   2.016   6.633
12064TIP3    H136135   3.101   1.944   6.655
12064TIP3    H236136   2.954   1.981   6.648
12065TIP3   OH236137   1.715   6.003   3.110
12065TIP3    H136138   1.772   6.039   3.178
12065TIP3    H236139   1.770   5.940   3.063
12066TIP3   OH236140   5.983   2.546   3.309
12066TIP3    H136141   6.070   2.583   3.323
12066TIP3    H236142   5.983   2.522   3.216
12067TIP3   OH236143   3.718   6.615   1.306
12067TIP3    H136144   3.726   6.535   1.254
12067TIP3    H236145   3.654   6.668   1.258
12068TIP3   OH236146   1.733   0.731   5.506
12068TIP3    H136147   1.729   0.655   5.448
12068TIP3    H236148   1.661   0.787   5.478
12069TIP3   OH236149   1.467   4.283   6.028
12069TIP3    H136150   1.433   4.372   6.038
12069TIP3    H236151   1.451   4.261   5.936
12070TIP3   OH236152   6.239   4.103   0.841
12070TIP3    H136153   6.169   4.160   0.873
12070TIP3    H236154   6.196   4.018   0.830
12071TIP3   OH236155   2.850   6.019   4.994
12071TIP3    H136156   2.874   5.956   5.062
12071TIP3    H236157   2.918   6.086   4.998
12072TIP3   OH236158   3.489   5.941   5.140
12072TIP3    H136159   3.431   5.943   5.217
12072TIP3    H236160   3.566   5.992   5.167
12073TIP3   OH236161   2.193   3.558   4.852
12073TIP3    H136162   2.188   3.465   4.876
12073TIP3    H236163   2.107   3.593   4.875
12074TIP3   OH236164   6.635   6.279   4.035
12074TIP3    H136165   6.696   6.352   4.026
12074TIP3    H236166   6.689   6.205   4.062
12075TIP3   OH236167   7.184   0.760   0.948
12075TIP3    H136168   7.186   0.839   0.894
12075TIP3    H236169   7.125   0.701   0.900
12076TIP3   OH236170   8.226   7.179   5.636
12076TIP3    H136171   8.152   7.132   5.674
12076TIP3    H236172   8.208   7.179   5.542
12077TIP3   OH236173   6.400   1.179   5.712
12077TIP3    H136174   6.395   1.088   5.683
12077TIP3    H236175   6.372   1.230   5.636
12078TIP3   OH236176   8.159   0.987   4.397
12078TIP3    H136177   8.211   0.992   4.477
12078TIP3    H236178   8.081   0.938   4.422
12079TIP3   OH236179   3.844   4.575   4.523
12079TIP3    H136180   3.765   4.547   4.570
12079TIP3    H236181   3.874   4.497   4.477
12080TIP3   OH236182   1.366   4.497   0.820
12080TIP3    H136183   1.423   4.546   0.761
12080TIP3    H236184   1.398   4.518   0.907
12081TIP3   OH236185   1.312   0.600   5.161
12081TIP3    H136186   1.363   0.681   5.158
12081TIP3    H236187   1.266   0.597   5.077
12082TIP3   OH236188   3.981   1.034   3.279
12082TIP3    H136189   4.054   1.033   3.341
12082TIP3    H236190   4.017   1.074   3.200
12083TIP3   OH236191   1.228   4.270   3.537
12083TIP3    H136192   1.245   4.349   3.486
12083TIP3    H236193   1.173   4.216   3.480
12084TIP3   OH236194   0.159   2.898   6.620
12084TIP3    H136195   0.159   2.963   6.551
12084TIP3    H236196   0.233   2.922   6.676
12085TIP3   OH236197   1.780   4.029   4.788
12085TIP3    H136198   1.692   4.020   4.752
12085TIP3    H236199   1.787   3.960   4.853
12086TIP3   OH236200   1.785   7.448   3.257
12086TIP3    H136201   1.831   7.381   3.307
12086TIP3    H236202   1.712   7.401   3.217
12087TIP3   OH236203   0.859   4.543   0.554
12087TIP3    H136204   0.913   4.603   0.605
12087TIP3    H236205   0.905   4.460   0.558
12088TIP3   OH236206   6.894   1.928   3.100
12088TIP3    H136207   6.896   1.840   3.138
12088TIP3    H236208   6.816   1.968   3.137
12089TIP3   OH236209   2.275   5.027   4.424
12089TIP3    H136210   2.269   5.122   4.418
12089TIP3    H236211   2.194   5.001   4.469
12090TIP3   OH236212   5.286   1.019   5.308
12090TIP3    H136213   5.322   0.940   5.347
12090TIP3    H236214   5.354   1.085   5.322
12091TIP3   OH236215   6.872   4.563   4.521
12091TIP3    H136216   6.864   4.530   4.610
12091TIP3    H236217   6.787   4.604   4.503
12092TIP3   OH236218   0.232   3.146   4.784
12092TIP3    H136219   0.214   3.180   4.696
12092TIP3    H236220   0.157   3.089   4.803
12093TIP3   OH236221   2.245   4.747   4.386
12093TIP3    H136222   2.242   4.703   4.471
12093TIP3    H236223   2.313   4.814   4.397
12094TIP3   OH236224   0.400   5.044   4.413
12094TIP3    H136225   0.355   4.974   4.460
12094TIP3    H236226   0.400   5.118   4.475
12095TIP3   OH236227   1.269   3.115   4.734
12095TIP3    H136228   1.348   3.090   4.687
12095TIP3    H236229   1.278   3.209   4.748
12096TIP3   OH236230   3.762   0.969   3.472
12096TIP3    H136231   3.808   0.917   3.538
12096TIP3    H236232   3.829   0.990   3.407
12097TIP3   OH236233   3.649   7.004   3.990
12097TIP3    H136234   3.573   7.057   4.013
12097TIP3    H236235   3.612   6.925   3.950
12098TIP3   OH236236   2.348   5.037   0.518
12098TIP3    H136237   2.394   5.075   0.593
12098TIP3    H236238   2.310   4.956   0.552
12099TIP3   OH236239   5.609   0.404   3.691
12099TIP3    H136240   5.532   0.414   3.747
12099TIP3    H236241   5.589   0.329   3.636
12100TIP3   OH236242   7.702   6.076   3.376
12100TIP3    H136243   7.726   5.990   3.342
12100TIP3    H236244   7.715   6.068   3.471
12101TIP3   OH236245   6.235   4.551   0.214
12101TIP3    H136246   6.270   4.627   0.260
12101TIP3    H236247   6.148   4.537   0.252
12102TIP3   OH236248   6.961   3.133   0.864
12102TIP3    H136249   6.965   3.215   0.815
12102TIP3    H236250   7.002   3.153   0.948
12103TIP3   OH236251   3.268   5.422   0.323
12103TIP3    H136252   3.181   5.450   0.352
12103TIP3    H236253   3.250   5.350   0.262
12104TIP3   OH236254   4.542   0.993   6.157
12104TIP3    H136255   4.521   1.077   6.118
12104TIP3    H236256   4.620   1.010   6.210
12105TIP3   OH236257   8.225   1.894   1.252
12105TIP3    H136258   8.154   1.954   1.228
12105TIP3    H236259   8.303   1.933   1.212
12106TIP3   OH236260   4.411   5.467   1.528
12106TIP3    H136261   4.458   5.541   1.566
12106TIP3    H236262   4.390   5.411   1.603
12107TIP3   OH236263   6.814   5.770   1.799
12107TIP3    H136264   6.897   5.729   1.823
12107TIP3    H236265   6.836   5.831   1.729
12108TIP3   OH236266   0.251   3.914   2.956
12108TIP3    H136267   0.188   3.843   2.945
12108TIP3    H236268   0.266   3.917   3.051
12109TIP3   OH236269   6.948   4.310   6.445
12109TIP3    H136270   6.993   4.391   6.466
12109TIP3    H236271   6.887   4.296   6.517
12110TIP3   OH236272   2.780   7.719   1.541
12110TIP3    H136273   2.781   7.624   1.546
12110TIP3    H236274   2.868   7.743   1.514
12111TIP3   OH236275   0.334   4.641   5.437
12111TIP3    H136276   0.297   4.725   5.464
12111TIP3    H236277   0.426   4.660   5.418
12112TIP3   OH236278   7.835   6.001   1.292
12112TIP3    H136279   7.840   6.023   1.199
12112TIP3    H236280   7.742   6.010   1.313
12113TIP3   OH236281   6.674   0.543   5.712
12113TIP3    H136282   6.646   0.632   5.732
12113TIP3    H236283   6.745   0.526   5.774
12114TIP3   OH236284   7.606   1.066   2.872
12114TIP3    H136285   7.610   0.985   2.923
12114TIP3    H236286   7.697   1.088   2.854
12115TIP3   OH236287   3.487   4.875   1.019
12115TIP3    H136288   3.425   4.869   0.947
12115TIP3    H236289   3.455   4.812   1.084
12116TIP3   OH236290   2.027   6.317   2.644
12116TIP3    H136291   2.114   6.356   2.648
12116TIP3    H236292   1.987   6.355   2.565
12117TIP3   OH236293   2.484   7.169   3.088
12117TIP3    H136294   2.568   7.126   3.077
12117TIP3    H236295   2.459   7.197   3.000
12118TIP3   OH236296   7.506   0.492   2.219
12118TIP3    H136297   7.436   0.532   2.269
12118TIP3    H236298   7.478   0.499   2.128
12119TIP3   OH236299   3.701   3.833   4.921
12119TIP3    H136300   3.691   3.748   4.878
12119TIP3    H236301   3.725   3.812   5.011
12120TIP3   OH236302   2.921   3.043   4.093
12120TIP3    H136303   2.834   3.065   4.060
12120TIP3    H236304   2.955   2.980   4.029
12121TIP3   OH236305   5.930   3.658   6.349
12121TIP3    H136306   5.841   3.658   6.312
12121TIP3    H236307   5.923   3.605   6.428
12122TIP3   OH236308   7.951   1.264   0.781
12122TIP3    H136309   7.998   1.304   0.855
12122TIP3    H236310   8.001   1.185   0.761
12123TIP3   OH236311   6.194   3.765   1.712
12123TIP3    H136312   6.131   3.697   1.736
12123TIP3    H236313   6.189   3.769   1.617
12124TIP3   OH236314   6.001   5.289   0.302
12124TIP3    H136315   5.980   5.282   0.395
12124TIP3    H236316   6.040   5.204   0.280
12125TIP3   OH236317   4.801   2.737   0.584
12125TIP3    H136318   4.774   2.726   0.675
12125TIP3    H236319   4.896   2.746   0.589
12126TIP3   OH236320   4.067   3.544   1.709
12126TIP3    H136321   4.117   3.480   1.760
12126TIP3    H236322   4.123   3.563   1.633
12127TIP3   OH236323   2.260   3.335   0.183
12127TIP3    H136324   2.220   3.263   0.233
12127TIP3    H236325   2.294   3.293   0.104
12128TIP3   OH236326   6.481   5.871   5.558
12128TIP3    H136327   6.414   5.810   5.589
12128TIP3    H236328   6.556   5.855   5.615
12129TIP3   OH236329   7.706   1.226   0.439
12129TIP3    H136330   7.714   1.133   0.419
12129TIP3    H236331   7.708   1.269   0.353
12130TIP3   OH236332   5.968   4.139   2.076
12130TIP3    H136333   5.979   4.179   2.162
12130TIP3    H236334   6.034   4.180   2.021
12131TIP3   OH236335   6.954   3.523   0.118
12131TIP3    H136336   6.941   3.603   0.168
12131TIP3    H236337   7.034   3.484   0.154
12132TIP3   OH236338   6.633   6.200   0.097
12132TIP3    H136339   6.691   6.152   0.038
12132TIP3    H236340   6.691   6.248   0.155
12133TIP3   OH236341   6.842   5.517   3.265
12133TIP3    H136342   6.904   5.484   3.200
12133TIP3    H236343   6.825   5.607   3.238
12134TIP3   OH236344   5.996   4.161   0.310
12134TIP3    H136345   6.053   4.227   0.270
12134TIP3    H236346   5.910   4.176   0.270
12135TIP3   OH236347   5.184   1.850   0.175
12135TIP3    H136348   5.117   1.782   0.173
12135TIP3    H236349   5.140   1.927   0.210
12136TIP3   OH236350   3.183   5.205   3.335
12136TIP3    H136351   3.145   5.125   3.372
12136TIP3    H236352   3.116   5.238   3.274
12137TIP3   OH236353   7.840   4.733   4.688
12137TIP3    H136354   7.913   4.672   4.683
12137TIP3    H236355   7.765   4.683   4.656
12138TIP3   OH236356   1.164   4.870   6.623
12138TIP3    H136357   1.105   4.856   6.697
12138TIP3    H236358   1.118   4.834   6.548
12139TIP3   OH236359   1.582   0.518   2.823
12139TIP3    H136360   1.548   0.590   2.875
12139TIP3    H236361   1.511   0.454   2.820
12140TIP3   OH236362   3.905   6.256   4.655
12140TIP3    H136363   3.853   6.239   4.576
12140TIP3    H236364   3.955   6.335   4.634
12141TIP3   OH236365   1.548   4.674   6.556
12141TIP3    H136366   1.641   4.654   6.560
12141TIP3    H236367   1.511   4.606   6.500
12142TIP3   OH236368   0.437   5.545   2.899
12142TIP3    H136369   0.495   5.537   2.824
12142TIP3    H236370   0.365   5.485   2.881
12143TIP3   OH236371   1.529   2.818   0.862
12143TIP3    H136372   1.478   2.747   0.901
12143TIP3    H236373   1.528   2.887   0.929
12144TIP3   OH236374   3.867   7.526   4.804
12144TIP3    H136375   3.878   7.615   4.771
12144TIP3    H236376   3.955   7.497   4.828
12145TIP3   OH236377   6.813   3.407   3.012
12145TIP3    H136378   6.880   3.416   2.944
12145TIP3    H236379   6.730   3.409   2.965
12146TIP3   OH236380   1.353   6.741   4.146
12146TIP3    H136381   1.358   6.647   4.126
12146TIP3    H236382   1.437   6.777   4.118
12147TIP3   OH236383   0.991   7.689   3.437
12147TIP3    H136384   0.994   7.755   3.369
12147TIP3    H236385   1.081   7.684   3.470
12148TIP3   OH236386   2.581   0.940   2.487
12148TIP3    H136387   2.530   1.021   2.488
12148TIP3    H236388   2.641   0.951   2.413
12149TIP3   OH236389   1.434   4.448   0.474
12149TIP3    H136390   1.504   4.492   0.523
12149TIP3    H236391   1.454   4.354   0.484
12150TIP3   OH236392   4.515   3.322   5.902
12150TIP3    H136393   4.576   3.269   5.851
12150TIP3    H236394   4.563   3.346   5.980
12151TIP3   OH236395   5.814   3.093   2.550
12151TIP3    H136396   5.865   3.074   2.628
12151TIP3    H236397   5.847   3.032   2.484
12152TIP3   OH236398   1.682   1.790   3.002
12152TIP3    H136399   1.612   1.802   2.939
12152TIP3    H236400   1.732   1.871   2.999
12153TIP3   OH236401   0.372   4.005   5.704
12153TIP3    H136402   0.352   3.923   5.658
12153TIP3    H236403   0.466   4.000   5.721
12154TIP3   OH236404   6.780   3.280   5.903
12154TIP3    H136405   6.793   3.239   5.988
12154TIP3    H236406   6.759   3.371   5.923
12155TIP3   OH236407   0.150   0.596   1.412
12155TIP3    H136408   0.078   0.599   1.476
12155TIP3    H236409   0.229   0.606   1.465
12156TIP3   OH236410   3.942   1.520   3.921
12156TIP3    H136411   4.014   1.494   3.864
12156TIP3    H236412   3.966   1.485   4.007
12157TIP3   OH236413   4.806   0.041   3.765
12157TIP3    H136414   4.859  -0.006   3.829
12157TIP3    H236415   4.868   0.074   3.700
12158TIP3   OH236416   2.106   6.144   0.512
12158TIP3    H136417   2.200   6.137   0.528
12158TIP3    H236418   2.089   6.081   0.442
12159TIP3   OH236419   0.266   3.303   4.172
12159TIP3    H136420   0.349   3.349   4.187
12159TIP3    H236421   0.209   3.333   4.243
12160TIP3   OH236422   8.165   0.113   5.446
12160TIP3    H136423   8.187   0.030   5.486
12160TIP3    H236424   8.110   0.157   5.511
12161TIP3   OH236425   1.444   7.636   6.240
12161TIP3    H136426   1.434   7.547   6.272
12161TIP3    H236427   1.354   7.670   6.236
12162TIP3   OH236428   2.009   7.381   2.627
12162TIP3    H136429   1.994   7.360   2.720
12162TIP3    H236430   2.099   7.352   2.611
12163TIP3   OH236431   0.449   1.812   0.992
12163TIP3    H136432   0.480   1.800   1.082
12163TIP3    H236433   0.355   1.826   1.000
12164TIP3   OH236434   0.675   6.625   4.432
12164TIP3    H136435   0.694   6.668   4.349
12164TIP3    H236436   0.604   6.564   4.411
12165TIP3   OH236437   3.997   3.443   4.049
12165TIP3    H136438   4.016   3.525   4.004
12165TIP3    H236439   3.998   3.377   3.979
12166TIP3   OH236440   2.300   5.437   4.035
12166TIP3    H136441   2.208   5.412   4.030
12166TIP3    H236442   2.326   5.452   3.944
12167TIP3   OH236443   3.271   3.796   2.065
12167TIP3    H136444   3.314   3.750   1.993
12167TIP3    H236445   3.177   3.787   2.047
12168TIP3   OH236446   5.440   6.584   1.769
12168TIP3    H136447   5.508   6.518   1.759
12168TIP3    H236448   5.384   6.574   1.692
12169TIP3   OH236449   5.376   4.363   4.058
12169TIP3    H136450   5.421   4.443   4.086
12169TIP3    H236451   5.440   4.293   4.070
12170TIP3   OH236452   1.711   5.766   4.364
12170TIP3    H136453   1.741   5.748   4.275
12170TIP3    H236454   1.742   5.692   4.416
12171TIP3   OH236455   4.533   5.375   0.744
12171TIP3    H136456   4.612   5.419   0.777
12171TIP3    H236457   4.538   5.286   0.779
12172TIP3   OH236458   1.834   2.046   3.019
12172TIP3    H136459   1.793   2.133   3.015
12172TIP3    H236460   1.903   2.049   2.952
12173TIP3   OH236461   0.279   3.261   5.061
12173TIP3    H136462   0.225   3.337   5.082
12173TIP3    H236463   0.266   3.247   4.967
12174TIP3   OH236464   3.167   4.515   6.002
12174TIP3    H136465   3.165   4.420   6.003
12174TIP3    H236466   3.260   4.537   6.016
12175TIP3   OH236467   4.356   6.311   6.586
12175TIP3    H136468   4.359   6.406   6.594
12175TIP3    H236469   4.287   6.284   6.646
12176TIP3   OH236470   4.670   1.224   4.430
12176TIP3    H136471   4.608   1.182   4.370
12176TIP3    H236472   4.755   1.215   4.387
12177TIP3   OH236473   2.615   6.376   5.730
12177TIP3    H136474   2.679   6.352   5.798
12177TIP3    H236475   2.530   6.355   5.769
12178TIP3   OH236476   7.424   3.018   1.051
12178TIP3    H136477   7.479   3.090   1.022
12178TIP3    H236478   7.463   2.989   1.134
12179TIP3   OH236479   3.637   6.418   2.646
12179TIP3    H136480   3.588   6.463   2.715
12179TIP3    H236481   3.634   6.326   2.671
12180TIP3   OH236482   4.043   4.464   3.573
12180TIP3    H136483   4.088   4.397   3.624
12180TIP3    H236484   3.985   4.416   3.515
12181TIP3   OH236485   7.257   5.887   0.479
12181TIP3    H136486   7.196   5.816   0.459
12181TIP3    H236487   7.282   5.873   0.571
12182TIP3   OH236488   5.259   2.569   1.570
12182TIP3    H136489   5.310   2.553   1.490
12182TIP3    H236490   5.208   2.489   1.582
12183TIP3   OH236491   6.006   4.195   6.493
12183TIP3    H136492   5.981   4.102   6.494
12183TIP3    H236493   6.098   4.195   6.465
12184TIP3   OH236494   7.275   4.236   5.372
12184TIP3    H136495   7.317   4.152   5.357
12184TIP3    H236496   7.347   4.299   5.375
12185TIP3   OH236497   7.511   2.047   5.452
12185TIP3    H136498   7.424   2.065   5.486
12185TIP3    H236499   7.552   2.133   5.441
12186TIP3   OH236500   0.181   4.399   5.756
12186TIP3    H136501   0.133   4.376   5.677
12186TIP3    H236502   0.270   4.418   5.726
12187TIP3   OH236503   1.776   2.034   1.952
12187TIP3    H136504   1.767   2.052   1.859
12187TIP3    H236505   1.849   2.089   1.981
12188TIP3   OH236506   4.191   4.659   3.774
12188TIP3    H136507   4.159   4.658   3.684
12188TIP3    H236508   4.120   4.699   3.824
12189TIP3   OH236509   0.509   0.913   2.252
12189TIP3    H136510   0.431   0.859   2.250
12189TIP3    H236511   0.517   0.941   2.343
12190TIP3   OH236512   1.222   0.135   1.457
12190TIP3    H136513   1.235   0.047   1.422
12190TIP3    H236514   1.310   0.171   1.463
12191TIP3   OH236515   3.470   6.078   6.690
12191TIP3    H136516   3.440   6.166   6.714
12191TIP3    H236517   3.489   6.084   6.596
12192TIP3   OH236518   1.046   5.867   0.941
12192TIP3    H136519   1.051   5.955   0.903
12192TIP3    H236520   1.057   5.881   1.035
12193TIP3   OH236521   5.398   3.114   3.249
12193TIP3    H136522   5.489   3.087   3.239
12193TIP3    H236523   5.375   3.090   3.339
12194TIP3   OH236524   1.110   5.534   5.325
12194TIP3    H136525   1.103   5.439   5.342
12194TIP3    H236526   1.203   5.553   5.338
12195TIP3   OH236527   7.298   5.467   1.938
12195TIP3    H136528   7.289   5.425   1.853
12195TIP3    H236529   7.377   5.520   1.932
12196TIP3   OH236530   7.911   7.254   4.705
12196TIP3    H136531   7.956   7.170   4.692
12196TIP3    H236532   7.832   7.247   4.650
12197TIP3   OH236533   2.408   0.083   5.924
12197TIP3    H136534   2.492   0.091   5.968
12197TIP3    H236535   2.349   0.141   5.972
12198TIP3   OH236536   7.202   2.905   4.771
12198TIP3    H136537   7.297   2.893   4.766
12198TIP3    H236538   7.184   2.911   4.865
12199TIP3   OH236539   3.164   1.729   4.987
12199TIP3    H136540   3.087   1.714   4.931
12199TIP3    H236541   3.226   1.662   4.961
12200TIP3   OH236542   6.459   6.099   3.109
12200TIP3    H136543   6.542   6.137   3.080
12200TIP3    H236544   6.401   6.107   3.034
12201TIP3   OH236545   1.582   0.926   2.777
12201TIP3    H136546   1.618   0.862   2.838
12201TIP3    H236547   1.518   0.975   2.830
12202TIP3   OH236548   2.440   1.749   3.208
12202TIP3    H136549   2.357   1.733   3.254
12202TIP3    H236550   2.414   1.773   3.119
12203TIP3   OH236551   6.557   3.865   3.201
12203TIP3    H136552   6.598   3.816   3.130
12203TIP3    H236553   6.514   3.797   3.254
12204TIP3   OH236554   4.986   2.816   4.259
12204TIP3    H136555   5.074   2.843   4.285
12204TIP3    H236556   4.971   2.859   4.175
12205TIP3   OH236557   0.624   4.172   2.233
12205TIP3    H136558   0.707   4.171   2.185
12205TIP3    H236559   0.612   4.263   2.259
12206TIP3   OH236560   1.218   2.985   4.453
12206TIP3    H136561   1.154   2.977   4.525
12206TIP3    H236562   1.280   2.914   4.468
12207TIP3   OH236563   6.969   2.009   0.544
12207TIP3    H136564   7.044   1.982   0.491
12207TIP3    H236565   6.955   2.101   0.519
12208TIP3   OH236566   1.603   2.615   6.758
12208TIP3    H136567   1.523   2.571   6.727
12208TIP3    H236568   1.667   2.545   6.765
12209TIP3   OH236569   0.824   3.669   6.234
12209TIP3    H136570   0.885   3.674   6.308
12209TIP3    H236571   0.870   3.613   6.170
12210TIP3   OH236572   3.987   5.841   5.997
12210TIP3    H136573   4.006   5.934   5.979
12210TIP3    H236574   3.989   5.834   6.092
12211TIP3   OH236575   3.387   4.859   0.075
12211TIP3    H136576   3.306   4.909   0.074
12211TIP3    H236577   3.434   4.888  -0.003
12212TIP3   OH236578   8.285   1.204   3.796
12212TIP3    H136579   8.337   1.244   3.726
12212TIP3    H236580   8.293   1.265   3.870
12213TIP3   OH236581   0.609   5.411   1.949
12213TIP3    H136582   0.552   5.334   1.946
12213TIP3    H236583   0.633   5.426   1.857
12214TIP3   OH236584   3.336   5.500   4.269
12214TIP3    H136585   3.320   5.451   4.350
12214TIP3    H236586   3.371   5.584   4.297
12215TIP3   OH236587   4.259   5.856   4.159
12215TIP3    H136588   4.260   5.808   4.077
12215TIP3    H236589   4.166   5.865   4.181
12216TIP3   OH236590   2.671   3.526   3.645
12216TIP3    H136591   2.707   3.446   3.607
12216TIP3    H236592   2.746   3.585   3.652
12217TIP3   OH236593   1.809   7.460   4.697
12217TIP3    H136594   1.725   7.501   4.718
12217TIP3    H236595   1.853   7.450   4.782
12218TIP3   OH236596   7.013   3.617   5.827
12218TIP3    H136597   7.081   3.619   5.760
12218TIP3    H236598   7.015   3.705   5.866
12219TIP3   OH236599   0.533   3.237   5.696
12219TIP3    H136600   0.555   3.150   5.662
12219TIP3    H236601   0.611   3.290   5.678
12220TIP3   OH236602   6.908   7.555   0.409
12220TIP3    H136603   6.920   7.465   0.380
12220TIP3    H236604   6.899   7.550   0.504
12221TIP3   OH236605   3.680   3.320   1.956
12221TIP3    H136606   3.758   3.363   1.992
12221TIP3    H236607   3.613   3.332   2.023
12222TIP3   OH236608   4.728   2.224   3.582
12222TIP3    H136609   4.742   2.166   3.657
12222TIP3    H236610   4.789   2.296   3.595
12223TIP3   OH236611   4.111   6.468   6.427
12223TIP3    H136612   4.112   6.459   6.522
12223TIP3    H236613   4.057   6.546   6.411
12224TIP3   OH236614   5.873   6.134   1.577
12224TIP3    H136615   5.800   6.098   1.528
12224TIP3    H236616   5.833   6.192   1.642
12225TIP3   OH236617   6.108   2.926   5.959
12225TIP3    H136618   6.203   2.916   5.962
12225TIP3    H236619   6.088   2.993   6.025
12226TIP3   OH236620   2.112   5.767   1.088
12226TIP3    H136621   2.111   5.765   1.183
12226TIP3    H236622   2.064   5.846   1.064
12227TIP3   OH236623   7.357   1.034   5.298
12227TIP3    H136624   7.342   1.114   5.248
12227TIP3    H236625   7.270   0.995   5.307
12228TIP3   OH236626   2.682   0.288   1.469
12228TIP3    H136627   2.600   0.304   1.423
12228TIP3    H236628   2.728   0.223   1.415
12229TIP3   OH236629   0.067   1.026   2.952
12229TIP3    H136630  -0.009   1.019   2.894
12229TIP3    H236631   0.046   0.971   3.027
12230TIP3   OH236632   6.442   2.156   5.777
12230TIP3    H136633   6.465   2.064   5.791
12230TIP3    H236634   6.381   2.177   5.849
12231TIP3   OH236635   7.832   4.270   0.732
12231TIP3    H136636   7.836   4.208   0.659
12231TIP3    H236637   7.743   4.306   0.728
12232TIP3   OH236638   3.113   3.030   5.689
12232TIP3    H136639   3.118   3.121   5.660
12232TIP3    H236640   3.077   3.036   5.778
12233TIP3   OH236641   7.622   2.858   3.430
12233TIP3    H136642   7.569   2.938   3.427
12233TIP3    H236643   7.609   2.817   3.345
12234TIP3   OH236644   0.956   0.890   6.014
12234TIP3    H136645   0.932   0.823   5.949
12234TIP3    H236646   0.879   0.896   6.071
12235TIP3   OH236647   2.224   1.729   0.399
12235TIP3    H136648   2.303   1.688   0.364
12235TIP3    H236649   2.214   1.809   0.347
12236TIP3   OH236650   4.830   0.980   6.810
12236TIP3    H136651   4.811   1.030   6.731
12236TIP3    H236652   4.867   0.897   6.779
12237TIP3   OH236653   7.799   4.288   1.468
12237TIP3    H136654   7.745   4.366   1.462
12237TIP3    H236655   7.818   4.279   1.562
12238TIP3   OH236656   1.311   0.723   2.726
12238TIP3    H136657   1.391   0.727   2.673
12238TIP3    H236658   1.244   0.762   2.670
12239TIP3   OH236659   2.892   6.186   1.234
12239TIP3    H136660   2.961   6.120   1.229
12239TIP3    H236661   2.838   6.159   1.308
12240TIP3   OH236662   0.754   0.842   0.498
12240TIP3    H136663   0.842   0.840   0.537
12240TIP3    H236664   0.706   0.905   0.552
12241TIP3   OH236665   7.574   4.141   2.951
12241TIP3    H136666   7.575   4.119   2.858
12241TIP3    H236667   7.489   4.111   2.982
12242TIP3   OH236668   8.317   0.347   3.552
12242TIP3    H136669   8.282   0.434   3.569
12242TIP3    H236670   8.258   0.287   3.598
12243TIP3   OH236671   6.137   0.164   4.051
12243TIP3    H136672   6.197   0.130   4.118
12243TIP3    H236673   6.171   0.129   3.969
12244TIP3   OH236674   8.015   3.026   4.859
12244TIP3    H136675   8.050   2.960   4.919
12244TIP3    H236676   7.927   3.044   4.892
12245TIP3   OH236677   1.184   7.617   5.429
12245TIP3    H136678   1.178   7.577   5.516
12245TIP3    H236679   1.166   7.709   5.444
12246TIP3   OH236680   6.550   1.830   3.355
12246TIP3    H136681   6.513   1.861   3.437
12246TIP3    H236682   6.481   1.777   3.316
12247TIP3   OH236683   6.925   0.349   0.824
12247TIP3    H136684   6.839   0.345   0.866
12247TIP3    H236685   6.906   0.366   0.732
12248TIP3   OH236686   6.253   5.333   6.220
12248TIP3    H136687   6.322   5.400   6.214
12248TIP3    H236688   6.175   5.382   6.246
12249TIP3   OH236689   6.491   3.915   2.056
12249TIP3    H136690   6.543   3.988   2.021
12249TIP3    H236691   6.433   3.956   2.120
12250TIP3   OH236692   4.237   6.728   4.290
12250TIP3    H136693   4.234   6.637   4.261
12250TIP3    H236694   4.293   6.727   4.368
12251TIP3   OH236695   2.578   2.370   6.366
12251TIP3    H136696   2.495   2.329   6.392
12251TIP3    H236697   2.552   2.449   6.319
12252TIP3   OH236698   0.491   3.835   1.958
12252TIP3    H136699   0.466   3.927   1.956
12252TIP3    H236700   0.554   3.829   2.030
12253TIP3   OH236701   3.137   2.567   0.478
12253TIP3    H136702   3.218   2.518   0.464
12253TIP3    H236703   3.161   2.637   0.538
12254TIP3   OH236704   6.352   0.228   6.135
12254TIP3    H136705   6.372   0.145   6.178
12254TIP3    H236706   6.374   0.213   6.043
12255TIP3   OH236707   4.044   1.047   6.534
12255TIP3    H136708   4.048   1.051   6.630
12255TIP3    H236709   4.004   1.130   6.508
12256TIP3   OH236710   7.635   3.152   0.020
12256TIP3    H136711   7.623   3.201   0.101
12256TIP3    H236712   7.707   3.092   0.039
12257TIP3   OH236713   4.704   3.374   6.420
12257TIP3    H136714   4.636   3.347   6.481
12257TIP3    H236715   4.658   3.393   6.338
12258TIP3   OH236716   6.777   4.512   1.934
12258TIP3    H136717   6.871   4.527   1.922
12258TIP3    H236718   6.745   4.483   1.849
12259TIP3   OH236719   1.728   7.441   1.248
12259TIP3    H136720   1.661   7.441   1.316
12259TIP3    H236721   1.678   7.442   1.166
12260TIP3   OH236722   4.280   4.091   0.494
12260TIP3    H136723   4.217   4.046   0.437
12260TIP3    H236724   4.228   4.158   0.539
12261TIP3   OH236725   6.593   0.448   4.860
12261TIP3    H136726   6.625   0.537   4.872
12261TIP3    H236727   6.602   0.408   4.946
12262TIP3   OH236728   2.140   7.434   3.810
12262TIP3    H136729   2.104   7.384   3.883
12262TIP3    H236730   2.063   7.456   3.756
12263TIP3   OH236731   4.176   6.767   1.539
12263TIP3    H136732   4.226   6.802   1.465
12263TIP3    H236733   4.100   6.725   1.499
12264TIP3   OH236734   3.551   7.266   6.455
12264TIP3    H136735   3.616   7.235   6.518
12264TIP3    H236736   3.483   7.198   6.454
12265TIP3   OH236737   3.197   0.555   0.653
12265TIP3    H136738   3.279   0.506   0.655
12265TIP3    H236739   3.223   0.647   0.652
12266TIP3   OH236740   1.155   7.457   0.507
12266TIP3    H136741   1.080   7.406   0.537
12266TIP3    H236742   1.179   7.419   0.423
12267TIP3   OH236743   0.332   6.368   0.537
12267TIP3    H136744   0.372   6.453   0.520
12267TIP3    H236745   0.327   6.361   0.632
12268TIP3   OH236746   7.509   2.327   0.372
12268TIP3    H136747   7.461   2.258   0.326
12268TIP3    H236748   7.578   2.353   0.312
12269TIP3   OH236749   0.159   6.508   6.055
12269TIP3    H136750   0.097   6.447   6.095
12269TIP3    H236751   0.194   6.558   6.128
12270TIP3   OH236752   2.866  -0.020   4.157
12270TIP3    H136753   2.884  -0.001   4.064
12270TIP3    H236754   2.876   0.064   4.201
12271TIP3   OH236755   8.136   7.537   4.120
12271TIP3    H136756   8.204   7.561   4.183
12271TIP3    H236757   8.094   7.620   4.098
12272TIP3   OH236758   6.581   7.009   6.529
12272TIP3    H136759   6.575   7.096   6.490
12272TIP3    H236760   6.621   6.954   6.461
12273TIP3   OH236761   6.982   4.539   4.276
12273TIP3    H136762   7.034   4.459   4.271
12273TIP3    H236763   6.943   4.536   4.363
12274TIP3   OH236764   2.575   2.267   2.318
12274TIP3    H136765   2.649   2.248   2.261
12274TIP3    H236766   2.539   2.349   2.284
12275TIP3   OH236767   7.567   1.932   6.402
12275TIP3    H136768   7.596   1.985   6.328
12275TIP3    H236769   7.483   1.970   6.427
12276TIP3   OH236770   3.825   1.858   1.235
12276TIP3    H136771   3.800   1.820   1.319
12276TIP3    H236772   3.921   1.853   1.233
12277TIP3   OH236773   3.372   6.307   4.327
12277TIP3    H136774   3.380   6.291   4.421
12277TIP3    H236775   3.382   6.402   4.318
12278TIP3   OH236776   5.486   7.537   6.568
12278TIP3    H136777   5.477   7.563   6.660
12278TIP3    H236778   5.566   7.580   6.538
12279TIP3   OH236779   5.672   1.256   2.518
12279TIP3    H136780   5.620   1.326   2.478
12279TIP3    H236781   5.679   1.190   2.449
12280TIP3   OH236782   4.193   0.827   3.783
12280TIP3    H136783   4.263   0.859   3.840
12280TIP3    H236784   4.129   0.789   3.842
12281TIP3   OH236785   7.492   3.776   0.910
12281TIP3    H136786   7.502   3.853   0.853
12281TIP3    H236787   7.561   3.716   0.882
12282TIP3   OH236788   7.008   1.605   3.916
12282TIP3    H136789   6.979   1.696   3.918
12282TIP3    H236790   7.019   1.585   3.824
12283TIP3   OH236791   3.050   1.222   5.879
12283TIP3    H136792   2.963   1.248   5.851
12283TIP3    H236793   3.104   1.300   5.864
12284TIP3   OH236794   6.282   4.227   0.237
12284TIP3    H136795   6.268   4.296   0.303
12284TIP3    H236796   6.377   4.225   0.225
12285TIP3   OH236797   7.319   0.020   5.396
12285TIP3    H136798   7.387   0.088   5.391
12285TIP3    H236799   7.241   0.067   5.426
12286TIP3   OH236800   4.204   5.822   5.137
12286TIP3    H136801   4.258   5.863   5.205
12286TIP3    H236802   4.156   5.895   5.097
12287TIP3   OH236803   2.864   3.549   4.056
12287TIP3    H136804   2.814   3.603   3.996
12287TIP3    H236805   2.937   3.517   4.004
12288TIP3   OH236806   6.403   2.209   1.141
12288TIP3    H136807   6.478   2.268   1.132
12288TIP3    H236808   6.396   2.193   1.236
12289TIP3   OH236809   4.425   1.812   0.066
12289TIP3    H136810   4.394   1.765   0.143
12289TIP3    H236811   4.370   1.890   0.062
12290TIP3   OH236812   4.796   4.755   6.076
12290TIP3    H136813   4.782   4.778   5.984
12290TIP3    H236814   4.787   4.838   6.123
12291TIP3   OH236815   7.942   6.084   0.500
12291TIP3    H136816   8.025   6.127   0.521
12291TIP3    H236817   7.941   6.006   0.555
12292TIP3   OH236818   6.801   6.433   5.141
12292TIP3    H136819   6.779   6.527   5.140
12292TIP3    H236820   6.719   6.389   5.118
12293TIP3   OH236821   2.957   1.558   5.945
12293TIP3    H136822   2.892   1.593   5.883
12293TIP3    H236823   2.919   1.577   6.031
12294TIP3   OH236824   4.406   2.146   4.888
12294TIP3    H136825   4.323   2.115   4.925
12294TIP3    H236826   4.392   2.141   4.793
12295TIP3   OH236827   4.202   0.278   5.175
12295TIP3    H136828   4.183   0.333   5.099
12295TIP3    H236829   4.147   0.201   5.163
12296TIP3   OH236830   2.905   1.970   1.544
12296TIP3    H136831   2.833   2.004   1.491
12296TIP3    H236832   2.885   1.877   1.554
12297TIP3   OH236833   7.418   3.446   2.918
12297TIP3    H136834   7.338   3.394   2.911
12297TIP3    H236835   7.405   3.501   2.995
12298TIP3   OH236836   1.445   7.399   6.380
12298TIP3    H136837   1.503   7.323   6.373
12298TIP3    H236838   1.357   7.364   6.370
12299TIP3   OH236839   4.569   0.068   4.626
12299TIP3    H136840   4.580  -0.006   4.566
12299TIP3    H236841   4.634   0.132   4.598
12300TIP3   OH236842   0.178   2.969   3.999
12300TIP3    H136843   0.159   2.933   3.912
12300TIP3    H236844   0.269   2.999   3.992
12301TIP3   OH236845   1.188   5.102   2.004
12301TIP3    H136846   1.183   5.195   2.029
12301TIP3    H236847   1.115   5.090   1.943
12302TIP3   OH236848   7.915   5.604   3.637
12302TIP3    H136849   7.879   5.516   3.633
12302TIP3    H236850   8.008   5.592   3.655
12303TIP3   OH236851   2.906   3.663   3.687
12303TIP3    H136852   2.944   3.719   3.754
12303TIP3    H236853   2.926   3.574   3.716
12304TIP3   OH236854   3.108   3.549   4.982
12304TIP3    H136855   3.045   3.500   4.929
12304TIP3    H236856   3.160   3.598   4.919
12305TIP3   OH236857   7.817   2.316   4.376
12305TIP3    H136858   7.897   2.343   4.420
12305TIP3    H236859   7.808   2.377   4.302
12306TIP3   OH236860   4.314   1.439   3.895
12306TIP3    H136861   4.342   1.414   3.983
12306TIP3    H236862   4.248   1.374   3.871
12307TIP3   OH236863   3.245   0.281   3.154
12307TIP3    H136864   3.241   0.355   3.093
12307TIP3    H236865   3.237   0.321   3.241
12308TIP3   OH236866   1.790   4.429   5.382
12308TIP3    H136867   1.714   4.467   5.426
12308TIP3    H236868   1.806   4.486   5.307
12309TIP3   OH236869   8.376   7.405   1.847
12309TIP3    H136870   8.363   7.316   1.816
12309TIP3    H236871   8.288   7.438   1.865
12310TIP3   OH236872   7.563   2.826   4.110
12310TIP3    H136873   7.542   2.763   4.179
12310TIP3    H236874   7.607   2.897   4.157
12311TIP3   OH236875   3.676   4.646   3.943
12311TIP3    H136876   3.745   4.649   3.876
12311TIP3    H236877   3.672   4.554   3.969
12312TIP3   OH236878   5.488   3.594   4.737
12312TIP3    H136879   5.425   3.531   4.701
12312TIP3    H236880   5.533   3.546   4.806
12313TIP3   OH236881   2.496   0.755   2.082
12313TIP3    H136882   2.456   0.677   2.119
12313TIP3    H236883   2.430   0.790   2.022
12314TIP3   OH236884   0.101   1.042  -0.048
12314TIP3    H136885   0.108   1.127  -0.004
12314TIP3    H236886   0.077   0.981   0.022
12315TIP3   OH236887   0.688   3.462   6.398
12315TIP3    H136888   0.683   3.556   6.379
12315TIP3    H236889   0.700   3.457   6.493
12316TIP3   OH236890   7.871   0.532   4.801
12316TIP3    H136891   7.797   0.592   4.805
12316TIP3    H236892   7.879   0.497   4.890
12317TIP3   OH236893   1.212   1.126   2.795
12317TIP3    H136894   1.220   1.198   2.732
12317TIP3    H236895   1.169   1.056   2.746
12318TIP3   OH236896   6.619   4.860   1.290
12318TIP3    H136897   6.568   4.843   1.211
12318TIP3    H236898   6.625   4.775   1.334
12319TIP3   OH236899   4.423   0.029   0.048
12319TIP3    H136900   4.394   0.043   0.138
12319TIP3    H236901   4.500   0.085   0.038
12320TIP3   OH236902   0.408   1.602   4.073
12320TIP3    H136903   0.347   1.532   4.093
12320TIP3    H236904   0.457   1.570   3.997
12321TIP3   OH236905   0.341   4.719   2.849
12321TIP3    H136906   0.271   4.656   2.829
12321TIP3    H236907   0.329   4.739   2.942
12322TIP3   OH236908   1.756   5.352   1.168
12322TIP3    H136909   1.734   5.324   1.079
12322TIP3    H236910   1.812   5.281   1.201
12323TIP3   OH236911   6.574   5.839   6.725
12323TIP3    H136912   6.668   5.820   6.733
12323TIP3    H236913   6.571   5.933   6.705
12324TIP3   OH236914   2.447   4.771   5.319
12324TIP3    H136915   2.539   4.750   5.306
12324TIP3    H236916   2.447   4.842   5.383
12325TIP3   OH236917   6.623   0.772   5.831
12325TIP3    H136918   6.643   0.861   5.802
12325TIP3    H236919   6.541   0.780   5.880
12326TIP3   OH236920   6.402   3.406   6.029
12326TIP3    H136921   6.391   3.363   5.944
12326TIP3    H236922   6.397   3.336   6.093
12327TIP3   OH236923   7.117   0.038   6.734
12327TIP3    H136924   7.174   0.114   6.734
12327TIP3    H236925   7.117   0.008   6.643
12328TIP3   OH236926   6.101   4.421   1.917
12328TIP3    H136927   6.191   4.417   1.949
12328TIP3    H236928   6.076   4.513   1.927
12329TIP3   OH236929   8.189   0.495   1.856
12329TIP3    H136930   8.260   0.439   1.886
12329TIP3    H236931   8.111   0.440   1.864
12330TIP3   OH236932   5.927   0.528   4.177
12330TIP3    H136933   5.960   0.490   4.258
12330TIP3    H236934   5.906   0.452   4.122
12331TIP3   OH236935   1.860   4.239   4.028
12331TIP3    H136936   1.844   4.293   4.105
12331TIP3    H236937   1.921   4.290   3.975
12332TIP3   OH236938   3.926   0.855   4.979
12332TIP3    H136939   3.999   0.907   4.945
12332TIP3    H236940   3.944   0.846   5.073
12333TIP3   OH236941   5.092   4.795   0.147
12333TIP3    H136942   5.025   4.858   0.122
12333TIP3    H236943   5.053   4.745   0.218
12334TIP3   OH236944   7.538   3.959   0.692
12334TIP3    H136945   7.556   4.052   0.709
12334TIP3    H236946   7.617   3.929   0.646
12335TIP3   OH236947   3.341   6.809   5.613
12335TIP3    H136948   3.394   6.743   5.568
12335TIP3    H236949   3.252   6.794   5.582
12336TIP3   OH236950   8.167   6.316   5.461
12336TIP3    H136951   8.232   6.364   5.409
12336TIP3    H236952   8.096   6.297   5.400
12337TIP3   OH236953   0.017   5.101   2.453
12337TIP3    H136954   0.083   5.144   2.398
12337TIP3    H236955   0.051   5.013   2.467
12338TIP3   OH236956   3.714   1.416   3.000
12338TIP3    H136957   3.700   1.336   3.050
12338TIP3    H236958   3.642   1.419   2.937
12339TIP3   OH236959   4.605   7.574   1.831
12339TIP3    H136960   4.677   7.556   1.892
12339TIP3    H236961   4.551   7.495   1.835
12340TIP3   OH236962   2.006   7.410   6.778
12340TIP3    H136963   2.045   7.325   6.796
12340TIP3    H236964   2.068   7.453   6.718
12341TIP3   OH236965   5.451   0.954   3.278
12341TIP3    H136966   5.389   0.881   3.275
12341TIP3    H236967   5.416   1.012   3.346
12342TIP3   OH236968   2.821   5.716   3.008
12342TIP3    H136969   2.758   5.763   3.062
12342TIP3    H236970   2.880   5.783   2.975
12343TIP3   OH236971   1.746   3.221   1.957
12343TIP3    H136972   1.821   3.205   1.899
12343TIP3    H236973   1.779   3.283   2.022
12344TIP3   OH236974   5.128   2.259   0.099
12344TIP3    H136975   5.196   2.195   0.119
12344TIP3    H236976   5.058   2.240   0.161
12345TIP3   OH236977   1.000   2.624   4.073
12345TIP3    H136978   0.991   2.698   4.134
12345TIP3    H236979   1.078   2.644   4.022
12346TIP3   OH236980   6.768   4.093   2.788
12346TIP3    H136981   6.717   4.171   2.765
12346TIP3    H236982   6.848   4.128   2.827
12347TIP3   OH236983   2.844   5.069   1.556
12347TIP3    H136984   2.917   5.033   1.505
12347TIP3    H236985   2.821   5.000   1.618
12348TIP3   OH236986   0.886   0.204   0.797
12348TIP3    H136987   0.854   0.254   0.722
12348TIP3    H236988   0.947   0.263   0.841
12349TIP3   OH236989   4.543   1.034   2.214
12349TIP3    H136990   4.596   0.955   2.205
12349TIP3    H236991   4.529   1.043   2.308
12350TIP3   OH236992   0.913   6.182   0.495
12350TIP3    H136993   0.969   6.245   0.541
12350TIP3    H236994   0.917   6.210   0.403
12351TIP3   OH236995   2.687   0.370   2.844
12351TIP3    H136996   2.647   0.401   2.763
12351TIP3    H236997   2.734   0.445   2.879
12352TIP3   OH236998   7.341   4.507   5.039
12352TIP3    H136999   7.281   4.455   4.986
12352TIP3    H237000   7.295   4.521   5.122
12353TIP3   OH237001   7.139   5.316   2.845
12353TIP3    H137002   7.223   5.316   2.798
12353TIP3    H237003   7.085   5.379   2.798
12354TIP3   OH237004   4.779   4.272   2.066
12354TIP3    H137005   4.722   4.295   2.139
12354TIP3    H237006   4.838   4.205   2.101
12355TIP3   OH237007   4.743   0.328   3.427
12355TIP3    H137008   4.762   0.420   3.445
12355TIP3    H237009   4.657   0.313   3.464
12356TIP3   OH237010   4.998   7.756   4.924
12356TIP3    H137011   5.027   7.839   4.886
12356TIP3    H237012   5.003   7.693   4.853
12357TIP3   OH237013   4.616   6.704   4.387
12357TIP3    H137014   4.557   6.765   4.342
12357TIP3    H237015   4.563   6.668   4.458
12358TIP3   OH237016   6.120   2.935   5.540
12358TIP3    H137017   6.127   2.896   5.453
12358TIP3    H237018   6.165   2.873   5.598
12359TIP3   OH237019   1.184   5.920   3.064
12359TIP3    H137020   1.169   5.903   3.157
12359TIP3    H237021   1.253   5.859   3.039
12360TIP3   OH237022   4.528   6.376   5.628
12360TIP3    H137023   4.494   6.455   5.586
12360TIP3    H237024   4.604   6.351   5.576
12361TIP3   OH237025   3.586   2.652   6.304
12361TIP3    H137026   3.634   2.574   6.332
12361TIP3    H237027   3.588   2.648   6.208
12362TIP3   OH237028   6.043   4.966   3.084
12362TIP3    H137029   6.057   4.903   3.155
12362TIP3    H237030   6.007   4.914   3.013
12363TIP3   OH237031   5.020   4.661   3.730
12363TIP3    H137032   5.057   4.614   3.805
12363TIP3    H237033   5.090   4.661   3.665
12364TIP3   OH237034   0.078   1.245   6.369
12364TIP3    H137035   0.115   1.157   6.382
12364TIP3    H237036   0.119   1.299   6.436
12365TIP3   OH237037   1.269   5.054   6.243
12365TIP3    H137038   1.306   5.141   6.259
12365TIP3    H237039   1.321   4.996   6.299
12366TIP3   OH237040   6.430   5.746   1.060
12366TIP3    H137041   6.431   5.818   1.123
12366TIP3    H237042   6.509   5.696   1.080
12367TIP3   OH237043   7.991   2.989   4.576
12367TIP3    H137044   8.023   2.998   4.666
12367TIP3    H237045   8.068   3.003   4.522
12368TIP3   OH237046   5.065   4.611   1.429
12368TIP3    H137047   5.010   4.634   1.355
12368TIP3    H237048   5.090   4.520   1.414
12369TIP3   OH237049   7.972   6.211   5.295
12369TIP3    H137050   7.959   6.246   5.207
12369TIP3    H237051   7.888   6.226   5.340
12370TIP3   OH237052   3.547   1.478   4.693
12370TIP3    H137053   3.537   1.388   4.661
12370TIP3    H237054   3.516   1.533   4.621
12371TIP3   OH237055   2.338   0.182   4.785
12371TIP3    H137056   2.420   0.203   4.830
12371TIP3    H237057   2.333   0.246   4.714
12372TIP3   OH237058   2.844   5.247   6.263
12372TIP3    H137059   2.756   5.214   6.248
12372TIP3    H237060   2.877   5.195   6.336
12373TIP3   OH237061   6.758   7.455   5.818
12373TIP3    H137062   6.764   7.361   5.833
12373TIP3    H237063   6.836   7.475   5.766
12374TIP3   OH237064   5.747   6.775   4.657
12374TIP3    H137065   5.735   6.769   4.562
12374TIP3    H237066   5.786   6.691   4.682
12375TIP3   OH237067   4.808   3.153   5.147
12375TIP3    H137068   4.856   3.235   5.136
12375TIP3    H237069   4.773   3.133   5.061
12376TIP3   OH237070   1.572   2.671   0.444
12376TIP3    H137071   1.644   2.681   0.382
12376TIP3    H237072   1.542   2.760   0.460
12377TIP3   OH237073   6.812   7.712   3.377
12377TIP3    H137074   6.907   7.707   3.367
12377TIP3    H237075   6.782   7.622   3.369
12378TIP3   OH237076   7.346   1.962   3.457
12378TIP3    H137077   7.285   2.024   3.418
12378TIP3    H237078   7.294   1.914   3.521
12379TIP3   OH237079   1.374   7.411   4.731
12379TIP3    H137080   1.395   7.317   4.735
12379TIP3    H237081   1.336   7.424   4.645
12380TIP3   OH237082   3.569   5.261   3.230
12380TIP3    H137083   3.534   5.337   3.277
12380TIP3    H237084   3.540   5.186   3.282
12381TIP3   OH237085   0.685   6.342   6.169
12381TIP3    H137086   0.659   6.281   6.238
12381TIP3    H237087   0.714   6.421   6.215
12382TIP3   OH237088   4.350   4.660   1.717
12382TIP3    H137089   4.403   4.717   1.772
12382TIP3    H237090   4.376   4.681   1.628
12383TIP3   OH237091   5.136   1.393   1.600
12383TIP3    H137092   5.066   1.332   1.580
12383TIP3    H237093   5.094   1.479   1.595
12384TIP3   OH237094   0.563   5.308   5.384
12384TIP3    H137095   0.584   5.376   5.319
12384TIP3    H237096   0.498   5.349   5.441
12385TIP3   OH237097   2.680   6.149   4.367
12385TIP3    H137098   2.653   6.128   4.456
12385TIP3    H237099   2.723   6.234   4.374
12386TIP3   OH237100   2.888   1.837   0.617
12386TIP3    H137101   2.866   1.751   0.653
12386TIP3    H237102   2.818   1.895   0.647
12387TIP3   OH237103   5.681   0.716   6.324
12387TIP3    H137104   5.674   0.808   6.300
12387TIP3    H237105   5.629   0.670   6.258
12388TIP3   OH237106   5.183   2.359   5.543
12388TIP3    H137107   5.242   2.289   5.516
12388TIP3    H237108   5.191   2.425   5.474
12389TIP3   OH237109   1.045   7.750   5.154
12389TIP3    H137110   0.969   7.787   5.200
12389TIP3    H237111   1.081   7.686   5.216
12390TIP3   OH237112   0.833   0.910   4.244
12390TIP3    H137113   0.889   0.963   4.187
12390TIP3    H237114   0.775   0.974   4.286
12391TIP3   OH237115   4.481   2.321   2.825
12391TIP3    H137116   4.546   2.390   2.837
12391TIP3    H237117   4.397   2.367   2.829
12392TIP3   OH237118   1.185   6.605   0.939
12392TIP3    H137119   1.140   6.632   1.019
12392TIP3    H237120   1.278   6.605   0.963
12393TIP3   OH237121   0.583   3.759   6.655
12393TIP3    H137122   0.648   3.827   6.639
12393TIP3    H237123   0.558   3.728   6.568
12394TIP3   OH237124   1.213   1.324   2.594
12394TIP3    H137125   1.152   1.382   2.548
12394TIP3    H237126   1.247   1.266   2.526
12395TIP3   OH237127   0.570   1.177   4.560
12395TIP3    H137128   0.604   1.214   4.641
12395TIP3    H237129   0.501   1.237   4.533
12396TIP3   OH237130   5.264   7.407   5.680
12396TIP3    H137131   5.293   7.440   5.765
12396TIP3    H237132   5.258   7.312   5.692
12397TIP3   OH237133   5.576   0.333   3.296
12397TIP3    H137134   5.651   0.276   3.316
12397TIP3    H237135   5.500   0.285   3.331
12398TIP3   OH237136   3.248   1.295   0.697
12398TIP3    H137137   3.275   1.211   0.660
12398TIP3    H237138   3.157   1.282   0.724
12399TIP3   OH237139   2.020   5.346   2.756
12399TIP3    H137140   1.969   5.425   2.739
12399TIP3    H237141   1.956   5.281   2.785
12400TIP3   OH237142   4.629   4.187   3.647
12400TIP3    H137143   4.659   4.265   3.600
12400TIP3    H237144   4.643   4.209   3.739
12401TIP3   OH237145   7.054   4.374   1.325
12401TIP3    H137146   7.111   4.335   1.391
12401TIP3    H237147   7.042   4.465   1.354
12402TIP3   OH237148   2.182   7.335   3.042
12402TIP3    H137149   2.255   7.398   3.049
12402TIP3    H237150   2.182   7.290   3.127
12403TIP3   OH237151   4.418   7.539   5.042
12403TIP3    H137152   4.435   7.578   4.956
12403TIP3    H237153   4.323   7.529   5.045
12404TIP3   OH237154   3.259   4.990   5.781
12404TIP3    H137155   3.249   5.062   5.719
12404TIP3    H237156   3.354   4.976   5.786
12405TIP3   OH237157   4.148   5.771   0.751
12405TIP3    H137158   4.222   5.713   0.735
12405TIP3    H237159   4.158   5.798   0.843
12406TIP3   OH237160   2.728   2.467   3.205
12406TIP3    H137161   2.688   2.468   3.292
12406TIP3    H237162   2.777   2.549   3.200
12407TIP3   OH237163   1.343   7.395   5.604
12407TIP3    H137164   1.260   7.435   5.631
12407TIP3    H237165   1.318   7.326   5.542
12408TIP3   OH237166   1.714   6.568   1.201
12408TIP3    H137167   1.743   6.544   1.289
12408TIP3    H237168   1.771   6.517   1.143
12409TIP3   OH237169   7.019   4.825   3.654
12409TIP3    H137170   7.101   4.838   3.607
12409TIP3    H237171   6.953   4.869   3.600
12410TIP3   OH237172   7.960   0.518  -0.003
12410TIP3    H137173   7.948   0.545   0.088
12410TIP3    H237174   8.014   0.439   0.003
12411TIP3   OH237175   0.301   1.535   0.930
12411TIP3    H137176   0.249   1.586   0.993
12411TIP3    H237177   0.270   1.445   0.940
12412TIP3   OH237178   2.133   5.291   3.651
12412TIP3    H137179   2.137   5.238   3.731
12412TIP3    H237180   2.141   5.228   3.580
12413TIP3   OH237181   0.240   2.107   5.129
12413TIP3    H137182   0.151   2.095   5.164
12413TIP3    H237183   0.228   2.108   5.034
12414TIP3   OH237184   1.630   5.138   2.878
12414TIP3    H137185   1.626   5.090   2.795
12414TIP3    H237186   1.544   5.179   2.886
12415TIP3   OH237187   8.085   0.239   0.887
12415TIP3    H137188   8.148   0.169   0.907
12415TIP3    H237189   8.138   0.307   0.845
12416TIP3   OH237190   2.481   6.298   1.217
12416TIP3    H137191   2.523   6.382   1.234
12416TIP3    H237192   2.447   6.305   1.127
12417TIP3   OH237193   4.253   0.859   0.189
12417TIP3    H137194   4.310   0.783   0.188
12417TIP3    H237195   4.236   0.878   0.097
12418TIP3   OH237196   6.419   7.055   6.000
12418TIP3    H137197   6.387   7.057   5.910
12418TIP3    H237198   6.350   7.009   6.049
12419TIP3   OH237199   1.823   5.461   6.492
12419TIP3    H137200   1.774   5.411   6.556
12419TIP3    H237201   1.889   5.400   6.459
12420TIP3   OH237202   1.078   7.162   3.949
12420TIP3    H137203   1.105   7.105   4.021
12420TIP3    H237204   0.988   7.188   3.972
12421TIP3   OH237205   7.595   5.808   4.757
12421TIP3    H137206   7.685   5.836   4.740
12421TIP3    H237207   7.589   5.802   4.852
12422TIP3   OH237208   6.049   6.711   4.537
12422TIP3    H137209   6.041   6.674   4.449
12422TIP3    H237210   6.133   6.758   4.536
12423TIP3   OH237211   8.089   4.862   5.178
12423TIP3    H137212   8.175   4.879   5.215
12423TIP3    H237213   8.067   4.943   5.131
12424TIP3   OH237214   4.075   6.776   3.191
12424TIP3    H137215   4.033   6.801   3.273
12424TIP3    H237216   4.002   6.756   3.132
12425TIP3   OH237217   0.535   0.555   5.624
12425TIP3    H137218   0.576   0.489   5.680
12425TIP3    H237219   0.577   0.637   5.649
12426TIP3   OH237220   2.364   1.254   4.370
12426TIP3    H137221   2.269   1.270   4.372
12426TIP3    H237222   2.374   1.179   4.311
12427TIP3   OH237223   4.964   1.286   4.746
12427TIP3    H137224   4.988   1.210   4.799
12427TIP3    H237225   4.987   1.261   4.656
12428TIP3   OH237226   2.866   4.051   3.289
12428TIP3    H137227   2.853   4.051   3.195
12428TIP3    H237228   2.880   3.959   3.312
12429TIP3   OH237229   2.137   1.425   0.184
12429TIP3    H137230   2.189   1.496   0.146
12429TIP3    H237231   2.079   1.398   0.112
12430TIP3   OH237232   1.831   5.980   6.612
12430TIP3    H137233   1.803   6.068   6.638
12430TIP3    H237234   1.927   5.985   6.611
12431TIP3   OH237235   6.598   2.409   6.361
12431TIP3    H137236   6.588   2.358   6.281
12431TIP3    H237237   6.513   2.404   6.404
12432TIP3   OH237238   3.718   6.048   2.446
12432TIP3    H137239   3.695   5.957   2.431
12432TIP3    H237240   3.812   6.053   2.428
12433TIP3   OH237241   4.395   3.366   3.441
12433TIP3    H137242   4.471   3.423   3.436
12433TIP3    H237243   4.364   3.360   3.350
12434TIP3   OH237244   3.490   0.795   0.167
12434TIP3    H137245   3.447   0.713   0.143
12434TIP3    H237246   3.437   0.863   0.125
12435TIP3   OH237247   4.207   1.561   3.405
12435TIP3    H137248   4.187   1.478   3.361
12435TIP3    H237249   4.201   1.540   3.498
12436TIP3   OH237250   4.811   1.223   2.160
12436TIP3    H137251   4.838   1.280   2.088
12436TIP3    H237252   4.764   1.152   2.118
12437TIP3   OH237253   4.418   4.064   4.191
12437TIP3    H137254   4.472   3.996   4.150
12437TIP3    H237255   4.336   4.020   4.212
12438TIP3   OH237256   5.387   1.440   3.007
12438TIP3    H137257   5.436   1.389   2.942
12438TIP3    H237258   5.436   1.427   3.088
12439TIP3   OH237259   7.885   3.623   2.649
12439TIP3    H137260   7.885   3.527   2.650
12439TIP3    H237261   7.838   3.647   2.728
12440TIP3   OH237262   5.509   7.378   3.638
12440TIP3    H137263   5.455   7.431   3.580
12440TIP3    H237264   5.552   7.315   3.580
12441TIP3   OH237265   2.868   2.715   3.206
12441TIP3    H137266   2.938   2.723   3.141
12441TIP3    H237267   2.911   2.728   3.290
12442TIP3   OH237268   4.494   5.112   3.121
12442TIP3    H137269   4.551   5.167   3.174
12442TIP3    H237270   4.527   5.024   3.133
12443TIP3   OH237271   1.309   2.148   2.047
12443TIP3    H137272   1.372   2.167   2.117
12443TIP3    H237273   1.338   2.064   2.011
12444TIP3   OH237274   0.661   2.390   6.768
12444TIP3    H137275   0.657   2.318   6.705
12444TIP3    H237276   0.677   2.468   6.715
12445TIP3   OH237277   3.548   3.920   1.357
12445TIP3    H137278   3.642   3.932   1.347
12445TIP3    H237279   3.509   3.971   1.286
12446TIP3   OH237280   4.888   2.434   6.068
12446TIP3    H137281   4.932   2.499   6.014
12446TIP3    H237282   4.959   2.395   6.121
12447TIP3   OH237283   5.467   0.355   2.667
12447TIP3    H137284   5.508   0.374   2.582
12447TIP3    H237285   5.539   0.364   2.730
12448TIP3   OH237286   5.969   2.423   6.455
12448TIP3    H137287   6.001   2.338   6.487
12448TIP3    H237288   5.914   2.455   6.526
12449TIP3   OH237289   2.963   0.469   2.635
12449TIP3    H137290   3.032   0.528   2.607
12449TIP3    H237291   2.925   0.510   2.713
12450TIP3   OH237292   5.349   3.181   4.243
12450TIP3    H137293   5.284   3.251   4.249
12450TIP3    H237294   5.400   3.201   4.165
12451TIP3   OH237295   1.777   1.566   5.582
12451TIP3    H137296   1.780   1.573   5.678
12451TIP3    H237297   1.771   1.657   5.552
12452TIP3   OH237298   4.577   6.335   3.440
12452TIP3    H137299   4.552   6.384   3.518
12452TIP3    H237300   4.528   6.377   3.368
12453TIP3   OH237301   7.180   5.912   5.299
12453TIP3    H137302   7.236   5.989   5.307
12453TIP3    H237303   7.138   5.922   5.214
12454TIP3   OH237304   7.935   2.709   3.250
12454TIP3    H137305   7.957   2.773   3.182
12454TIP3    H237306   7.921   2.627   3.203
12455TIP3   OH237307   6.864   7.497   6.201
12455TIP3    H137308   6.826   7.423   6.154
12455TIP3    H237309   6.952   7.505   6.165
12456TIP3   OH237310   2.303   3.554   5.964
12456TIP3    H137311   2.290   3.577   6.056
12456TIP3    H237312   2.374   3.611   5.935
12457TIP3   OH237313   6.981   4.777   5.123
12457TIP3    H137314   7.058   4.790   5.069
12457TIP3    H237315   7.008   4.803   5.211
12458TIP3   OH237316   4.090   4.984   4.967
12458TIP3    H137317   4.181   4.964   4.944
12458TIP3    H237318   4.061   4.906   5.015
12459TIP3   OH237319   4.662   0.530   1.160
12459TIP3    H137320   4.652   0.439   1.133
12459TIP3    H237321   4.697   0.525   1.249
12460TIP3   OH237322   3.954   3.070   1.418
12460TIP3    H137323   4.022   3.011   1.450
12460TIP3    H237324   3.965   3.151   1.469
12461TIP3   OH237325   7.390   0.588   3.836
12461TIP3    H137326   7.462   0.645   3.808
12461TIP3    H237327   7.356   0.550   3.755
12462TIP3   OH237328   7.423   2.996   6.561
12462TIP3    H137329   7.351   3.058   6.578
12462TIP3    H237330   7.389   2.911   6.590
12463TIP3   OH237331   3.975   7.826   6.142
12463TIP3    H137332   3.961   7.758   6.075
12463TIP3    H237333   3.889   7.837   6.183
12464TIP3   OH237334   6.628   3.723   2.295
12464TIP3    H137335   6.661   3.695   2.209
12464TIP3    H237336   6.680   3.673   2.358
12465TIP3   OH237337   4.877   0.123   3.312
12465TIP3    H137338   4.815   0.105   3.242
12465TIP3    H237339   4.833   0.188   3.367
12466TIP3   OH237340   2.332   7.704   2.089
12466TIP3    H137341   2.403   7.704   2.153
12466TIP3    H237342   2.371   7.740   2.010
12467TIP3   OH237343   0.490   4.177   4.528
12467TIP3    H137344   0.536   4.141   4.603
12467TIP3    H237345   0.517   4.269   4.526
12468TIP3   OH237346   5.608   6.388   2.019
12468TIP3    H137347   5.558   6.307   2.008
12468TIP3    H237348   5.544   6.452   2.051
12469TIP3   OH237349   0.107   6.531   3.097
12469TIP3    H137350   0.172   6.490   3.154
12469TIP3    H237351   0.124   6.625   3.104
12470TIP3   OH237352   4.206   6.302   2.760
12470TIP3    H137353   4.234   6.216   2.793
12470TIP3    H237354   4.254   6.365   2.815
12471TIP3   OH237355   7.786   7.334   1.275
12471TIP3    H137356   7.799   7.309   1.366
12471TIP3    H237357   7.709   7.283   1.247
12472TIP3   OH237358   4.155   4.938   6.268
12472TIP3    H137359   4.124   4.851   6.290
12472TIP3    H237360   4.227   4.954   6.330
12473TIP3   OH237361   2.467   3.049   4.374
12473TIP3    H137362   2.517   3.099   4.438
12473TIP3    H237363   2.377   3.053   4.405
12474TIP3   OH237364   2.947   2.101   1.812
12474TIP3    H137365   2.956   2.054   1.729
12474TIP3    H237366   2.878   2.165   1.797
12475TIP3   OH237367   4.767   7.159   2.233
12475TIP3    H137368   4.774   7.185   2.141
12475TIP3    H237369   4.830   7.214   2.278
12476TIP3   OH237370   2.167   1.025   6.754
12476TIP3    H137371   2.227   1.042   6.681
12476TIP3    H237372   2.088   1.074   6.732
12477TIP3   OH237373   4.401   7.038   2.499
12477TIP3    H137374   4.438   7.113   2.452
12477TIP3    H237375   4.360   6.985   2.431
12478TIP3   OH237376   1.462   1.780   2.842
12478TIP3    H137377   1.404   1.728   2.899
12478TIP3    H237378   1.489   1.718   2.775
12479TIP3   OH237379   3.872   6.475   0.256
12479TIP3    H137380   3.865   6.568   0.232
12479TIP3    H237381   3.802   6.461   0.320
12480TIP3   OH237382   2.130   6.122   0.000
12480TIP3    H137383   2.064   6.053   0.009
12480TIP3    H237384   2.212   6.077   0.021
12481TIP3   OH237385   6.452   3.627   3.702
12481TIP3    H137386   6.389   3.573   3.750
12481TIP3    H237387   6.500   3.565   3.647
12482TIP3   OH237388   0.802   2.241   3.490
12482TIP3    H137389   0.832   2.330   3.502
12482TIP3    H237390   0.713   2.250   3.454
12483TIP3   OH237391   1.810   0.932   5.687
12483TIP3    H137392   1.897   0.909   5.721
12483TIP3    H237393   1.781   0.853   5.641
12484TIP3   OH237394   3.935   2.658   2.237
12484TIP3    H137395   3.886   2.726   2.191
12484TIP3    H237396   3.896   2.655   2.324
12485TIP3   OH237397   2.770   4.869   1.726
12485TIP3    H137398   2.710   4.798   1.749
12485TIP3    H237399   2.803   4.901   1.810
12486TIP3   OH237400   4.482   1.666   2.628
12486TIP3    H137401   4.500   1.701   2.716
12486TIP3    H237402   4.516   1.733   2.569
12487TIP3   OH237403   2.974   0.134   0.662
12487TIP3    H137404   3.021   0.059   0.696
12487TIP3    H237405   2.989   0.131   0.568
12488TIP3   OH237406   4.146   4.806   6.581
12488TIP3    H137407   4.178   4.811   6.671
12488TIP3    H237408   4.219   4.839   6.528
12489TIP3   OH237409   5.845   3.293   5.314
12489TIP3    H137410   5.884   3.216   5.272
12489TIP3    H237411   5.899   3.308   5.392
12490TIP3   OH237412   8.260   6.613   3.558
12490TIP3    H137413   8.297   6.549   3.497
12490TIP3    H237414   8.215   6.561   3.624
12491TIP3   OH237415   0.488   4.562   1.704
12491TIP3    H137416   0.479   4.638   1.646
12491TIP3    H237417   0.428   4.579   1.776
12492TIP3   OH237418   2.546   2.595   0.940
12492TIP3    H137419   2.583   2.674   0.899
12492TIP3    H237420   2.452   2.614   0.948
12493TIP3   OH237421   4.647   3.371   6.125
12493TIP3    H137422   4.670   3.278   6.131
12493TIP3    H237423   4.731   3.416   6.121
12494TIP3   OH237424   6.219   3.333   1.716
12494TIP3    H137425   6.285   3.383   1.670
12494TIP3    H237426   6.154   3.398   1.744
12495TIP3   OH237427   2.679   3.755   2.727
12495TIP3    H137428   2.724   3.774   2.645
12495TIP3    H237429   2.737   3.694   2.773
12496TIP3   OH237430   0.220   3.462   6.245
12496TIP3    H137431   0.233   3.467   6.340
12496TIP3    H237432   0.302   3.427   6.211
12497TIP3   OH237433   3.724   6.527   3.733
12497TIP3    H137434   3.788   6.471   3.689
12497TIP3    H237435   3.656   6.467   3.763
12498TIP3   OH237436   3.027   3.730   1.932
12498TIP3    H137437   2.944   3.702   1.896
12498TIP3    H237438   3.093   3.676   1.887
12499TIP3   OH237439   1.600   6.205   2.372
12499TIP3    H137440   1.679   6.256   2.389
12499TIP3    H237441   1.542   6.225   2.445
12500TIP3   OH237442   3.858   3.113   1.768
12500TIP3    H137443   3.942   3.139   1.731
12500TIP3    H237444   3.795   3.175   1.731
12501TIP3   OH237445   5.847   0.331   5.178
12501TIP3    H137446   5.783   0.342   5.107
12501TIP3    H237447   5.889   0.247   5.159
12502TIP3   OH237448   7.162   6.773   4.017
12502TIP3    H137449   7.146   6.861   4.053
12502TIP3    H237450   7.102   6.717   4.066
12503TIP3   OH237451   5.375   0.432   2.060
12503TIP3    H137452   5.283   0.445   2.085
12503TIP3    H237453   5.425   0.482   2.124
12504TIP3   OH237454   7.243   4.261   0.968
12504TIP3    H137455   7.176   4.299   0.912
12504TIP3    H237456   7.202   4.182   1.005
12505TIP3   OH237457   2.028   6.615   5.490
12505TIP3    H137458   1.937   6.639   5.475
12505TIP3    H237459   2.071   6.698   5.512
12506TIP3   OH237460   5.569   0.016   0.679
12506TIP3    H137461   5.513   0.023   0.756
12506TIP3    H237462   5.583   0.107   0.652
12507TIP3   OH237463   3.535   3.879   0.270
12507TIP3    H137464   3.478   3.955   0.266
12507TIP3    H237465   3.476   3.804   0.279
12508TIP3   OH237466   3.185   7.241   6.668
12508TIP3    H137467   3.173   7.331   6.700
12508TIP3    H237468   3.195   7.250   6.573
12509TIP3   OH237469   6.999   1.696   4.940
12509TIP3    H137470   6.934   1.732   5.000
12509TIP3    H237471   6.951   1.680   4.859
12510TIP3   OH237472   0.601   1.586   0.058
12510TIP3    H137473   0.570   1.651   0.122
12510TIP3    H237474   0.535   1.517   0.061
12511TIP3   OH237475   4.952   5.531   2.541
12511TIP3    H137476   4.901   5.458   2.575
12511TIP3    H237477   4.930   5.535   2.448
12512TIP3   OH237478   6.881   6.618   1.204
12512TIP3    H137479   6.801   6.567   1.212
12512TIP3    H237480   6.908   6.635   1.294
12513TIP3   OH237481   1.149   4.141   2.378
12513TIP3    H137482   1.120   4.182   2.297
12513TIP3    H237483   1.241   4.117   2.361
12514TIP3   OH237484   3.177   4.186   1.865
12514TIP3    H137485   3.162   4.270   1.909
12514TIP3    H237486   3.248   4.203   1.803
12515TIP3   OH237487   0.327   7.547   5.914
12515TIP3    H137488   0.234   7.552   5.892
12515TIP3    H237489   0.333   7.478   5.979
12516TIP3   OH237490   1.495   3.974   5.905
12516TIP3    H137491   1.562   3.914   5.871
12516TIP3    H237492   1.426   3.973   5.839
12517TIP3   OH237493   6.880   5.032   1.876
12517TIP3    H137494   6.865   5.108   1.932
12517TIP3    H237495   6.931   5.066   1.802
12518TIP3   OH237496   2.629   2.484   3.445
12518TIP3    H137497   2.570   2.557   3.466
12518TIP3    H237498   2.583   2.406   3.476
12519TIP3   OH237499   6.902   0.997   1.827
12519TIP3    H137500   6.951   0.939   1.886
12519TIP3    H237501   6.895   0.948   1.745
12520TIP3   OH237502   4.962   3.764   3.831
12520TIP3    H137503   4.934   3.689   3.778
12520TIP3    H237504   4.898   3.832   3.811
12521TIP3   OH237505   6.226   1.245   0.396
12521TIP3    H137506   6.203   1.271   0.307
12521TIP3    H237507   6.143   1.221   0.436
12522TIP3   OH237508   2.033   3.113   4.043
12522TIP3    H137509   1.962   3.073   3.994
12522TIP3    H237510   2.072   3.041   4.093
12523TIP3   OH237511   7.757   5.033   5.986
12523TIP3    H137512   7.664   5.046   5.965
12523TIP3    H237513   7.757   4.992   6.073
12524TIP3   OH237514   1.465   5.279   3.210
12524TIP3    H137515   1.472   5.217   3.138
12524TIP3    H237516   1.493   5.230   3.287
12525TIP3   OH237517   0.860   3.227   3.348
12525TIP3    H137518   0.944   3.272   3.351
12525TIP3    H237519   0.845   3.199   3.439
12526TIP3   OH237520   2.964   1.971   3.579
12526TIP3    H137521   2.962   1.991   3.673
12526TIP3    H237522   2.912   1.891   3.570
12527TIP3   OH237523   5.724   1.049   1.007
12527TIP3    H137524   5.757   0.985   0.945
12527TIP3    H237525   5.787   1.048   1.079
12528TIP3   OH237526   1.597   7.171   6.339
12528TIP3    H137527   1.681   7.201   6.375
12528TIP3    H237528   1.606   7.076   6.335
12529TIP3   OH237529   0.233   6.339   5.137
12529TIP3    H137530   0.268   6.261   5.094
12529TIP3    H237531   0.310   6.391   5.160
12530TIP3   OH237532   0.634   7.354   5.079
12530TIP3    H137533   0.624   7.442   5.116
12530TIP3    H237534   0.575   7.353   5.004
12531TIP3   OH237535   2.108   4.835   4.170
12531TIP3    H137536   2.168   4.808   4.239
12531TIP3    H237537   2.056   4.758   4.151
12532TIP3   OH237538   6.495   2.714   0.477
12532TIP3    H137539   6.578   2.760   0.487
12532TIP3    H237540   6.488   2.698   0.383
12533TIP3   OH237541   7.961   6.559   2.189
12533TIP3    H137542   8.029   6.559   2.121
12533TIP3    H237543   7.938   6.466   2.198
12534TIP3   OH237544   8.242   3.706   5.195
12534TIP3    H137545   8.243   3.762   5.273
12534TIP3    H237546   8.158   3.661   5.198
12535TIP3   OH237547   5.946   5.019   1.868
12535TIP3    H137548   5.911   5.016   1.956
12535TIP3    H237549   6.023   4.961   1.871
12536TIP3   OH237550   2.108   2.492   2.092
12536TIP3    H137551   2.036   2.536   2.045
12536TIP3    H237552   2.167   2.463   2.023
12537TIP3   OH237553   2.286   3.569   2.655
12537TIP3    H137554   2.344   3.637   2.622
12537TIP3    H237555   2.219   3.561   2.587
12538TIP3   OH237556   1.983   3.984   2.516
12538TIP3    H137557   1.966   3.892   2.536
12538TIP3    H237558   1.919   4.032   2.569
12539TIP3   OH237559   4.468   3.503   6.751
12539TIP3    H137560   4.483   3.517   6.844
12539TIP3    H237561   4.373   3.506   6.741
12540TIP3   OH237562   0.533   2.125   5.023
12540TIP3    H137563   0.441   2.149   5.014
12540TIP3    H237564   0.565   2.176   5.098
12541TIP3   OH237565   0.618   0.226   1.979
12541TIP3    H137566   0.572   0.288   1.923
12541TIP3    H237567   0.706   0.262   1.989
12542TIP3   OH237568   3.488   6.577   5.501
12542TIP3    H137569   3.429   6.591   5.427
12542TIP3    H237570   3.439   6.518   5.559
12543TIP3   OH237571   2.675   5.478   0.444
12543TIP3    H137572   2.597   5.524   0.414
12543TIP3    H237573   2.737   5.547   0.466
12544TIP3   OH237574   0.475   0.117   5.431
12544TIP3    H137575   0.394   0.084   5.391
12544TIP3    H237576   0.459   0.211   5.442
12545TIP3   OH237577   1.243   1.122   2.399
12545TIP3    H137578   1.314   1.059   2.388
12545TIP3    H237579   1.164   1.073   2.374
12546TIP3   OH237580   6.367   3.674   4.432
12546TIP3    H137581   6.392   3.593   4.388
12546TIP3    H237582   6.445   3.700   4.480
12547TIP3   OH237583   1.566   3.628   5.067
12547TIP3    H137584   1.509   3.579   5.126
12547TIP3    H237585   1.654   3.600   5.090
12548TIP3   OH237586   6.616   5.807   5.813
12548TIP3    H137587   6.610   5.847   5.900
12548TIP3    H237588   6.528   5.777   5.794
12549TIP3   OH237589   8.287   1.910   3.447
12549TIP3    H137590   8.260   1.918   3.355
12549TIP3    H237591   8.316   1.819   3.456
12550TIP3   OH237592   4.938   0.532   1.700
12550TIP3    H137593   4.999   0.583   1.648
12550TIP3    H237594   4.878   0.597   1.738
12551TIP3   OH237595   1.110   2.206   1.532
12551TIP3    H137596   1.183   2.175   1.585
12551TIP3    H237597   1.147   2.217   1.444
12552TIP3   OH237598   2.737   6.090   0.101
12552TIP3    H137599   2.824   6.056   0.079
12552TIP3    H237600   2.747   6.185   0.099
12553TIP3   OH237601   4.807   4.317   2.429
12553TIP3    H137602   4.866   4.354   2.495
12553TIP3    H237603   4.860   4.254   2.381
12554TIP3   OH237604   4.037   4.562   5.329
12554TIP3    H137605   4.127   4.595   5.323
12554TIP3    H237606   4.039   4.500   5.401
12555TIP3   OH237607   7.411   7.779   2.572
12555TIP3    H137608   7.394   7.802   2.664
12555TIP3    H237609   7.442   7.860   2.532
12556TIP3   OH237610   5.613   4.423   6.544
12556TIP3    H137611   5.671   4.468   6.606
12556TIP3    H237612   5.644   4.451   6.458
12557TIP3   OH237613   3.242   2.776   5.753
12557TIP3    H137614   3.328   2.808   5.778
12557TIP3    H237615   3.189   2.855   5.743
12558TIP3   OH237616   7.935   6.577   5.023
12558TIP3    H137617   7.900   6.664   5.042
12558TIP3    H237618   8.014   6.570   5.077
12559TIP3   OH237619   4.487   4.242   6.006
12559TIP3    H137620   4.439   4.304   6.061
12559TIP3    H237621   4.427   4.169   5.994
12560TIP3   OH237622   5.962   0.706   2.686
12560TIP3    H137623   6.043   0.671   2.648
12560TIP3    H237624   5.958   0.668   2.773
12561TIP3   OH237625   4.382   2.036   6.266
12561TIP3    H137626   4.440   1.964   6.245
12561TIP3    H237627   4.421   2.112   6.222
12562TIP3   OH237628   0.835   5.210   1.097
12562TIP3    H137629   0.813   5.121   1.122
12562TIP3    H237630   0.794   5.223   1.012
12563TIP3   OH237631   8.028   3.400   5.428
12563TIP3    H137632   7.950   3.344   5.422
12563TIP3    H237633   8.073   3.389   5.345
12564TIP3   OH237634   7.795   5.374   3.245
12564TIP3    H137635   7.848   5.453   3.255
12564TIP3    H237636   7.710   5.397   3.283
12565TIP3   OH237637   2.944   6.907   0.795
12565TIP3    H137638   2.913   6.910   0.886
12565TIP3    H237639   2.865   6.891   0.744
12566TIP3   OH237640   7.662   4.093   0.946
12566TIP3    H137641   7.752   4.118   0.966
12566TIP3    H237642   7.634   4.040   1.021
12567TIP3   OH237643   7.452   0.355   5.657
12567TIP3    H137644   7.545   0.356   5.633
12567TIP3    H237645   7.438   0.269   5.695
12568TIP3   OH237646   7.776   0.210   4.851
12568TIP3    H137647   7.794   0.274   4.920
12568TIP3    H237648   7.762   0.263   4.772
12569TIP3   OH237649   2.987   0.863   6.220
12569TIP3    H137650   3.016   0.871   6.311
12569TIP3    H237651   2.981   0.954   6.189
12570TIP3   OH237652   5.634   6.349   5.695
12570TIP3    H137653   5.722   6.313   5.692
12570TIP3    H237654   5.576   6.274   5.682
12571TIP3   OH237655   0.288   4.683   1.872
12571TIP3    H137656   0.270   4.761   1.924
12571TIP3    H237657   0.209   4.630   1.880
12572TIP3   OH237658   6.369   7.349   5.347
12572TIP3    H137659   6.399   7.426   5.394
12572TIP3    H237660   6.285   7.327   5.389
12573TIP3   OH237661   5.980   7.225   4.675
12573TIP3    H137662   6.070   7.252   4.695
12573TIP3    H237663   5.978   7.132   4.699
12574TIP3   OH237664   2.940   3.606   0.819
12574TIP3    H137665   2.893   3.683   0.785
12574TIP3    H237666   2.947   3.621   0.913
12575TIP3   OH237667   0.434   0.019   3.437
12575TIP3    H137668   0.464   0.064   3.516
12575TIP3    H237669   0.512   0.012   3.382
12576TIP3   OH237670   7.059   7.165   3.848
12576TIP3    H137671   7.013   7.098   3.897
12576TIP3    H237672   7.149   7.161   3.880
12577TIP3   OH237673   7.223   2.904   0.933
12577TIP3    H137674   7.197   2.995   0.914
12577TIP3    H237675   7.300   2.913   0.990
12578TIP3   OH237676   3.590   7.440   3.561
12578TIP3    H137677   3.602   7.468   3.470
12578TIP3    H237678   3.523   7.372   3.557
12579TIP3   OH237679   2.613   5.742   6.543
12579TIP3    H137680   2.545   5.679   6.568
12579TIP3    H237681   2.602   5.814   6.605
12580TIP3   OH237682   1.235   4.572   6.620
12580TIP3    H137683   1.141   4.591   6.612
12580TIP3    H237684   1.265   4.561   6.530
12581TIP3   OH237685   0.545   4.088   0.315
12581TIP3    H137686   0.630   4.093   0.271
12581TIP3    H237687   0.542   4.167   0.369
12582TIP3   OH237688   3.838   5.934   1.748
12582TIP3    H137689   3.922   5.936   1.794
12582TIP3    H237690   3.805   5.844   1.762
12583TIP3   OH237691   2.958   3.000   0.961
12583TIP3    H137692   2.976   2.913   0.926
12583TIP3    H237693   2.873   2.991   1.004
12584TIP3   OH237694   5.078   0.708   0.506
12584TIP3    H137695   5.083   0.635   0.444
12584TIP3    H237696   5.151   0.694   0.566
12585TIP3   OH237697   0.247   2.283   6.577
12585TIP3    H137698   0.182   2.336   6.532
12585TIP3    H237699   0.291   2.344   6.637
12586TIP3   OH237700   2.423   3.023   4.088
12586TIP3    H137701   2.496   3.075   4.053
12586TIP3    H237702   2.450   3.002   4.178
12587TIP3   OH237703   5.072   5.992   5.454
12587TIP3    H137704   4.993   5.986   5.507
12587TIP3    H237705   5.043   6.031   5.372
12588TIP3   OH237706   7.979   1.357   0.422
12588TIP3    H137707   7.998   1.264   0.434
12588TIP3    H237708   7.910   1.359   0.356
12589TIP3   OH237709   5.478   3.681   5.141
12589TIP3    H137710   5.521   3.628   5.074
12589TIP3    H237711   5.385   3.667   5.128
12590TIP3   OH237712   0.223   5.310   1.876
12590TIP3    H137713   0.149   5.353   1.918
12590TIP3    H237714   0.197   5.301   1.784
12591TIP3   OH237715   5.916   1.989   4.128
12591TIP3    H137716   5.944   2.011   4.217
12591TIP3    H237717   5.997   1.976   4.080
12592TIP3   OH237718   5.083   4.956   3.167
12592TIP3    H137719   5.177   4.959   3.151
12592TIP3    H237720   5.073   4.906   3.248
12593TIP3   OH237721   7.469   7.508   2.216
12593TIP3    H137722   7.406   7.500   2.288
12593TIP3    H237723   7.427   7.462   2.143
12594TIP3   OH237724   7.077   5.851   1.370
12594TIP3    H137725   7.021   5.860   1.448
12594TIP3    H237726   7.065   5.761   1.342
12595TIP3   OH237727   5.793   1.333   0.579
12595TIP3    H137728   5.730   1.403   0.562
12595TIP3    H237729   5.832   1.356   0.663
12596TIP3   OH237730   4.308   0.196   4.550
12596TIP3    H137731   4.281   0.277   4.593
12596TIP3    H237732   4.390   0.172   4.592
12597TIP3   OH237733   5.323   1.683   2.245
12597TIP3    H137734   5.303   1.672   2.338
12597TIP3    H237735   5.313   1.595   2.208
12598TIP3   OH237736   7.103   7.834   1.691
12598TIP3    H137737   7.082   7.854   1.600
12598TIP3    H237738   7.168   7.764   1.685
12599TIP3   OH237739   5.380   5.197   5.394
12599TIP3    H137740   5.446   5.208   5.462
12599TIP3    H237741   5.359   5.104   5.396
12600TIP3   OH237742   3.275   5.430   5.093
12600TIP3    H137743   3.318   5.371   5.155
12600TIP3    H237744   3.183   5.403   5.094
12601TIP3   OH237745   7.230   2.819   5.028
12601TIP3    H137746   7.321   2.816   5.058
12601TIP3    H237747   7.197   2.730   5.040
12602TIP3   OH237748   6.251   1.635   2.972
12602TIP3    H137749   6.282   1.615   2.884
12602TIP3    H237750   6.156   1.622   2.967
12603TIP3   OH237751   4.071   4.664   6.323
12603TIP3    H137752   4.088   4.574   6.298
12603TIP3    H237753   4.050   4.660   6.416
12604TIP3   OH237754   6.598   1.939   0.303
12604TIP3    H137755   6.576   1.946   0.396
12604TIP3    H237756   6.691   1.963   0.298
12605TIP3   OH237757   6.017   7.642   4.756
12605TIP3    H137758   6.023   7.633   4.851
12605TIP3    H237759   6.061   7.724   4.736
12606TIP3   OH237760   7.234   1.078   0.968
12606TIP3    H137761   7.187   1.157   0.941
12606TIP3    H237762   7.307   1.072   0.906
12607TIP3   OH237763   8.184   6.952   6.092
12607TIP3    H137764   8.191   6.857   6.088
12607TIP3    H237765   8.272   6.982   6.115
12608TIP3   OH237766   4.963   6.469   1.068
12608TIP3    H137767   4.949   6.542   1.007
12608TIP3    H237768   4.921   6.497   1.149
12609TIP3   OH237769   0.864   4.185   3.129
12609TIP3    H137770   0.820   4.100   3.140
12609TIP3    H237771   0.907   4.179   3.043
12610TIP3   OH237772   3.918   5.430   5.055
12610TIP3    H137773   3.833   5.393   5.077
12610TIP3    H237774   3.936   5.493   5.125
12611TIP3   OH237775   4.205   6.452   3.364
12611TIP3    H137776   4.260   6.527   3.341
12611TIP3    H237777   4.137   6.451   3.296
12612TIP3   OH237778   3.990   6.567   1.361
12612TIP3    H137779   3.981   6.516   1.442
12612TIP3    H237780   3.902   6.601   1.344
12613TIP3   OH237781   5.678   4.801   6.241
12613TIP3    H137782   5.606   4.845   6.196
12613TIP3    H237783   5.753   4.860   6.230
12614TIP3   OH237784   3.441   0.318   6.279
12614TIP3    H137785   3.412   0.367   6.356
12614TIP3    H237786   3.512   0.369   6.242
12615TIP3   OH237787   7.113   0.589   6.529
12615TIP3    H137788   7.201   0.603   6.494
12615TIP3    H237789   7.081   0.677   6.549
12616TIP3   OH237790   6.060   0.496   0.314
12616TIP3    H137791   5.997   0.564   0.290
12616TIP3    H237792   6.139   0.518   0.264
12617TIP3   OH237793   4.053   1.148   3.039
12617TIP3    H137794   4.010   1.106   2.964
12617TIP3    H237795   4.116   1.208   2.999
12618TIP3   OH237796   0.789   1.554   4.037
12618TIP3    H137797   0.754   1.553   3.947
12618TIP3    H237798   0.737   1.489   4.084
12619TIP3   OH237799   0.007   1.378   4.042
12619TIP3    H137800   0.027   1.470   4.030
12619TIP3    H237801  -0.051   1.375   4.118
12620TIP3   OH237802   5.911   1.627   1.077
12620TIP3    H137803   6.002   1.654   1.067
12620TIP3    H237804   5.912   1.534   1.052
12621TIP3   OH237805   2.073   5.585   0.670
12621TIP3    H137806   2.014   5.511   0.682
12621TIP3    H237807   2.130   5.560   0.597
12622TIP3   OH237808   2.592   4.929   6.347
12622TIP3    H137809   2.548   4.984   6.283
12622TIP3    H237810   2.675   4.905   6.306
12623TIP3   OH237811   3.240   5.860   4.943
12623TIP3    H137812   3.265   5.797   5.011
12623TIP3    H237813   3.184   5.810   4.884
12624TIP3   OH237814   6.459   4.030   0.516
12624TIP3    H137815   6.479   3.973   0.591
12624TIP3    H237816   6.364   4.024   0.507
12625TIP3   OH237817   5.799   2.554   0.607
12625TIP3    H137818   5.871   2.491   0.604
12625TIP3    H237819   5.819   2.617   0.538
12626TIP3   OH237820   1.017   1.363   5.537
12626TIP3    H137821   0.922   1.358   5.548
12626TIP3    H237822   1.044   1.274   5.516
12627TIP3   OH237823   0.618   0.205   1.581
12627TIP3    H137824   0.681   0.266   1.542
12627TIP3    H237825   0.668   0.159   1.648
12628TIP3   OH237826   4.491   1.606   1.435
12628TIP3    H137827   4.532   1.666   1.372
12628TIP3    H237828   4.551   1.606   1.510
12629TIP3   OH237829   6.627   7.643   4.831
12629TIP3    H137830   6.607   7.601   4.915
12629TIP3    H237831   6.591   7.732   4.840
12630TIP3   OH237832   6.875   2.413   3.089
12630TIP3    H137833   6.933   2.382   3.158
12630TIP3    H237834   6.884   2.509   3.092
12631TIP3   OH237835   6.951   3.562   4.165
12631TIP3    H137836   6.933   3.496   4.099
12631TIP3    H237837   6.866   3.600   4.187
12632TIP3   OH237838   1.796   0.953   3.118
12632TIP3    H137839   1.751   1.037   3.111
12632TIP3    H237840   1.881   0.974   3.157
12633TIP3   OH237841   2.675   5.067   5.481
12633TIP3    H137842   2.687   5.161   5.472
12633TIP3    H237843   2.745   5.029   5.426
12634TIP3   OH237844   2.276   6.385   1.592
12634TIP3    H137845   2.298   6.296   1.620
12634TIP3    H237846   2.340   6.441   1.637
12635TIP3   OH237847   4.001   6.201   4.385
12635TIP3    H137848   3.914   6.163   4.387
12635TIP3    H237849   3.988   6.293   4.405
12636TIP3   OH237850   0.915   2.852   0.215
12636TIP3    H137851   1.001   2.882   0.187
12636TIP3    H237852   0.860   2.931   0.216
12637TIP3   OH237853   4.779   2.489   0.022
12637TIP3    H137854   4.740   2.544  -0.046
12637TIP3    H237855   4.719   2.494   0.095
12638TIP3   OH237856   5.861   0.838   5.511
12638TIP3    H137857   5.881   0.925   5.475
12638TIP3    H237858   5.897   0.777   5.447
12639TIP3   OH237859   3.505   6.346   3.292
12639TIP3    H137860   3.490   6.300   3.374
12639TIP3    H237861   3.600   6.347   3.282
12640TIP3   OH237862   2.776   0.617   0.866
12640TIP3    H137863   2.741   0.546   0.812
12640TIP3    H237864   2.718   0.620   0.942
12641TIP3   OH237865   6.322   7.000   6.377
12641TIP3    H137866   6.392   7.065   6.369
12641TIP3    H237867   6.334   6.963   6.465
12642TIP3   OH237868   2.572   3.316   6.085
12642TIP3    H137869   2.513   3.337   6.013
12642TIP3    H237870   2.629   3.248   6.050
12643TIP3   OH237871   1.295   2.513   4.694
12643TIP3    H137872   1.383   2.502   4.658
12643TIP3    H237873   1.239   2.522   4.617
12644TIP3   OH237874   7.088   1.448   6.160
12644TIP3    H137875   7.089   1.389   6.085
12644TIP3    H237876   7.102   1.535   6.122
12645TIP3   OH237877   7.362   2.919   6.029
12645TIP3    H137878   7.427   2.940   5.962
12645TIP3    H237879   7.340   2.827   6.012
12646TIP3   OH237880   6.207   6.971   3.478
12646TIP3    H137881   6.211   6.916   3.400
12646TIP3    H237882   6.185   6.910   3.549
12647TIP3   OH237883   5.565   6.815   6.156
12647TIP3    H137884   5.565   6.735   6.103
12647TIP3    H237885   5.645   6.861   6.131
12648TIP3   OH237886   7.789   4.842   4.371
12648TIP3    H137887   7.841   4.764   4.387
12648TIP3    H237888   7.698   4.811   4.369
12649TIP3   OH237889   1.516   7.694   5.117
12649TIP3    H137890   1.611   7.686   5.111
12649TIP3    H237891   1.501   7.745   5.197
12650TIP3   OH237892   3.776   6.836   2.953
12650TIP3    H137893   3.770   6.830   2.858
12650TIP3    H237894   3.792   6.745   2.981
12651TIP3   OH237895   6.386   1.413   5.884
12651TIP3    H137896   6.476   1.419   5.914
12651TIP3    H237897   6.382   1.333   5.832
12652TIP3   OH237898   0.407   1.951   2.196
12652TIP3    H137899   0.443   2.033   2.161
12652TIP3    H237900   0.480   1.912   2.244
12653TIP3   OH237901   3.075   2.224   6.438
12653TIP3    H137902   3.016   2.289   6.400
12653TIP3    H237903   3.077   2.153   6.374
12654TIP3   OH237904   2.784   1.942   6.702
12654TIP3    H137905   2.709   1.995   6.673
12654TIP3    H237906   2.758   1.911   6.789
12655TIP3   OH237907   7.292   5.332   5.196
12655TIP3    H137908   7.286   5.428   5.189
12655TIP3    H237909   7.361   5.317   5.260
12656TIP3   OH237910   5.576   2.012   2.503
12656TIP3    H137911   5.601   2.084   2.561
12656TIP3    H237912   5.595   2.043   2.415
12657TIP3   OH237913   1.598   4.003   0.811
12657TIP3    H137914   1.690   3.998   0.839
12657TIP3    H237915   1.598   3.962   0.724
12658TIP3   OH237916   6.263   5.426   1.564
12658TIP3    H137917   6.254   5.351   1.624
12658TIP3    H237918   6.272   5.502   1.622
12659TIP3   OH237919   4.333   6.608   5.886
12659TIP3    H137920   4.391   6.669   5.841
12659TIP3    H237921   4.268   6.664   5.928
12660TIP3   OH237922   3.314   7.382   5.074
12660TIP3    H137923   3.229   7.374   5.118
12660TIP3    H237924   3.341   7.472   5.091
12661TIP3   OH237925   7.144   7.370   3.280
12661TIP3    H137926   7.233   7.394   3.305
12661TIP3    H237927   7.155   7.318   3.200
12662TIP3   OH237928   7.560   0.555   0.347
12662TIP3    H137929   7.651   0.583   0.339
12662TIP3    H237930   7.538   0.519   0.261
12663TIP3   OH237931   8.064   4.075   4.466
12663TIP3    H137932   8.013   3.994   4.458
12663TIP3    H237933   8.143   4.049   4.513
12664TIP3   OH237934   6.992   4.372   0.898
12664TIP3    H137935   6.936   4.356   0.821
12664TIP3    H237936   6.971   4.462   0.925
12665TIP3   OH237937   0.051   6.176   2.781
12665TIP3    H137938   0.135   6.133   2.797
12665TIP3    H237939   0.032   6.160   2.689
12666TIP3   OH237940   4.916   5.573   0.269
12666TIP3    H137941   4.956   5.557   0.354
12666TIP3    H237942   4.942   5.663   0.247
12667TIP3   OH237943   7.976   1.564   1.847
12667TIP3    H137944   7.881   1.565   1.846
12667TIP3    H237945   7.999   1.482   1.802
12668TIP3   OH237946   5.036   6.397   2.110
12668TIP3    H137947   4.953   6.413   2.066
12668TIP3    H237948   5.027   6.309   2.147
12669TIP3   OH237949   3.841   2.353   5.713
12669TIP3    H137950   3.876   2.317   5.631
12669TIP3    H237951   3.769   2.294   5.735
12670TIP3   OH237952   5.494   3.956   5.233
12670TIP3    H137953   5.579   4.000   5.221
12670TIP3    H237954   5.510   3.866   5.202
12671TIP3   OH237955   0.849   2.180   6.161
12671TIP3    H137956   0.881   2.205   6.074
12671TIP3    H237957   0.755   2.200   6.159
12672TIP3   OH237958   7.409   5.274   2.796
12672TIP3    H137959   7.430   5.308   2.883
12672TIP3    H237960   7.455   5.190   2.792
12673TIP3   OH237961   1.303   6.258   1.047
12673TIP3    H137962   1.209   6.261   1.032
12673TIP3    H237963   1.329   6.349   1.059
12674TIP3   OH237964   1.518   6.713   6.165
12674TIP3    H137965   1.591   6.696   6.106
12674TIP3    H237966   1.444   6.732   6.107
12675TIP3   OH237967   7.774   4.181   5.626
12675TIP3    H137968   7.839   4.116   5.599
12675TIP3    H237969   7.757   4.163   5.718
12676TIP3   OH237970   5.646   5.523   1.323
12676TIP3    H137971   5.667   5.608   1.362
12676TIP3    H237972   5.611   5.471   1.395
12677TIP3   OH237973   7.203   6.751   2.449
12677TIP3    H137974   7.205   6.681   2.384
12677TIP3    H237975   7.275   6.809   2.425
12678TIP3   OH237976   0.570   6.353   1.015
12678TIP3    H137977   0.650   6.404   1.027
12678TIP3    H237978   0.584   6.305   0.933
12679TIP3   OH237979   2.649   6.985   4.652
12679TIP3    H137980   2.724   6.928   4.633
12679TIP3    H237981   2.657   7.003   4.746
12680TIP3   OH237982   7.883   6.525   0.615
12680TIP3    H137983   7.844   6.449   0.571
12680TIP3    H237984   7.906   6.584   0.543
12681TIP3   OH237985   0.081   6.955   2.281
12681TIP3    H137986   0.021   6.966   2.355
12681TIP3    H237987   0.053   7.021   2.218
12682TIP3   OH237988   4.488   6.869   0.451
12682TIP3    H137989   4.508   6.963   0.453
12682TIP3    H237990   4.559   6.828   0.499
12683TIP3   OH237991   3.763   6.062   3.870
12683TIP3    H137992   3.676   6.064   3.830
12683TIP3    H237993   3.797   6.150   3.859
12684TIP3   OH237994   6.280   1.691   3.504
12684TIP3    H137995   6.259   1.678   3.412
12684TIP3    H237996   6.195   1.710   3.546
12685TIP3   OH237997   2.691   3.861   3.570
12685TIP3    H137998   2.731   3.792   3.623
12685TIP3    H237999   2.599   3.860   3.595
12686TIP3   OH238000   3.511   0.554   5.360
12686TIP3    H138001   3.465   0.533   5.278
12686TIP3    H238002   3.487   0.645   5.377
12687TIP3   OH238003   0.886   4.742   1.031
12687TIP3    H138004   0.935   4.701   1.103
12687TIP3    H238005   0.822   4.676   1.006
12688TIP3   OH238006   3.952   6.111   5.292
12688TIP3    H138007   3.986   6.080   5.208
12688TIP3    H238008   3.980   6.046   5.355
12689TIP3   OH238009   5.926   2.361   1.260
12689TIP3    H138010   5.990   2.352   1.189
12689TIP3    H238011   5.967   2.423   1.321
12690TIP3   OH238012   4.827   0.620   0.953
12690TIP3    H138013   4.764   0.628   0.882
12690TIP3    H238014   4.778   0.580   1.025
12691TIP3   OH238015   1.014   0.411   6.339
12691TIP3    H138016   0.975   0.348   6.399
12691TIP3    H238017   1.065   0.469   6.395
12692TIP3   OH238018   0.595   5.303   3.472
12692TIP3    H138019   0.560   5.392   3.463
12692TIP3    H238020   0.544   5.251   3.410
12693TIP3   OH238021   4.298   5.012   3.554
12693TIP3    H138022   4.289   4.963   3.471
12693TIP3    H238023   4.330   4.947   3.616
12694TIP3   OH238024   1.659   5.341   6.195
12694TIP3    H138025   1.629   5.276   6.258
12694TIP3    H238026   1.632   5.425   6.232
12695TIP3   OH238027   8.298   5.280   3.490
12695TIP3    H138028   8.312   5.200   3.439
12695TIP3    H238029   8.336   5.350   3.436
12696TIP3   OH238030   5.791   1.736   3.103
12696TIP3    H138031   5.874   1.777   3.080
12696TIP3    H238032   5.751   1.795   3.166
12697TIP3   OH238033   5.742   7.715   0.611
12697TIP3    H138034   5.835   7.707   0.592
12697TIP3    H238035   5.737   7.715   0.706
12698TIP3   OH238036   0.931   2.316   5.920
12698TIP3    H138037   1.004   2.364   5.880
12698TIP3    H238038   0.879   2.384   5.964
12699TIP3   OH238039   2.590   3.094   6.582
12699TIP3    H138040   2.664   3.043   6.615
12699TIP3    H238041   2.630   3.175   6.550
12700TIP3   OH238042   5.785   3.985   0.405
12700TIP3    H138043   5.866   4.033   0.414
12700TIP3    H238044   5.795   3.936   0.323
12701TIP3   OH238045   4.485   1.514   5.246
12701TIP3    H138046   4.481   1.610   5.245
12701TIP3    H238047   4.511   1.492   5.335
12702TIP3   OH238048   1.980   0.953   5.165
12702TIP3    H138049   1.978   1.039   5.122
12702TIP3    H238050   1.933   0.967   5.248
12703TIP3   OH238051   0.635   0.437   2.226
12703TIP3    H138052   0.690   0.435   2.147
12703TIP3    H238053   0.681   0.382   2.289
12704TIP3   OH238054   4.697   2.481   2.872
12704TIP3    H138055   4.758   2.479   2.797
12704TIP3    H238056   4.731   2.551   2.928
12705TIP3   OH238057   6.323   2.055   3.554
12705TIP3    H138058   6.329   2.079   3.462
12705TIP3    H238059   6.323   1.959   3.554
12706TIP3   OH238060   5.175   1.497   0.514
12706TIP3    H138061   5.232   1.421   0.522
12706TIP3    H238062   5.229   1.562   0.468
12707TIP3   OH238063   6.870   2.482   3.929
12707TIP3    H138064   6.814   2.439   3.993
12707TIP3    H238065   6.937   2.527   3.981
12708TIP3   OH238066   6.397   0.322   6.603
12708TIP3    H138067   6.406   0.417   6.607
12708TIP3    H238068   6.460   0.295   6.536
12709TIP3   OH238069   1.658   1.322   3.651
12709TIP3    H138070   1.649   1.322   3.556
12709TIP3    H238071   1.739   1.272   3.667
12710TIP3   OH238072   0.572   3.094   2.487
12710TIP3    H138073   0.584   2.999   2.491
12710TIP3    H238074   0.644   3.126   2.434
12711TIP3   OH238075   7.166   4.810   5.652
12711TIP3    H138076   7.095   4.769   5.603
12711TIP3    H238077   7.183   4.750   5.724
12712TIP3   OH238078   1.801   7.472   3.921
12712TIP3    H138079   1.735   7.470   3.990
12712TIP3    H238080   1.772   7.543   3.863
12713TIP3   OH238081   2.474   4.672   1.506
12713TIP3    H138082   2.491   4.582   1.480
12713TIP3    H238083   2.500   4.725   1.431
12714TIP3   OH238084   3.607   0.047   1.779
12714TIP3    H138085   3.515   0.025   1.796
12714TIP3    H238086   3.608   0.075   1.687
12715TIP3   OH238087   6.134   1.111   2.782
12715TIP3    H138088   6.044   1.139   2.766
12715TIP3    H238089   6.125   1.030   2.832
12716TIP3   OH238090   0.332   1.733   5.486
12716TIP3    H138091   0.308   1.819   5.522
12716TIP3    H238092   0.424   1.721   5.513
12717TIP3   OH238093   7.881   3.942   0.091
12717TIP3    H138094   7.969   3.910   0.070
12717TIP3    H238095   7.886   3.970   0.182
12718TIP3   OH238096   0.015   5.852   1.564
12718TIP3    H138097  -0.053   5.905   1.523
12718TIP3    H238098   0.089   5.856   1.502
12719TIP3   OH238099   6.008   5.677   6.570
12719TIP3    H138100   5.973   5.766   6.564
12719TIP3    H238101   6.093   5.687   6.612
12720TIP3   OH238102   1.756   4.767   5.496
12720TIP3    H138103   1.823   4.780   5.428
12720TIP3    H238104   1.787   4.818   5.571
12721TIP3   OH238105   3.601   1.802   4.237
12721TIP3    H138106   3.686   1.835   4.268
12721TIP3    H238107   3.568   1.873   4.182
12722TIP3   OH238108   1.565   3.573   2.124
12722TIP3    H138109   1.622   3.650   2.130
12722TIP3    H238110   1.539   3.556   2.215
12723TIP3   OH238111   5.883   2.153   5.955
12723TIP3    H138112   5.886   2.222   6.020
12723TIP3    H238113   5.930   2.079   5.995
12724TIP3   OH238114   2.459   2.334   0.435
12724TIP3    H138115   2.460   2.240   0.449
12724TIP3    H238116   2.495   2.371   0.516
12725TIP3   OH238117   3.742   3.940   5.880
12725TIP3    H138118   3.666   3.976   5.836
12725TIP3    H238119   3.709   3.912   5.966
12726TIP3   OH238120   8.237   3.504   5.585
12726TIP3    H138121   8.227   3.586   5.634
12726TIP3    H238122   8.147   3.479   5.563
12727TIP3   OH238123   8.097   6.128   1.674
12727TIP3    H138124   8.086   6.143   1.580
12727TIP3    H238125   8.029   6.064   1.696
12728TIP3   OH238126   2.999   5.561   0.027
12728TIP3    H138127   3.064   5.492   0.039
12728TIP3    H238128   2.993   5.572  -0.068
12729TIP3   OH238129   3.984   3.701   3.245
12729TIP3    H138130   3.962   3.613   3.215
12729TIP3    H238131   3.960   3.759   3.173
12730TIP3   OH238132   1.696   3.451   3.862
12730TIP3    H138133   1.686   3.538   3.824
12730TIP3    H238134   1.607   3.415   3.866
12731TIP3   OH238135   5.080   1.799   2.729
12731TIP3    H138136   5.138   1.866   2.766
12731TIP3    H238137   5.115   1.784   2.641
12732TIP3   OH238138   5.895   0.686   3.862
12732TIP3    H138139   5.977   0.677   3.910
12732TIP3    H238140   5.832   0.633   3.911
12733TIP3   OH238141   3.694   0.310   4.153
12733TIP3    H138142   3.771   0.346   4.108
12733TIP3    H238143   3.633   0.289   4.082
12734TIP3   OH238144   1.459   4.644   1.552
12734TIP3    H138145   1.401   4.615   1.622
12734TIP3    H238146   1.445   4.581   1.481
12735TIP3   OH238147   5.245   2.875   2.438
12735TIP3    H138148   5.317   2.934   2.419
12735TIP3    H238149   5.224   2.834   2.354
12736TIP3   OH238150   7.061   6.252   1.280
12736TIP3    H138151   7.042   6.243   1.186
12736TIP3    H238152   7.063   6.346   1.295
12737TIP3   OH238153   4.847   1.597   0.540
12737TIP3    H138154   4.802   1.601   0.624
12737TIP3    H238155   4.873   1.687   0.522
12738TIP3   OH238156   0.491   5.058   6.107
12738TIP3    H138157   0.428   5.120   6.071
12738TIP3    H238158   0.562   5.113   6.141
12739TIP3   OH238159   0.456   5.528   3.442
12739TIP3    H138160   0.426   5.504   3.354
12739TIP3    H238161   0.474   5.622   3.437
12740TIP3   OH238162   0.308   0.448   5.812
12740TIP3    H138163   0.346   0.361   5.815
12740TIP3    H238164   0.243   0.449   5.882
12741TIP3   OH238165   2.457   2.940   0.979
12741TIP3    H138166   2.399   2.978   1.046
12741TIP3    H238167   2.398   2.918   0.907
12742TIP3   OH238168   1.438   7.209   0.633
12742TIP3    H138169   1.386   7.162   0.568
12742TIP3    H238170   1.373   7.239   0.698
12743TIP3   OH238171   0.673   5.532   1.698
12743TIP3    H138172   0.663   5.627   1.687
12743TIP3    H238173   0.748   5.510   1.642
12744TIP3   OH238174   1.520   7.567   0.291
12744TIP3    H138175   1.535   7.495   0.352
12744TIP3    H238176   1.607   7.586   0.255
12745TIP3   OH238177   0.421   4.089   1.814
12745TIP3    H138178   0.362   4.105   1.740
12745TIP3    H238179   0.420   4.171   1.863
12746TIP3   OH238180   0.316   6.118   5.026
12746TIP3    H138181   0.333   6.059   5.100
12746TIP3    H238182   0.307   6.059   4.951
12747TIP3   OH238183   0.152   7.633   5.085
12747TIP3    H138184   0.087   7.698   5.108
12747TIP3    H238185   0.106   7.571   5.029
12748TIP3   OH238186   7.524   1.039   2.102
12748TIP3    H138187   7.514   1.126   2.065
12748TIP3    H238188   7.506   0.979   2.029
12749TIP3   OH238189   4.659   0.999   5.431
12749TIP3    H138190   4.653   1.087   5.468
12749TIP3    H238191   4.737   0.962   5.470
12750TIP3   OH238192   2.667   1.161   5.743
12750TIP3    H138193   2.739   1.210   5.704
12750TIP3    H238194   2.687   1.069   5.724
12751TIP3   OH238195   1.993   1.749   1.823
12751TIP3    H138196   2.012   1.795   1.905
12751TIP3    H238197   1.914   1.698   1.842
12752TIP3   OH238198   6.233   2.187   5.977
12752TIP3    H138199   6.191   2.112   6.019
12752TIP3    H238200   6.265   2.241   6.049
12753TIP3   OH238201   7.260   6.333   1.814
12753TIP3    H138202   7.303   6.280   1.747
12753TIP3    H238203   7.169   6.341   1.783
12754TIP3   OH238204   1.804   6.559   1.790
12754TIP3    H138205   1.876   6.537   1.730
12754TIP3    H238206   1.787   6.477   1.837
12755TIP3   OH238207   2.246   2.307   6.115
12755TIP3    H138208   2.189   2.283   6.188
12755TIP3    H238209   2.203   2.269   6.038
12756TIP3   OH238210   4.256   5.223   1.209
12756TIP3    H138211   4.248   5.301   1.264
12756TIP3    H238212   4.266   5.257   1.120
12757TIP3   OH238213   0.846   7.053   3.559
12757TIP3    H138214   0.874   7.145   3.559
12757TIP3    H238215   0.750   7.058   3.563
12758TIP3   OH238216   5.043   0.345   4.751
12758TIP3    H138217   5.074   0.368   4.839
12758TIP3    H238218   5.108   0.383   4.692
12759TIP3   OH238219   6.050   6.945   5.714
12759TIP3    H138220   5.992   7.018   5.737
12759TIP3    H238221   6.058   6.894   5.794
12760TIP3   OH238222   4.033   7.537   1.983
12760TIP3    H138223   4.081   7.612   2.016
12760TIP3    H238224   4.079   7.513   1.902
12761TIP3   OH238225   3.824   5.576   5.614
12761TIP3    H138226   3.867   5.649   5.658
12761TIP3    H238227   3.828   5.597   5.521
12762TIP3   OH238228   3.468   4.006   1.625
12762TIP3    H138229   3.503   3.963   1.547
12762TIP3    H238230   3.537   3.997   1.691
12763TIP3   OH238231   0.235   4.471   2.393
12763TIP3    H138232   0.277   4.385   2.404
12763TIP3    H238233   0.299   4.533   2.428
12764TIP3   OH238234   0.495   4.607   2.499
12764TIP3    H138235   0.590   4.597   2.501
12764TIP3    H238236   0.465   4.569   2.582
12765TIP3   OH238237   3.533   2.655   2.649
12765TIP3    H138238   3.487   2.658   2.566
12765TIP3    H238239   3.508   2.571   2.688
12766TIP3   OH238240   0.634   1.263   6.165
12766TIP3    H138241   0.668   1.351   6.146
12766TIP3    H238242   0.552   1.279   6.212
12767TIP3   OH238243   3.326   7.005   1.976
12767TIP3    H138244   3.374   7.084   2.001
12767TIP3    H238245   3.325   6.951   2.056
12768TIP3   OH238246   2.841   6.482   3.631
12768TIP3    H138247   2.818   6.491   3.538
12768TIP3    H238248   2.917   6.423   3.631
12769TIP3   OH238249   2.176   3.498   4.015
12769TIP3    H138250   2.093   3.477   4.059
12769TIP3    H238251   2.153   3.567   3.953
12770TIP3   OH238252   5.274   5.510   3.935
12770TIP3    H138253   5.327   5.514   4.015
12770TIP3    H238254   5.307   5.432   3.889
12771TIP3   OH238255   4.347   6.887   0.207
12771TIP3    H138256   4.363   6.850   0.294
12771TIP3    H238257   4.434   6.916   0.178
12772TIP3   OH238258   4.681   0.601   6.072
12772TIP3    H138259   4.768   0.637   6.055
12772TIP3    H238260   4.644   0.656   6.140
12773TIP3   OH238261   3.286   0.077   5.167
12773TIP3    H138262   3.216   0.058   5.105
12773TIP3    H238263   3.247   0.062   5.253
12774TIP3   OH238264   4.686   4.481   4.107
12774TIP3    H138265   4.735   4.528   4.175
12774TIP3    H238266   4.650   4.405   4.152
12775TIP3   OH238267   2.874   5.111   5.958
12775TIP3    H138268   2.919   5.139   5.878
12775TIP3    H238269   2.937   5.055   6.003
12776TIP3   OH238270   6.195   3.770   4.251
12776TIP3    H138271   6.255   3.715   4.303
12776TIP3    H238272   6.219   3.752   4.160
12777TIP3   OH238273   6.480   4.855   3.809
12777TIP3    H138274   6.468   4.845   3.903
12777TIP3    H238275   6.499   4.767   3.777
12778TIP3   OH238276   2.557   3.557   6.645
12778TIP3    H138277   2.474   3.510   6.652
12778TIP3    H238278   2.580   3.579   6.736
12779TIP3   OH238279   3.525   0.155   4.799
12779TIP3    H138280   3.599   0.159   4.739
12779TIP3    H238281   3.492   0.244   4.803
12780TIP3   OH238282   5.590   5.213   4.551
12780TIP3    H138283   5.624   5.125   4.566
12780TIP3    H238284   5.592   5.255   4.637
12781TIP3   OH238285   3.337   2.127   4.776
12781TIP3    H138286   3.391   2.114   4.853
12781TIP3    H238287   3.257   2.077   4.793
12782TIP3   OH238288   0.793   7.685   2.239
12782TIP3    H138289   0.795   7.612   2.302
12782TIP3    H238290   0.714   7.669   2.187
12783TIP3   OH238291   7.235   1.439   1.333
12783TIP3    H138292   7.150   1.395   1.334
12783TIP3    H238293   7.294   1.377   1.291
12784TIP3   OH238294   4.971   3.395   5.577
12784TIP3    H138295   4.963   3.306   5.543
12784TIP3    H238296   4.950   3.387   5.670
12785TIP3   OH238297   6.052   0.201   6.385
12785TIP3    H138298   5.972   0.205   6.334
12785TIP3    H238299   6.105   0.133   6.344
12786TIP3   OH238300   0.932   7.742   0.608
12786TIP3    H138301   0.858   7.690   0.577
12786TIP3    H238302   0.891   7.816   0.653
12787TIP3   OH238303   7.674   0.409   1.849
12787TIP3    H138304   7.765   0.381   1.837
12787TIP3    H238305   7.679   0.505   1.850
12788TIP3   OH238306   5.335   1.879   3.247
12788TIP3    H138307   5.288   1.796   3.242
12788TIP3    H238308   5.289   1.936   3.186
12789TIP3   OH238309   1.308   7.133   3.748
12789TIP3    H138310   1.372   7.191   3.788
12789TIP3    H238311   1.226   7.154   3.792
12790TIP3   OH238312   6.140   6.115   5.513
12790TIP3    H138313   6.126   6.205   5.485
12790TIP3    H238314   6.053   6.084   5.538
12791TIP3   OH238315   6.949   2.441   2.808
12791TIP3    H138316   6.929   2.477   2.895
12791TIP3    H238317   6.927   2.348   2.815
12792TIP3   OH238318   1.382   2.603   2.006
12792TIP3    H138319   1.326   2.650   1.944
12792TIP3    H238320   1.324   2.537   2.044
12793TIP3   OH238321   6.733   4.853   0.741
12793TIP3    H138322   6.772   4.800   0.671
12793TIP3    H238323   6.796   4.923   0.756
12794TIP3   OH238324   1.603   6.583   0.592
12794TIP3    H138325   1.651   6.564   0.672
12794TIP3    H238326   1.666   6.631   0.537
12795TIP3   OH238327   1.562   0.597   0.506
12795TIP3    H138328   1.513   0.674   0.535
12795TIP3    H238329   1.553   0.535   0.579
12796TIP3   OH238330   1.744   3.677   6.605
12796TIP3    H138331   1.762   3.770   6.623
12796TIP3    H238332   1.810   3.630   6.656
12797TIP3   OH238333   8.056   1.489   3.832
12797TIP3    H138334   7.968   1.496   3.796
12797TIP3    H238335   8.113   1.479   3.756
12798TIP3   OH238336   5.258   3.976   4.923
12798TIP3    H138337   5.217   3.891   4.934
12798TIP3    H238338   5.335   3.959   4.869
12799TIP3   OH238339   4.138   5.299   0.619
12799TIP3    H138340   4.076   5.231   0.644
12799TIP3    H238341   4.194   5.258   0.554
12800TIP3   OH238342   6.369   7.257   4.399
12800TIP3    H138343   6.388   7.351   4.390
12800TIP3    H238344   6.274   7.252   4.406
12801TIP3   OH238345   3.509   0.975   1.805
12801TIP3    H138346   3.571   1.002   1.737
12801TIP3    H238347   3.536   0.886   1.828
12802TIP3   OH238348   1.808   0.189   5.006
12802TIP3    H138349   1.726   0.232   4.981
12802TIP3    H238350   1.861   0.191   4.927
12803TIP3   OH238351   1.743   4.009   6.198
12803TIP3    H138352   1.669   4.069   6.204
12803TIP3    H238353   1.805   4.041   6.264
12804TIP3   OH238354   3.166   5.244   6.540
12804TIP3    H138355   3.258   5.235   6.516
12804TIP3    H238356   3.142   5.333   6.515
12805TIP3   OH238357   1.131   6.764   6.698
12805TIP3    H138358   1.120   6.821   6.621
12805TIP3    H238359   1.193   6.697   6.669
12806TIP3   OH238360   8.016   1.058   0.332
12806TIP3    H138361   8.025   0.979   0.280
12806TIP3    H238362   8.085   1.052   0.399
12807TIP3   OH238363   5.281   7.105   5.050
12807TIP3    H138364   5.348   7.038   5.066
12807TIP3    H238365   5.330   7.183   5.025
12808TIP3   OH238366   2.510   6.838   6.322
12808TIP3    H138367   2.449   6.791   6.379
12808TIP3    H238368   2.505   6.793   6.238
12809TIP3   OH238369   6.055   3.491   4.384
12809TIP3    H138370   5.968   3.451   4.388
12809TIP3    H238371   6.070   3.507   4.291
12810TIP3   OH238372   2.837   3.059   4.884
12810TIP3    H138373   2.913   3.056   4.826
12810TIP3    H238374   2.798   3.145   4.868
12811TIP3   OH238375   0.503   2.957   3.698
12811TIP3    H138376   0.547   2.912   3.771
12811TIP3    H238377   0.496   3.048   3.727
12812TIP3   OH238378   0.701   7.185   1.603
12812TIP3    H138379   0.742   7.243   1.539
12812TIP3    H238380   0.775   7.147   1.651
12813TIP3   OH238381   5.011   6.025   0.016
12813TIP3    H138382   5.038   5.999  -0.072
12813TIP3    H238383   5.040   5.954   0.072
12814TIP3   OH238384   2.920   2.720   1.428
12814TIP3    H138385   3.000   2.685   1.465
12814TIP3    H238386   2.946   2.803   1.388
12815TIP3   OH238387   8.236   1.645   1.051
12815TIP3    H138388   8.268   1.716   1.107
12815TIP3    H238389   8.290   1.570   1.076
12816TIP3   OH238390   7.197   0.686   2.181
12816TIP3    H138391   7.246   0.658   2.258
12816TIP3    H238392   7.139   0.613   2.162
12817TIP3   OH238393   6.061   1.239   3.361
12817TIP3    H138394   6.012   1.178   3.416
12817TIP3    H238395   5.999   1.308   3.339
12818TIP3   OH238396   3.595   5.878   1.573
12818TIP3    H138397   3.672   5.871   1.628
12818TIP3    H238398   3.545   5.950   1.611
12819TIP3   OH238399   0.276   5.654   3.090
12819TIP3    H138400   0.349   5.626   3.035
12819TIP3    H238401   0.230   5.720   3.037
12820TIP3   OH238402   7.774   6.633   2.920
12820TIP3    H138403   7.835   6.560   2.907
12820TIP3    H238404   7.709   6.623   2.851
12821TIP3   OH238405   7.012   0.122   3.774
12821TIP3    H138406   6.997   0.058   3.705
12821TIP3    H238407   6.984   0.078   3.854
12822TIP3   OH238408   2.430   3.985   6.693
12822TIP3    H138409   2.491   3.983   6.620
12822TIP3    H238410   2.453   3.909   6.746
12823TIP3   OH238411   7.209   3.742   0.239
12823TIP3    H138412   7.127   3.724   0.285
12823TIP3    H238413   7.277   3.709   0.298
12824TIP3   OH238414   6.309   5.805   5.116
12824TIP3    H138415   6.301   5.764   5.202
12824TIP3    H238416   6.364   5.882   5.131
12825TIP3   OH238417   2.060   0.983   3.103
12825TIP3    H138418   2.134   1.030   3.142
12825TIP3    H238419   2.083   0.975   3.010
12826TIP3   OH238420   3.251   0.219   1.401
12826TIP3    H138421   3.291   0.139   1.434
12826TIP3    H238422   3.176   0.234   1.458
12827TIP3   OH238423   8.342   1.921   2.376
12827TIP3    H138424   8.318   1.893   2.464
12827TIP3    H238425   8.287   1.868   2.318
12828TIP3   OH238426   4.586   1.695   5.659
12828TIP3    H138427   4.510   1.653   5.618
12828TIP3    H238428   4.661   1.644   5.628
12829TIP3   OH238429   2.290   2.897   5.694
12829TIP3    H138430   2.263   2.987   5.712
12829TIP3    H238431   2.354   2.905   5.623
12830TIP3   OH238432   7.416   2.082   0.256
12830TIP3    H138433   7.326   2.075   0.223
12830TIP3    H238434   7.452   1.994   0.246
12831TIP3   OH238435   4.766   5.246   0.688
12831TIP3    H138436   4.762   5.333   0.650
12831TIP3    H238437   4.792   5.261   0.779
12832TIP3   OH238438   4.926   1.813   6.699
12832TIP3    H138439   4.878   1.878   6.647
12832TIP3    H238440   4.863   1.742   6.710
12833TIP3   OH238441   4.592   6.978   5.577
12833TIP3    H138442   4.618   7.069   5.589
12833TIP3    H238443   4.674   6.931   5.562
12834TIP3   OH238444   3.076   6.745   4.823
12834TIP3    H138445   3.111   6.675   4.878
12834TIP3    H238446   3.136   6.818   4.837
12835TIP3   OH238447   7.659   0.392   3.666
12835TIP3    H138448   7.662   0.420   3.575
12835TIP3    H238449   7.707   0.460   3.714
12836TIP3   OH238450   1.891   3.958   1.433
12836TIP3    H138451   1.968   3.992   1.479
12836TIP3    H238452   1.821   3.961   1.497
12837TIP3   OH238453   1.638   4.766   1.959
12837TIP3    H138454   1.709   4.828   1.973
12837TIP3    H238455   1.653   4.731   1.872
12838TIP3   OH238456   6.722   0.810   5.448
12838TIP3    H138457   6.755   0.852   5.528
12838TIP3    H238458   6.779   0.734   5.436
12839TIP3   OH238459   5.754   7.161   1.229
12839TIP3    H138460   5.694   7.087   1.230
12839TIP3    H238461   5.823   7.138   1.292
12840TIP3   OH238462   7.173   4.174   5.753
12840TIP3    H138463   7.137   4.249   5.801
12840TIP3    H238464   7.266   4.194   5.743
12841TIP3   OH238465   7.706   7.094   5.031
12841TIP3    H138466   7.783   7.150   5.021
12841TIP3    H238467   7.633   7.149   5.001
12842TIP3   OH238468   1.478   4.734   3.384
12842TIP3    H138469   1.415   4.797   3.348
12842TIP3    H238470   1.530   4.707   3.309
12843TIP3   OH238471   2.131   5.192   3.175
12843TIP3    H138472   2.163   5.102   3.179
12843TIP3    H238473   2.042   5.184   3.142
12844TIP3   OH238474   7.670   2.424   2.363
12844TIP3    H138475   7.703   2.511   2.387
12844TIP3    H238476   7.577   2.426   2.385
12845TIP3   OH238477   1.586   6.093   5.427
12845TIP3    H138478   1.544   6.175   5.450
12845TIP3    H238479   1.645   6.116   5.355
12846TIP3   OH238480   8.097   2.853   0.337
12846TIP3    H138481   8.024   2.855   0.399
12846TIP3    H238482   8.162   2.911   0.375
12847TIP3   OH238483   0.124   4.524   1.377
12847TIP3    H138484   0.138   4.534   1.283
12847TIP3    H238485   0.205   4.484   1.409
12848TIP3   OH238486   2.600   1.642   6.535
12848TIP3    H138487   2.570   1.687   6.457
12848TIP3    H238488   2.692   1.666   6.544
12849TIP3   OH238489   5.813   0.656   6.035
12849TIP3    H138490   5.827   0.695   6.121
12849TIP3    H238491   5.855   0.570   6.041
12850TIP3   OH238492   4.594   5.213   1.137
12850TIP3    H138493   4.545   5.181   1.213
12850TIP3    H238494   4.587   5.308   1.142
12851TIP3   OH238495   7.574   6.314   5.422
12851TIP3    H138496   7.588   6.369   5.345
12851TIP3    H238497   7.566   6.376   5.494
12852TIP3   OH238498   1.106   5.572   5.967
12852TIP3    H138499   1.194   5.551   5.999
12852TIP3    H238500   1.082   5.652   6.015
12853TIP3   OH238501   5.558   5.793   1.197
12853TIP3    H138502   5.618   5.790   1.271
12853TIP3    H238503   5.516   5.879   1.204
12854TIP3   OH238504   3.805   6.853   2.389
12854TIP3    H138505   3.771   6.889   2.307
12854TIP3    H238506   3.890   6.897   2.401
12855TIP3   OH238507   8.101   1.220   3.059
12855TIP3    H138508   8.127   1.249   2.972
12855TIP3    H238509   8.152   1.276   3.119
12856TIP3   OH238510   6.882   0.870   2.879
12856TIP3    H138511   6.886   0.807   2.807
12856TIP3    H238512   6.868   0.816   2.957
12857TIP3   OH238513   7.060   7.280   5.542
12857TIP3    H138514   7.037   7.237   5.624
12857TIP3    H238515   7.124   7.221   5.501
12858TIP3   OH238516   6.674   3.157   3.120
12858TIP3    H138517   6.676   3.169   3.215
12858TIP3    H238518   6.716   3.236   3.084
12859TIP3   OH238519   4.234   2.211   0.502
12859TIP3    H138520   4.173   2.178   0.436
12859TIP3    H238521   4.270   2.132   0.543
12860TIP3   OH238522   1.382   4.363   2.598
12860TIP3    H138523   1.412   4.274   2.578
12860TIP3    H238524   1.447   4.397   2.659
12861TIP3   OH238525   7.983   7.695   1.913
12861TIP3    H138526   8.058   7.718   1.968
12861TIP3    H238527   7.912   7.750   1.944
12862TIP3   OH238528   2.110   5.529   4.468
12862TIP3    H138529   2.076   5.481   4.544
12862TIP3    H238530   2.109   5.621   4.495
12863TIP3   OH238531   1.288   5.532   6.594
12863TIP3    H138532   1.193   5.536   6.585
12863TIP3    H238533   1.318   5.617   6.559
12864TIP3   OH238534   0.305   3.476   2.545
12864TIP3    H138535   0.363   3.553   2.547
12864TIP3    H238536   0.227   3.506   2.498
12865TIP3   OH238537   2.749   4.729   2.753
12865TIP3    H138538   2.824   4.723   2.694
12865TIP3    H238539   2.788   4.741   2.840
12866TIP3   OH238540   4.310   3.945   2.207
12866TIP3    H138541   4.230   3.974   2.250
12866TIP3    H238542   4.300   3.971   2.116
12867TIP3   OH238543   1.100   3.137   2.680
12867TIP3    H138544   1.101   3.233   2.675
12867TIP3    H238545   1.165   3.109   2.616
12868TIP3   OH238546   2.599   2.308   4.832
12868TIP3    H138547   2.625   2.368   4.902
12868TIP3    H238548   2.539   2.360   4.777
12869TIP3   OH238549   6.943   4.639   5.587
12869TIP3    H138550   6.860   4.633   5.541
12869TIP3    H238551   7.002   4.582   5.538
12870TIP3   OH238552   3.865   1.225   4.939
12870TIP3    H138553   3.808   1.163   4.983
12870TIP3    H238554   3.942   1.230   4.996
12871TIP3   OH238555   7.061   2.580   1.566
12871TIP3    H138556   7.113   2.582   1.486
12871TIP3    H238557   7.114   2.530   1.629
12872TIP3   OH238558   3.659   5.646   2.103
12872TIP3    H138559   3.633   5.692   2.183
12872TIP3    H238560   3.579   5.603   2.072
12873TIP3   OH238561   4.686   3.997   2.165
12873TIP3    H138562   4.709   4.007   2.258
12873TIP3    H238563   4.637   4.077   2.144
12874TIP3   OH238564   1.949   2.913   6.786
12874TIP3    H138565   1.888   2.859   6.736
12874TIP3    H238566   1.897   2.946   6.859
12875TIP3   OH238567   0.366   6.204   2.792
12875TIP3    H138568   0.361   6.109   2.777
12875TIP3    H238569   0.316   6.242   2.720
12876TIP3   OH238570   1.296   7.236   3.492
12876TIP3    H138571   1.287   7.194   3.577
12876TIP3    H238572   1.252   7.321   3.502
12877TIP3   OH238573   2.381   0.985   2.783
12877TIP3    H138574   2.411   1.069   2.749
12877TIP3    H238575   2.297   1.004   2.824
12878TIP3   OH238576   5.344   3.014   4.695
12878TIP3    H138577   5.338   3.070   4.772
12878TIP3    H238578   5.293   2.936   4.718
12879TIP3   OH238579   4.703   3.088   3.363
12879TIP3    H138580   4.622   3.050   3.396
12879TIP3    H238581   4.772   3.040   3.409
12880TIP3   OH238582   6.562   0.834   3.763
12880TIP3    H138583   6.625   0.873   3.702
12880TIP3    H238584   6.613   0.816   3.842
12881TIP3   OH238585   5.620   3.617   1.029
12881TIP3    H138586   5.658   3.627   0.941
12881TIP3    H238587   5.639   3.700   1.073
12882TIP3   OH238588   6.062   7.394   0.284
12882TIP3    H138589   5.990   7.368   0.227
12882TIP3    H238590   6.137   7.345   0.251
12883TIP3   OH238591   0.685   0.808   5.101
12883TIP3    H138592   0.729   0.724   5.085
12883TIP3    H238593   0.675   0.811   5.196
12884TIP3   OH238594   5.145   1.256   5.109
12884TIP3    H138595   5.187   1.186   5.159
12884TIP3    H238596   5.148   1.332   5.167
12885TIP3   OH238597   6.220   3.145   3.961
12885TIP3    H138598   6.212   3.094   3.880
12885TIP3    H238599   6.130   3.167   3.984
12886TIP3   OH238600   4.948   1.965   5.624
12886TIP3    H138601   4.900   2.046   5.603
12886TIP3    H238602   5.040   1.988   5.612
12887TIP3   OH238603   0.609   3.818   5.414
12887TIP3    H138604   0.524   3.803   5.456
12887TIP3    H238605   0.673   3.784   5.477
12888TIP3   OH238606   2.264   3.279   4.834
12888TIP3    H138607   2.316   3.205   4.865
12888TIP3    H238608   2.237   3.254   4.746
12889TIP3   OH238609   7.455   7.742   0.415
12889TIP3    H138610   7.414   7.825   0.390
12889TIP3    H238611   7.540   7.742   0.371
12890TIP3   OH238612   1.152   3.914   0.420
12890TIP3    H138613   1.180   3.824   0.437
12890TIP3    H238614   1.077   3.927   0.478
12891TIP3   OH238615   6.242   2.467   5.494
12891TIP3    H138616   6.225   2.433   5.582
12891TIP3    H238617   6.157   2.494   5.461
12892TIP3   OH238618   1.262   7.661   6.648
12892TIP3    H138619   1.354   7.637   6.639
12892TIP3    H238620   1.259   7.717   6.726
12893TIP3   OH238621   7.191   2.822   3.100
12893TIP3    H138622   7.255   2.764   3.059
12893TIP3    H238623   7.106   2.784   3.078
12894TIP3   OH238624   0.951   3.647   6.780
12894TIP3    H138625   0.974   3.684   6.865
12894TIP3    H238626   0.955   3.722   6.720
12895TIP3   OH238627   4.505   7.693   1.601
12895TIP3    H138628   4.508   7.788   1.616
12895TIP3    H238629   4.544   7.654   1.679
12896TIP3   OH238630   2.440   2.051   4.573
12896TIP3    H138631   2.506   1.983   4.556
12896TIP3    H238632   2.391   2.019   4.648
12897TIP3   OH238633   7.095   0.400   5.275
12897TIP3    H138634   7.082   0.307   5.256
12897TIP3    H238635   7.163   0.428   5.214
12898TIP3   OH238636   6.987   3.832   5.388
12898TIP3    H138637   7.020   3.755   5.435
12898TIP3    H238638   7.060   3.893   5.387
12899TIP3   OH238639   7.555   4.669   5.016
12899TIP3    H138640   7.634   4.622   5.043
12899TIP3    H238641   7.484   4.606   5.028
12900TIP3   OH238642   4.031   5.632   5.196
12900TIP3    H138643   4.105   5.690   5.180
12900TIP3    H238644   4.062   5.572   5.264
12901TIP3   OH238645   3.130   6.424   0.699
12901TIP3    H138646   3.136   6.518   0.714
12901TIP3    H238647   3.187   6.385   0.765
12902TIP3   OH238648   8.056   5.520   0.227
12902TIP3    H138649   8.043   5.614   0.245
12902TIP3    H238650   8.003   5.504   0.149
12903TIP3   OH238651   5.557   6.857   2.415
12903TIP3    H138652   5.506   6.806   2.478
12903TIP3    H238653   5.599   6.924   2.468
12904TIP3   OH238654   4.592   2.911   0.715
12904TIP3    H138655   4.499   2.932   0.706
12904TIP3    H238656   4.631   2.989   0.756
12905TIP3   OH238657   7.115   0.307   2.899
12905TIP3    H138658   7.051   0.351   2.956
12905TIP3    H238659   7.196   0.308   2.950
12906TIP3   OH238660   7.084   7.304   0.300
12906TIP3    H138661   7.058   7.257   0.221
12906TIP3    H238662   7.059   7.245   0.372
12907TIP3   OH238663   6.125   4.319   5.294
12907TIP3    H138664   6.099   4.230   5.317
12907TIP3    H238665   6.188   4.343   5.362
12908TIP3   OH238666   8.024   4.514   4.664
12908TIP3    H138667   8.098   4.466   4.628
12908TIP3    H238668   8.015   4.480   4.754
12909TIP3   OH238669   1.981   1.306   1.050
12909TIP3    H138670   1.894   1.326   1.086
12909TIP3    H238671   1.991   1.367   0.977
12910TIP3   OH238672   2.512   3.454   4.903
12910TIP3    H138673   2.469   3.409   4.830
12910TIP3    H238674   2.563   3.523   4.861
12911TIP3   OH238675   4.188   0.513   0.443
12911TIP3    H138676   4.176   0.506   0.537
12911TIP3    H238677   4.266   0.460   0.424
12912TIP3   OH238678   6.243   6.836   1.193
12912TIP3    H138679   6.295   6.892   1.250
12912TIP3    H238680   6.248   6.749   1.234
12913TIP3   OH238681   1.288   6.187   0.763
12913TIP3    H138682   1.349   6.213   0.832
12913TIP3    H238683   1.336   6.121   0.713
12914TIP3   OH238684   8.211   6.759   1.310
12914TIP3    H138685   8.273   6.829   1.290
12914TIP3    H238686   8.131   6.783   1.263
12915TIP3   OH238687   1.505   3.439   4.864
12915TIP3    H138688   1.584   3.475   4.824
12915TIP3    H238689   1.479   3.505   4.929
12916TIP3   OH238690   5.297   1.823   0.805
12916TIP3    H138691   5.332   1.787   0.887
12916TIP3    H238692   5.203   1.803   0.808
12917TIP3   OH238693   1.346   4.483   2.350
12917TIP3    H138694   1.346   4.458   2.442
12917TIP3    H238695   1.435   4.463   2.320
12918TIP3   OH238696   2.292   3.040   1.151
12918TIP3    H138697   2.304   2.993   1.233
12918TIP3    H238698   2.224   3.105   1.171
12919TIP3   OH238699   1.850   4.978   6.720
12919TIP3    H138700   1.855   5.012   6.809
12919TIP3    H238701   1.913   4.906   6.718
12920TIP3   OH238702   5.552   4.295   3.683
12920TIP3    H138703   5.557   4.387   3.711
12920TIP3    H238704   5.618   4.250   3.735
12921TIP3   OH238705   6.684   6.545   1.681
12921TIP3    H138706   6.636   6.515   1.758
12921TIP3    H238707   6.655   6.636   1.668
12922TIP3   OH238708   1.264   5.579   2.718
12922TIP3    H138709   1.301   5.491   2.721
12922TIP3    H238710   1.203   5.582   2.792
12923TIP3   OH238711   3.774   3.694   4.667
12923TIP3    H138712   3.728   3.626   4.618
12923TIP3    H238713   3.762   3.774   4.616
12924TIP3   OH238714   4.898   0.929   0.541
12924TIP3    H138715   4.945   1.008   0.514
12924TIP3    H238716   4.966   0.871   0.575
12925TIP3   OH238717   8.047   0.360   3.109
12925TIP3    H138718   8.136   0.342   3.076
12925TIP3    H238719   8.061   0.411   3.188
12926TIP3   OH238720   5.471   4.337   0.541
12926TIP3    H138721   5.419   4.257   0.541
12926TIP3    H238722   5.469   4.367   0.631
12927TIP3   OH238723   3.868   0.825   1.568
12927TIP3    H138724   3.947   0.779   1.596
12927TIP3    H238725   3.880   0.836   1.473
12928TIP3   OH238726   6.314   2.272   4.139
12928TIP3    H138727   6.382   2.207   4.154
12928TIP3    H238728   6.339   2.316   4.057
12929TIP3   OH238729   7.730   3.980   3.239
12929TIP3    H138730   7.777   4.018   3.313
12929TIP3    H238731   7.708   4.054   3.183
12930TIP3   OH238732   3.852   4.647   1.069
12930TIP3    H138733   3.817   4.602   1.146
12930TIP3    H238734   3.840   4.586   0.997
12931TIP3   OH238735   6.858   1.169   3.037
12931TIP3    H138736   6.951   1.144   3.033
12931TIP3    H238737   6.851   1.244   2.978
12932TIP3   OH238738   6.783   6.116   2.191
12932TIP3    H138739   6.769   6.026   2.220
12932TIP3    H238740   6.865   6.113   2.142
12933TIP3   OH238741   2.042   3.051   4.831
12933TIP3    H138742   2.033   2.964   4.869
12933TIP3    H238743   1.999   3.109   4.894
12934TIP3   OH238744   7.589   0.259   4.508
12934TIP3    H138745   7.675   0.293   4.534
12934TIP3    H238746   7.583   0.174   4.553
12935TIP3   OH238747   3.175   6.798   6.680
12935TIP3    H138748   3.233   6.803   6.756
12935TIP3    H238749   3.101   6.744   6.710
12936TIP3   OH238750   7.478   5.785   1.769
12936TIP3    H138751   7.458   5.879   1.764
12936TIP3    H238752   7.401   5.742   1.733
12937TIP3   OH238753   7.337   2.136   4.708
12937TIP3    H138754   7.335   2.198   4.634
12937TIP3    H238755   7.382   2.059   4.673
12938TIP3   OH238756   7.184   0.307   2.475
12938TIP3    H138757   7.272   0.324   2.509
12938TIP3    H238758   7.196   0.234   2.414
12939TIP3   OH238759   3.653   2.196   2.820
12939TIP3    H138760   3.589   2.144   2.771
12939TIP3    H238761   3.706   2.131   2.865
12940TIP3   OH238762   2.296   4.434   2.318
12940TIP3    H138763   2.377   4.393   2.285
12940TIP3    H238764   2.264   4.486   2.244
12941TIP3   OH238765   6.122   0.728   4.377
12941TIP3    H138766   6.169   0.691   4.452
12941TIP3    H238767   6.099   0.817   4.406
12942TIP3   OH238768   1.347   3.676   5.880
12942TIP3    H138769   1.413   3.727   5.834
12942TIP3    H238770   1.300   3.739   5.934
12943TIP3   OH238771   3.006   2.051   0.040
12943TIP3    H138772   3.077   2.081  -0.016
12943TIP3    H238773   3.011   2.107   0.118
12944TIP3   OH238774   5.320   7.018   6.145
12944TIP3    H138775   5.406   7.008   6.105
12944TIP3    H238776   5.302   6.934   6.187
12945TIP3   OH238777   1.988   0.860   0.365
12945TIP3    H138778   1.946   0.907   0.293
12945TIP3    H238779   2.076   0.899   0.370
12946TIP3   OH238780   4.704   4.403   1.451
12946TIP3    H138781   4.630   4.359   1.493
12946TIP3    H238782   4.680   4.408   1.359
12947TIP3   OH238783   0.616   2.993   4.212
12947TIP3    H138784   0.623   2.898   4.222
12947TIP3    H238785   0.541   3.017   4.267
12948TIP3   OH238786   0.729   1.759   2.871
12948TIP3    H138787   0.805   1.776   2.926
12948TIP3    H238788   0.759   1.693   2.808
12949TIP3   OH238789   5.614   3.274   5.161
12949TIP3    H138790   5.679   3.301   5.225
12949TIP3    H238791   5.587   3.187   5.189
12950TIP3   OH238792   5.794   0.489   5.750
12950TIP3    H138793   5.836   0.570   5.722
12950TIP3    H238794   5.752   0.511   5.833
12951TIP3   OH238795   1.335   0.445   4.657
12951TIP3    H138796   1.358   0.353   4.671
12951TIP3    H238797   1.307   0.448   4.565
12952TIP3   OH238798   3.888   5.193   3.706
12952TIP3    H138799   3.932   5.219   3.625
12952TIP3    H238800   3.796   5.187   3.682
12953TIP3   OH238801   1.357   0.813   1.930
12953TIP3    H138802   1.450   0.792   1.921
12953TIP3    H238803   1.353   0.909   1.924
12954TIP3   OH238804   5.367   2.344   0.429
12954TIP3    H138805   5.285   2.386   0.404
12954TIP3    H238806   5.344   2.252   0.446
12955TIP3   OH238807   3.891   3.054   4.971
12955TIP3    H138808   3.836   3.034   5.047
12955TIP3    H238809   3.887   2.975   4.917
12956TIP3   OH238810   2.807   6.381   5.942
12956TIP3    H138811   2.865   6.307   5.959
12956TIP3    H238812   2.769   6.402   6.027
12957TIP3   OH238813   6.525   0.037   6.277
12957TIP3    H138814   6.516   0.128   6.305
12957TIP3    H238815   6.451  -0.008   6.319
12958TIP3   OH238816   8.128   0.172   3.672
12958TIP3    H138817   8.160   0.156   3.761
12958TIP3    H238818   8.034   0.183   3.682
12959TIP3   OH238819   2.830   2.412   0.369
12959TIP3    H138820   2.838   2.402   0.464
12959TIP3    H238821   2.804   2.503   0.357
12960TIP3   OH238822   0.281   7.446   2.029
12960TIP3    H138823   0.320   7.359   2.029
12960TIP3    H238824   0.198   7.436   1.983
12961TIP3   OH238825   0.371   5.049   2.671
12961TIP3    H138826   0.416   4.990   2.732
12961TIP3    H238827   0.372   5.002   2.588
12962TIP3   OH238828   6.088   1.338   6.465
12962TIP3    H138829   6.170   1.380   6.490
12962TIP3    H238830   6.022   1.406   6.477
12963TIP3   OH238831   0.459   1.584   5.769
12963TIP3    H138832   0.414   1.544   5.695
12963TIP3    H238833   0.414   1.548   5.846
12964TIP3   OH238834   6.939   7.551   1.615
12964TIP3    H138835   6.925   7.457   1.631
12964TIP3    H238836   6.851   7.585   1.598
12965TIP3   OH238837   2.394   4.204   0.554
12965TIP3    H138838   2.302   4.183   0.539
12965TIP3    H238839   2.426   4.234   0.469
12966TIP3   OH238840   1.306   6.124   3.728
12966TIP3    H138841   1.346   6.211   3.718
12966TIP3    H238842   1.360   6.080   3.793
12967TIP3   OH238843   7.701   1.127   0.781
12967TIP3    H138844   7.772   1.174   0.738
12967TIP3    H238845   7.734   1.038   0.792
12968TIP3   OH238846   3.816   7.839   2.431
12968TIP3    H138847   3.771   7.776   2.487
12968TIP3    H238848   3.764   7.919   2.439
12969TIP3   OH238849   7.011   1.511   6.722
12969TIP3    H138850   6.959   1.591   6.729
12969TIP3    H238851   7.094   1.540   6.684
12970TIP3   OH238852   0.443   1.712   1.827
12970TIP3    H138853   0.388   1.751   1.895
12970TIP3    H238854   0.462   1.785   1.767
12971TIP3   OH238855   2.474   2.938   0.195
12971TIP3    H138856   2.552   2.908   0.149
12971TIP3    H238857   2.401   2.909   0.141
12972TIP3   OH238858   7.846   6.395   5.629
12972TIP3    H138859   7.892   6.435   5.703
12972TIP3    H238860   7.753   6.401   5.652
12973TIP3   OH238861   7.853   6.854   5.066
12973TIP3    H138862   7.812   6.940   5.059
12973TIP3    H238863   7.925   6.866   5.127
12974TIP3   OH238864   4.853   5.258   6.311
12974TIP3    H138865   4.925   5.200   6.287
12974TIP3    H238866   4.822   5.293   6.227
12975TIP3   OH238867   2.671   5.963   4.562
12975TIP3    H138868   2.633   5.907   4.494
12975TIP3    H238869   2.711   5.901   4.624
12976TIP3   OH238870   2.556   2.592   4.546
12976TIP3    H138871   2.620   2.657   4.517
12976TIP3    H238872   2.564   2.521   4.484
12977TIP3   OH238873   0.762   4.287   4.103
12977TIP3    H138874   0.835   4.348   4.108
12977TIP3    H238875   0.786   4.215   4.162
12978TIP3   OH238876   7.607   4.914   5.661
12978TIP3    H138877   7.638   4.975   5.594
12978TIP3    H238878   7.620   4.962   5.743
12979TIP3   OH238879   5.238   2.120   1.490
12979TIP3    H138880   5.217   2.204   1.530
12979TIP3    H238881   5.160   2.098   1.438
12980TIP3   OH238882   3.563   1.331   6.093
12980TIP3    H138883   3.572   1.310   6.000
12980TIP3    H238884   3.472   1.310   6.114
12981TIP3   OH238885   1.113   0.166   5.364
12981TIP3    H138886   1.035   0.197   5.411
12981TIP3    H238887   1.169   0.243   5.356
12982TIP3   OH238888   2.706   0.512   5.020
12982TIP3    H138889   2.700   0.450   5.092
12982TIP3    H238890   2.694   0.459   4.941
12983TIP3   OH238891   6.001   3.597   2.481
12983TIP3    H138892   6.046   3.515   2.460
12983TIP3    H238893   6.030   3.658   2.414
12984TIP3   OH238894   5.859   5.175   2.666
12984TIP3    H138895   5.879   5.261   2.629
12984TIP3    H238896   5.766   5.161   2.646
12985TIP3   OH238897   5.819   2.503   0.241
12985TIP3    H138898   5.793   2.436   0.177
12985TIP3    H238899   5.890   2.462   0.290
12986TIP3   OH238900   2.393   2.902   6.479
12986TIP3    H138901   2.444   2.983   6.476
12986TIP3    H238902   2.452   2.835   6.442
12987TIP3   OH238903   5.729   5.146   4.206
12987TIP3    H138904   5.763   5.235   4.219
12987TIP3    H238905   5.668   5.133   4.279
12988TIP3   OH238906   0.466   5.634   2.043
12988TIP3    H138907   0.404   5.611   1.975
12988TIP3    H238908   0.542   5.579   2.026
12989TIP3   OH238909   1.509   2.903   0.592
12989TIP3    H138910   1.483   2.867   0.677
12989TIP3    H238911   1.510   2.997   0.605
12990TIP3   OH238912   3.843   2.632   0.550
12990TIP3    H138913   3.845   2.641   0.645
12990TIP3    H238914   3.853   2.721   0.516
12991TIP3   OH238915   2.154   4.767   0.498
12991TIP3    H138916   2.177   4.717   0.577
12991TIP3    H238917   2.111   4.704   0.441
12992TIP3   OH238918   3.306   3.829   6.292
12992TIP3    H138919   3.212   3.825   6.308
12992TIP3    H238920   3.346   3.812   6.377
12993TIP3   OH238921   7.752   2.306   0.232
12993TIP3    H138922   7.721   2.293   0.143
12993TIP3    H238923   7.746   2.219   0.273
12994TIP3   OH238924   7.491   0.713   0.049
12994TIP3    H138925   7.567   0.747   0.095
12994TIP3    H238926   7.486   0.765  -0.031
12995TIP3   OH238927   7.383   6.164   4.903
12995TIP3    H138928   7.430   6.151   4.821
12995TIP3    H238929   7.389   6.258   4.920
12996TIP3   OH238930   2.356   6.615   6.446
12996TIP3    H138931   2.315   6.587   6.364
12996TIP3    H238932   2.283   6.627   6.506
12997TIP3   OH238933   4.345   3.274   2.790
12997TIP3    H138934   4.323   3.189   2.751
12997TIP3    H238935   4.428   3.259   2.835
12998TIP3   OH238936   1.308   2.592   0.511
12998TIP3    H138937   1.256   2.627   0.438
12998TIP3    H238938   1.398   2.619   0.491
12999TIP3   OH238939   7.519   2.260   2.957
12999TIP3    H138940   7.572   2.324   3.006
12999TIP3    H238941   7.515   2.184   3.014
13000TIP3   OH238942   6.934   3.423   2.762
13000TIP3    H138943   6.955   3.486   2.693
13000TIP3    H238944   6.849   3.386   2.737
13001TIP3   OH238945   6.287   0.051   2.011
13001TIP3    H138946   6.352  -0.005   2.052
13001TIP3    H238947   6.302   0.040   1.917
13002TIP3   OH238948   4.055   6.960   2.723
13002TIP3    H138949   3.986   7.017   2.689
13002TIP3    H238950   4.025   6.936   2.811
13003TIP3   OH238951   6.776   4.797   2.805
13003TIP3    H138952   6.850   4.843   2.764
13003TIP3    H238953   6.797   4.795   2.898
13004TIP3   OH238954   1.318   1.080   1.917
13004TIP3    H138955   1.377   1.095   1.843
13004TIP3    H238956   1.233   1.115   1.888
13005TIP3   OH238957   1.790   0.992   5.964
13005TIP3    H138958   1.756   0.971   5.877
13005TIP3    H238959   1.791   1.087   5.967
13006TIP3   OH238960   2.256   0.951   0.405
13006TIP3    H138961   2.323   0.941   0.473
13006TIP3    H238962   2.267   1.041   0.374
13007TIP3   OH238963   5.220   7.152   3.628
13007TIP3    H138964   5.133   7.168   3.665
13007TIP3    H238965   5.244   7.234   3.586
13008TIP3   OH238966   3.957   2.403   0.432
13008TIP3    H138967   3.898   2.470   0.467
13008TIP3    H238968   4.036   2.410   0.485
13009TIP3   OH238969   2.376   2.099   0.713
13009TIP3    H138970   2.298   2.114   0.767
13009TIP3    H238971   2.439   2.163   0.744
13010TIP3   OH238972   2.794   4.334   1.317
13010TIP3    H138973   2.731   4.406   1.322
13010TIP3    H238974   2.753   4.263   1.368
13011TIP3   OH238975   4.716   7.549   4.581
13011TIP3    H138976   4.800   7.577   4.619
13011TIP3    H238977   4.727   7.455   4.567
13012TIP3   OH238978   2.655   0.211   2.179
13012TIP3    H138979   2.624   0.271   2.111
13012TIP3    H238980   2.593   0.224   2.251
13013TIP3   OH238981   6.071   0.281   1.757
13013TIP3    H138982   6.109   0.281   1.845
13013TIP3    H238983   6.041   0.191   1.743
13014TIP3   OH238984   5.131   7.063   4.070
13014TIP3    H138985   5.044   7.084   4.103
13014TIP3    H238986   5.184   7.049   4.148
13015TIP3   OH238987   5.406   5.732   4.932
13015TIP3    H138988   5.485   5.783   4.951
13015TIP3    H238989   5.398   5.735   4.837
13016TIP3   OH238990   4.041   6.693   2.908
13016TIP3    H138991   4.033   6.681   2.813
13016TIP3    H238992   4.067   6.785   2.918
13017TIP3   OH238993   6.916   0.981   2.252
13017TIP3    H138994   6.842   1.007   2.198
13017TIP3    H238995   6.988   0.969   2.190
13018TIP3   OH238996   7.789   3.833   5.005
13018TIP3    H138997   7.862   3.835   4.944
13018TIP3    H238998   7.728   3.898   4.971
13019TIP3   OH238999   4.233   7.577   2.338
13019TIP3    H139000   4.193   7.664   2.328
13019TIP3    H239001   4.160   7.522   2.366
13020TIP3   OH239002   5.478   2.040   4.456
13020TIP3    H139003   5.387   2.008   4.461
13020TIP3    H239004   5.513   2.000   4.376
13021TIP3   OH239005   7.172   3.377   4.739
13021TIP3    H139006   7.119   3.334   4.806
13021TIP3    H239007   7.203   3.306   4.683
13022TIP3   OH239008   6.972   5.613   1.288
13022TIP3    H139009   6.902   5.570   1.339
13022TIP3    H239010   7.035   5.543   1.272
13023TIP3   OH239011   0.448   0.877   6.273
13023TIP3    H139012   0.427   0.802   6.217
13023TIP3    H239013   0.450   0.842   6.362
13024TIP3   OH239014   0.118   0.797   3.700
13024TIP3    H139015   0.183   0.758   3.758
13024TIP3    H239016   0.070   0.858   3.756
13025TIP3   OH239017   0.170   6.229   3.606
13025TIP3    H139018   0.260   6.262   3.599
13025TIP3    H239019   0.180   6.139   3.635
13026TIP3   OH239020   1.765   6.328   3.221
13026TIP3    H139021   1.849   6.287   3.201
13026TIP3    H239022   1.771   6.415   3.182
13027TIP3   OH239023   5.910   7.450   6.515
13027TIP3    H139024   5.924   7.460   6.421
13027TIP3    H239025   5.847   7.519   6.537
13028TIP3   OH239026   0.782   0.050   4.031
13028TIP3    H139027   0.735   0.026   4.111
13028TIP3    H239028   0.768  -0.023   3.972
13029TIP3   OH239029   3.697   1.143   4.035
13029TIP3    H139030   3.702   1.227   3.991
13029TIP3    H239031   3.609   1.111   4.014
13030TIP3   OH239032   6.047   7.654   0.759
13030TIP3    H139033   6.065   7.650   0.665
13030TIP3    H239034   6.134   7.658   0.799
13031TIP3   OH239035   1.963   3.157   1.775
13031TIP3    H139036   1.949   3.191   1.687
13031TIP3    H239037   2.005   3.072   1.762
13032TIP3   OH239038   2.842   5.393   2.645
13032TIP3    H139039   2.772   5.426   2.589
13032TIP3    H239040   2.816   5.417   2.734
13033TIP3   OH239041   0.267   7.033   4.682
13033TIP3    H139042   0.288   7.122   4.653
13033TIP3    H239043   0.295   6.977   4.610
13034TIP3   OH239044   7.669   2.975   2.022
13034TIP3    H139045   7.589   2.981   1.969
13034TIP3    H239046   7.679   2.882   2.039
13035TIP3   OH239047   2.319   3.804   2.230
13035TIP3    H139048   2.319   3.709   2.227
13035TIP3    H239049   2.412   3.828   2.226
13036TIP3   OH239050   2.900   4.771   1.490
13036TIP3    H139051   2.829   4.751   1.428
13036TIP3    H239052   2.857   4.771   1.576
13037TIP3   OH239053   5.460   3.816   5.672
13037TIP3    H139054   5.426   3.898   5.638
13037TIP3    H239055   5.458   3.756   5.598
13038TIP3   OH239056   7.270   3.349   5.630
13038TIP3    H139057   7.184   3.323   5.662
13038TIP3    H239058   7.270   3.445   5.638
13039TIP3   OH239059   8.021   6.357   5.871
13039TIP3    H139060   7.945   6.300   5.878
13039TIP3    H239061   8.047   6.374   5.962
13040TIP3   OH239062   3.147   3.261   6.380
13040TIP3    H139063   3.166   3.335   6.437
13040TIP3    H239064   3.182   3.286   6.294
13041TIP3   OH239065   5.820   0.402   4.860
13041TIP3    H139066   5.791   0.317   4.893
13041TIP3    H239067   5.806   0.398   4.766
13042TIP3   OH239068   4.281   2.102   0.930
13042TIP3    H139069   4.294   2.196   0.913
13042TIP3    H239070   4.264   2.098   1.024
13043TIP3   OH239071   4.129   3.908   3.972
13043TIP3    H139072   4.051   3.896   4.026
13043TIP3    H239073   4.127   4.000   3.947
13044TIP3   OH239074   7.812   4.281   5.225
13044TIP3    H139075   7.766   4.222   5.284
13044TIP3    H239076   7.893   4.236   5.204
13045TIP3   OH239077   5.879   7.587   3.455
13045TIP3    H139078   5.895   7.679   3.478
13045TIP3    H239079   5.966   7.547   3.454
13046TIP3   OH239080   1.550   5.540   4.890
13046TIP3    H139081   1.505   5.477   4.947
13046TIP3    H239082   1.492   5.617   4.888
13047TIP3   OH239083   6.452   1.806   2.247
13047TIP3    H139084   6.414   1.859   2.177
13047TIP3    H239085   6.502   1.867   2.300
13048TIP3   OH239086   7.685   1.062   5.945
13048TIP3    H139087   7.767   1.089   5.987
13048TIP3    H239088   7.707   1.060   5.851
13049TIP3   OH239089   1.287   3.935   1.169
13049TIP3    H139090   1.368   3.897   1.135
13049TIP3    H239091   1.308   4.027   1.182
13050TIP3   OH239092   6.160   5.102   3.466
13050TIP3    H139093   6.150   5.019   3.514
13050TIP3    H239094   6.253   5.122   3.472
13051TIP3   OH239095   4.229   4.136   1.987
13051TIP3    H139096   4.194   4.220   2.016
13051TIP3    H239097   4.154   4.076   1.993
13052TIP3   OH239098   4.052   3.255   5.021
13052TIP3    H139099   4.110   3.284   4.951
13052TIP3    H239100   3.990   3.196   4.979
13053TIP3   OH239101   4.219   0.292   3.380
13053TIP3    H139102   4.262   0.376   3.363
13053TIP3    H239103   4.171   0.272   3.300
13054TIP3   OH239104   3.590   5.062   0.701
13054TIP3    H139105   3.504   5.027   0.681
13054TIP3    H239106   3.603   5.132   0.637
13055TIP3   OH239107   7.069   6.432   0.262
13055TIP3    H139108   7.045   6.340   0.254
13055TIP3    H239109   7.161   6.435   0.235
13056TIP3   OH239110   8.296   0.495   5.556
13056TIP3    H139111   8.286   0.541   5.640
13056TIP3    H239112   8.355   0.423   5.575
13057TIP3   OH239113   0.155   6.017   0.373
13057TIP3    H139114   0.161   6.043   0.465
13057TIP3    H239115   0.218   6.074   0.328
13058TIP3   OH239116   5.685   2.620   1.962
13058TIP3    H139117   5.697   2.682   1.889
13058TIP3    H239118   5.771   2.581   1.975
13059TIP3   OH239119   5.174   0.486   6.594
13059TIP3    H139120   5.133   0.524   6.517
13059TIP3    H239121   5.110   0.423   6.626
13060TIP3   OH239122   4.091   3.028   5.223
13060TIP3    H139123   4.093   2.936   5.196
13060TIP3    H239124   4.046   3.073   5.151
13061TIP3   OH239125   5.222   1.101   0.113
13061TIP3    H139126   5.164   1.070   0.043
13061TIP3    H239127   5.264   1.021   0.145
13062TIP3   OH239128   2.938   1.207   1.482
13062TIP3    H139129   2.929   1.268   1.408
13062TIP3    H239130   2.851   1.206   1.522
13063TIP3   OH239131   3.504   4.284   0.500
13063TIP3    H139132   3.563   4.231   0.446
13063TIP3    H239133   3.561   4.345   0.546
13064TIP3   OH239134   6.579   5.174   2.458
13064TIP3    H139135   6.514   5.104   2.459
13064TIP3    H239136   6.565   5.219   2.375
13065TIP3   OH239137   6.553   6.843   1.217
13065TIP3    H139138   6.597   6.766   1.253
13065TIP3    H239139   6.501   6.877   1.289
13066TIP3   OH239140   0.401   1.253   2.711
13066TIP3    H139141   0.482   1.202   2.710
13066TIP3    H239142   0.402   1.297   2.796
13067TIP3   OH239143   3.139   0.288   0.857
13067TIP3    H139144   3.211   0.337   0.818
13067TIP3    H239145   3.177   0.249   0.936
13068TIP3   OH239146   3.622   0.541   1.109
13068TIP3    H139147   3.686   0.500   1.050
13068TIP3    H239148   3.623   0.486   1.187
13069TIP3   OH239149   0.067   5.554   3.417
13069TIP3    H139150   0.121   5.560   3.496
13069TIP3    H239151  -0.009   5.608   3.435
13070TIP3   OH239152   4.707   7.784   4.964
13070TIP3    H139153   4.664   7.863   4.996
13070TIP3    H239154   4.639   7.737   4.916
13071TIP3   OH239155   5.662   6.938   3.695
13071TIP3    H139156   5.704   6.852   3.693
13071TIP3    H239157   5.569   6.919   3.697
13072TIP3   OH239158   2.107   3.972   2.999
13072TIP3    H139159   2.023   3.935   2.972
13072TIP3    H239160   2.168   3.947   2.929
13073TIP3   OH239161   3.642   3.442   0.041
13073TIP3    H139162   3.605   3.385   0.108
13073TIP3    H239163   3.599   3.416  -0.040
13074TIP3   OH239164   0.598   3.935   0.548
13074TIP3    H139165   0.525   3.873   0.546
13074TIP3    H239166   0.599   3.974   0.460
13075TIP3   OH239167   7.344   4.020   2.176
13075TIP3    H139168   7.256   4.042   2.148
13075TIP3    H239169   7.335   4.002   2.270
13076TIP3   OH239170   1.510   0.653   4.640
13076TIP3    H139171   1.453   0.576   4.633
13076TIP3    H239172   1.514   0.689   4.551
13077TIP3   OH239173   6.372   3.320   5.771
13077TIP3    H139174   6.313   3.320   5.696
13077TIP3    H239175   6.459   3.305   5.734
13078TIP3   OH239176   2.093   3.652   3.159
13078TIP3    H139177   2.150   3.637   3.235
13078TIP3    H239178   2.139   3.611   3.086
13079TIP3   OH239179   3.036   4.681   3.165
13079TIP3    H139180   2.967   4.686   3.231
13079TIP3    H239181   3.117   4.671   3.215
13080TIP3   OH239182   0.800   7.406   4.632
13080TIP3    H139183   0.872   7.345   4.616
13080TIP3    H239184   0.790   7.405   4.728
13081TIP3   OH239185   7.587   1.792   6.084
13081TIP3    H139186   7.642   1.847   6.028
13081TIP3    H239187   7.650   1.735   6.130
13082TIP3   OH239188   3.883   5.873   0.797
13082TIP3    H139189   3.810   5.839   0.746
13082TIP3    H239190   3.961   5.834   0.758
13083TIP3   OH239191   5.362   2.789   1.053
13083TIP3    H139192   5.385   2.799   0.960
13083TIP3    H239193   5.338   2.878   1.080
13084TIP3   OH239194   7.629   1.607   1.196
13084TIP3    H139195   7.680   1.560   1.131
13084TIP3    H239196   7.571   1.663   1.145
13085TIP3   OH239197   3.773   4.355   2.925
13085TIP3    H139198   3.761   4.427   2.987
13085TIP3    H239199   3.713   4.375   2.854
13086TIP3   OH239200   3.485   4.625   6.772
13086TIP3    H139201   3.454   4.538   6.746
13086TIP3    H239202   3.464   4.682   6.697
13087TIP3   OH239203   6.953   2.304   6.751
13087TIP3    H139204   7.039   2.343   6.765
13087TIP3    H239205   6.925   2.337   6.665
13088TIP3   OH239206   2.215   2.119   3.850
13088TIP3    H139207   2.266   2.039   3.836
13088TIP3    H239208   2.251   2.158   3.929
13089TIP3   OH239209   0.841   7.083   4.609
13089TIP3    H139210   0.841   7.080   4.705
13089TIP3    H239211   0.922   7.040   4.583
13090TIP3   OH239212   7.917   4.650   2.713
13090TIP3    H139213   7.970   4.580   2.751
13090TIP3    H239214   7.827   4.623   2.729
13091TIP3   OH239215   3.513   3.090   1.419
13091TIP3    H139216   3.465   3.026   1.471
13091TIP3    H239217   3.534   3.160   1.480
13092TIP3   OH239218   6.501   7.076   2.634
13092TIP3    H139219   6.511   7.170   2.652
13092TIP3    H239220   6.591   7.043   2.631
13093TIP3   OH239221   2.505   0.647   4.649
13093TIP3    H139222   2.434   0.708   4.632
13093TIP3    H239223   2.567   0.697   4.702
13094TIP3   OH239224   4.212   7.375   0.839
13094TIP3    H139225   4.155   7.332   0.776
13094TIP3    H239226   4.211   7.318   0.916
13095TIP3   OH239227   4.525   0.469   4.653
13095TIP3    H139228   4.529   0.453   4.748
13095TIP3    H239229   4.444   0.518   4.641
13096TIP3   OH239230   3.105   5.994   1.495
13096TIP3    H139231   3.015   6.014   1.470
13096TIP3    H239232   3.157   6.009   1.416
13097TIP3   OH239233   1.580   2.256   0.357
13097TIP3    H139234   1.580   2.336   0.306
13097TIP3    H239235   1.574   2.285   0.448
13098TIP3   OH239236   3.460   4.607   4.472
13098TIP3    H139237   3.513   4.636   4.398
13098TIP3    H239238   3.411   4.685   4.498
13099TIP3   OH239239   4.493   3.855   2.380
13099TIP3    H139240   4.416   3.888   2.332
13099TIP3    H239241   4.558   3.925   2.371
13100TIP3   OH239242   8.310   5.489   4.601
13100TIP3    H139243   8.295   5.425   4.671
13100TIP3    H239244   8.279   5.445   4.522
13101TIP3   OH239245   1.470   4.377   5.066
13101TIP3    H139246   1.547   4.326   5.040
13101TIP3    H239247   1.490   4.467   5.041
13102TIP3   OH239248   1.917   1.775   3.201
13102TIP3    H139249   1.833   1.806   3.169
13102TIP3    H239250   1.959   1.736   3.124
13103TIP3   OH239251   6.530   1.739   1.681
13103TIP3    H139252   6.590   1.806   1.649
13103TIP3    H239253   6.443   1.779   1.672
13104TIP3   OH239254   0.805   2.198   4.034
13104TIP3    H139255   0.843   2.173   3.950
13104TIP3    H239256   0.714   2.221   4.014
13105TIP3   OH239257   4.380   0.208   6.034
13105TIP3    H139258   4.401   0.131   6.086
13105TIP3    H239259   4.405   0.282   6.089
13106TIP3   OH239260   7.661   3.501   2.450
13106TIP3    H139261   7.693   3.544   2.529
13106TIP3    H239262   7.738   3.495   2.393
13107TIP3   OH239263   3.379   2.867   1.466
13107TIP3    H139264   3.378   2.871   1.562
13107TIP3    H239265   3.297   2.822   1.443
13108TIP3   OH239266   5.492   2.443   1.910
13108TIP3    H139267   5.554   2.510   1.940
13108TIP3    H239268   5.546   2.379   1.865
13109TIP3   OH239269   7.089   0.866   4.353
13109TIP3    H139270   7.013   0.819   4.386
13109TIP3    H239271   7.090   0.949   4.401
13110TIP3   OH239272   6.057   6.713   2.944
13110TIP3    H139273   6.038   6.790   2.997
13110TIP3    H239274   6.107   6.747   2.870
13111TIP3   OH239275   6.341   5.436   2.129
13111TIP3    H139276   6.359   5.525   2.098
13111TIP3    H239277   6.272   5.447   2.195
13112TIP3   OH239278   2.947   6.866   5.704
13112TIP3    H139279   3.014   6.855   5.772
13112TIP3    H239280   2.891   6.789   5.713
13113TIP3   OH239281   2.142   5.151   6.124
13113TIP3    H139282   2.075   5.205   6.166
13113TIP3    H239283   2.170   5.203   6.048
13114TIP3   OH239284   7.852   0.758   3.027
13114TIP3    H139285   7.873   0.672   2.990
13114TIP3    H239286   7.771   0.785   2.983
13115TIP3   OH239287   3.031   3.508   5.418
13115TIP3    H139288   3.037   3.590   5.468
13115TIP3    H239289   3.016   3.537   5.327
13116TIP3   OH239290   0.096   1.576   5.008
13116TIP3    H139291   0.096   1.491   4.964
13116TIP3    H239292   0.012   1.614   4.985
13117TIP3   OH239293   3.014   2.247   0.269
13117TIP3    H139294   2.942   2.283   0.321
13117TIP3    H239295   3.076   2.320   0.261
13118TIP3   OH239296   5.023   4.766   3.369
13118TIP3    H139297   5.001   4.682   3.410
13118TIP3    H239298   4.946   4.787   3.316
13119TIP3   OH239299   0.379   4.452   6.705
13119TIP3    H139300   0.307   4.487   6.758
13119TIP3    H239301   0.383   4.510   6.629
13120TIP3   OH239302   7.569   2.977   0.756
13120TIP3    H139303   7.560   3.067   0.787
13120TIP3    H239304   7.613   2.931   0.828
13121TIP3   OH239305   5.983   7.805   0.098
13121TIP3    H139306   6.048   7.872   0.119
13121TIP3    H239307   6.033   7.733   0.059
13122TIP3   OH239308   5.637   6.627   3.538
13122TIP3    H139309   5.723   6.659   3.563
13122TIP3    H239310   5.651   6.578   3.457
13123TIP3   OH239311   4.392   1.193   1.878
13123TIP3    H139312   4.388   1.195   1.974
13123TIP3    H239313   4.443   1.270   1.854
13124TIP3   OH239314   7.230   2.779   0.290
13124TIP3    H139315   7.154   2.752   0.238
13124TIP3    H239316   7.254   2.700   0.339
13125TIP3   OH239317   5.784   2.951   6.511
13125TIP3    H139318   5.755   3.005   6.437
13125TIP3    H239319   5.743   2.866   6.495
13126TIP3   OH239320   2.395   2.203   4.067
13126TIP3    H139321   2.489   2.213   4.057
13126TIP3    H239322   2.385   2.133   4.132
13127TIP3   OH239323   0.631   7.314   3.576
13127TIP3    H139324   0.605   7.227   3.544
13127TIP3    H239325   0.721   7.325   3.546
13128TIP3   OH239326   7.177   4.555   5.250
13128TIP3    H139327   7.248   4.608   5.286
13128TIP3    H239328   7.118   4.539   5.324
13129TIP3   OH239329   7.958   6.659   3.274
13129TIP3    H139330   7.959   6.567   3.299
13129TIP3    H239331   7.871   6.673   3.236
13130TIP3   OH239332   6.693   4.395   0.179
13130TIP3    H139333   6.740   4.347   0.111
13130TIP3    H239334   6.651   4.327   0.232
13131TIP3   OH239335   5.071   4.075   0.827
13131TIP3    H139336   5.085   4.120   0.910
13131TIP3    H239337   4.979   4.092   0.805
13132TIP3   OH239338   5.499   5.973   3.841
13132TIP3    H139339   5.433   5.996   3.775
13132TIP3    H239340   5.581   6.001   3.802
13133TIP3   OH239341   3.802   1.765   5.055
13133TIP3    H139342   3.768   1.679   5.031
13133TIP3    H239343   3.877   1.746   5.112
13134TIP3   OH239344   7.441   1.603   1.379
13134TIP3    H139345   7.500   1.630   1.309
13134TIP3    H239346   7.357   1.585   1.335
13135TIP3   OH239347   8.075   6.807   2.712
13135TIP3    H139348   8.006   6.749   2.680
13135TIP3    H239349   8.036   6.848   2.790
13136TIP3   OH239350   2.607   4.648   1.763
13136TIP3    H139351   2.625   4.623   1.673
13136TIP3    H239352   2.603   4.565   1.811
13137TIP3   OH239353   7.002   5.093   4.910
13137TIP3    H139354   7.080   5.075   4.963
13137TIP3    H239355   6.944   5.018   4.926
13138TIP3   OH239356   6.020   6.809   4.105
13138TIP3    H139357   6.086   6.850   4.161
13138TIP3    H239358   5.964   6.882   4.076
13139TIP3   OH239359   3.984   5.052   1.227
13139TIP3    H139360   3.948   5.016   1.146
13139TIP3    H239361   4.071   5.084   1.203
13140TIP3   OH239362   4.901   4.316   3.106
13140TIP3    H139363   4.943   4.231   3.105
13140TIP3    H239364   4.962   4.374   3.151
13141TIP3   OH239365   1.001   4.798   3.782
13141TIP3    H139366   0.949   4.867   3.824
13141TIP3    H239367   0.972   4.718   3.825
13142TIP3   OH239368   1.638   5.593   2.943
13142TIP3    H139369   1.591   5.647   2.880
13142TIP3    H239370   1.661   5.652   3.014
13143TIP3   OH239371   0.425   1.570   2.745
13143TIP3    H139372   0.410   1.581   2.838
13143TIP3    H239373   0.340   1.586   2.704
13144TIP3   OH239374   0.712   4.537   4.674
13144TIP3    H139375   0.717   4.469   4.742
13144TIP3    H239376   0.704   4.619   4.722
13145TIP3   OH239377   6.056   0.761   3.644
13145TIP3    H139378   6.021   0.740   3.731
13145TIP3    H239379   6.104   0.842   3.656
13146TIP3   OH239380   0.904   7.863   5.594
13146TIP3    H139381   0.894   7.830   5.683
13146TIP3    H239382   0.830   7.922   5.582
13147TIP3   OH239383   3.321   6.541   2.166
13147TIP3    H139384   3.337   6.517   2.074
13147TIP3    H239385   3.333   6.460   2.214
13148TIP3   OH239386   6.036   6.517   0.432
13148TIP3    H139387   6.114   6.480   0.390
13148TIP3    H239388   6.039   6.610   0.411
13149TIP3   OH239389   7.195   3.343   0.158
13149TIP3    H139390   7.254   3.369   0.229
13149TIP3    H239391   7.246   3.359   0.078
13150TIP3   OH239392   5.473   0.423   1.757
13150TIP3    H139393   5.434   0.510   1.763
13150TIP3    H239394   5.522   0.413   1.838
13151TIP3   OH239395   3.060   3.391   4.569
13151TIP3    H139396   3.144   3.422   4.602
13151TIP3    H239397   3.031   3.327   4.634
13152TIP3   OH239398   0.668   5.805   5.493
13152TIP3    H139399   0.740   5.751   5.459
13152TIP3    H239400   0.628   5.750   5.560
13153TIP3   OH239401   3.744   3.780   4.356
13153TIP3    H139402   3.654   3.802   4.381
13153TIP3    H239403   3.749   3.685   4.364
13154TIP3   OH239404   7.652   3.855   2.523
13154TIP3    H139405   7.645   3.907   2.603
13154TIP3    H239406   7.612   3.771   2.545
13155TIP3   OH239407   1.120   7.365   3.272
13155TIP3    H139408   1.123   7.274   3.244
13155TIP3    H239409   1.211   7.393   3.274
13156TIP3   OH239410   0.495   4.392   0.941
13156TIP3    H139411   0.435   4.390   0.867
13156TIP3    H239412   0.518   4.300   0.956
13157TIP3   OH239413   6.786   2.128   2.115
13157TIP3    H139414   6.879   2.124   2.136
13157TIP3    H239415   6.753   2.041   2.135
13158TIP3   OH239416   1.681   5.048   0.995
13158TIP3    H139417   1.653   5.122   0.942
13158TIP3    H239418   1.606   4.988   0.993
13159TIP3   OH239419   1.275   4.145   6.600
13159TIP3    H139420   1.203   4.165   6.660
13159TIP3    H239421   1.309   4.061   6.632
13160TIP3   OH239422   4.059   3.283   2.047
13160TIP3    H139423   4.076   3.255   2.137
13160TIP3    H239424   4.117   3.229   1.994
13161TIP3   OH239425   6.109   7.100   2.648
13161TIP3    H139426   6.144   7.145   2.725
13161TIP3    H239427   6.082   7.014   2.681
13162TIP3   OH239428   1.212   5.838   6.472
13162TIP3    H139429   1.301   5.815   6.447
13162TIP3    H239430   1.221   5.878   6.558
13163TIP3   OH239431   1.136   3.629   2.422
13163TIP3    H139432   1.053   3.639   2.469
13163TIP3    H239433   1.201   3.613   2.491
13164TIP3   OH239434   3.223   5.190   0.188
13164TIP3    H139435   3.302   5.168   0.237
13164TIP3    H239436   3.179   5.107   0.175
13165TIP3   OH239437   3.400   7.132   3.864
13165TIP3    H139438   3.460   7.084   3.806
13165TIP3    H239439   3.430   7.223   3.860
13166TIP3   OH239440   7.786   3.479   0.638
13166TIP3    H139441   7.872   3.437   0.638
13166TIP3    H239442   7.727   3.413   0.603
13167TIP3   OH239443   4.566   5.836   3.516
13167TIP3    H139444   4.611   5.916   3.488
13167TIP3    H239445   4.623   5.765   3.488
13168TIP3   OH239446   1.974   3.049   4.517
13168TIP3    H139447   1.981   3.035   4.611
13168TIP3    H239448   1.893   3.003   4.492
13169TIP3   OH239449   7.289   4.429   0.674
13169TIP3    H139450   7.342   4.360   0.714
13169TIP3    H239451   7.353   4.490   0.638
13170TIP3   OH239452   4.150   4.203   3.627
13170TIP3    H139453   4.157   4.112   3.655
13170TIP3    H239454   4.238   4.226   3.597
13171TIP3   OH239455   3.653   3.596   4.068
13171TIP3    H139456   3.677   3.670   4.011
13171TIP3    H239457   3.572   3.625   4.111
13172TIP3   OH239458   0.218   7.140   2.949
13172TIP3    H139459   0.296   7.127   2.894
13172TIP3    H239460   0.164   7.201   2.898
13173TIP3   OH239461   6.028   5.021   0.293
13173TIP3    H139462   5.955   4.961   0.309
13173TIP3    H239463   6.080   4.978   0.226
13174TIP3   OH239464   2.250   2.822   6.700
13174TIP3    H139465   2.161   2.855   6.691
13174TIP3    H239466   2.292   2.840   6.616
13175TIP3   OH239467   1.551   2.860   5.097
13175TIP3    H139468   1.467   2.906   5.094
13175TIP3    H239469   1.538   2.781   5.045
13176TIP3   OH239470   1.279   0.781   6.304
13176TIP3    H139471   1.353   0.772   6.244
13176TIP3    H239472   1.203   0.750   6.254
13177TIP3   OH239473   0.475   4.444   6.039
13177TIP3    H139474   0.461   4.383   5.966
13177TIP3    H239475   0.553   4.494   6.014
13178TIP3   OH239476   3.682   3.006   2.622
13178TIP3    H139477   3.720   2.925   2.657
13178TIP3    H239478   3.667   2.987   2.529
13179TIP3   OH239479   1.618   0.568   3.206
13179TIP3    H139480   1.526   0.542   3.219
13179TIP3    H239481   1.660   0.489   3.173
13180TIP3   OH239482   1.301   5.168   4.472
13180TIP3    H139483   1.253   5.096   4.513
13180TIP3    H239484   1.287   5.155   4.378
13181TIP3   OH239485   0.432   0.380   5.422
13181TIP3    H139486   0.436   0.429   5.504
13181TIP3    H239487   0.466   0.440   5.356
13182TIP3   OH239488   5.328   5.130   1.993
13182TIP3    H139489   5.422   5.117   2.006
13182TIP3    H239490   5.290   5.118   2.080
13183TIP3   OH239491   4.874   1.126   4.232
13183TIP3    H139492   4.833   1.172   4.158
13183TIP3    H239493   4.845   1.035   4.223
13184TIP3   OH239494   6.696   4.427   5.292
13184TIP3    H139495   6.691   4.450   5.385
13184TIP3    H239496   6.614   4.382   5.273
13185TIP3   OH239497   3.315   7.185   1.023
13185TIP3    H139498   3.307   7.100   0.980
13185TIP3    H239499   3.257   7.243   0.973
13186TIP3   OH239500   4.548   7.589   4.805
13186TIP3    H139501   4.620   7.535   4.837
13186TIP3    H239502   4.567   7.602   4.712
13187TIP3   OH239503   3.059   0.079   3.151
13187TIP3    H139504   3.139   0.130   3.162
13187TIP3    H239505   3.000   0.112   3.219
13188TIP3   OH239506   4.365   2.721   4.605
13188TIP3    H139507   4.392   2.670   4.529
13188TIP3    H239508   4.349   2.809   4.571
13189TIP3   OH239509   3.457   0.097   4.420
13189TIP3    H139510   3.507   0.177   4.407
13189TIP3    H239511   3.471   0.074   4.512
13190TIP3   OH239512   5.274   5.086   2.270
13190TIP3    H139513   5.189   5.109   2.308
13190TIP3    H239514   5.319   5.037   2.340
13191TIP3   OH239515   0.976   2.337   4.569
13191TIP3    H139516   0.895   2.324   4.520
13191TIP3    H239517   0.985   2.258   4.622
13192TIP3   OH239518   1.510   5.719   3.339
13192TIP3    H139519   1.434   5.662   3.341
13192TIP3    H239520   1.484   5.797   3.388
13193TIP3   OH239521   3.212   1.416   4.715
13193TIP3    H139522   3.166   1.373   4.787
13193TIP3    H239523   3.259   1.489   4.756
13194TIP3   OH239524   8.196   5.037   3.043
13194TIP3    H139525   8.266   5.012   2.984
13194TIP3    H239526   8.129   4.971   3.030
13195TIP3   OH239527   0.321   0.855   0.145
13195TIP3    H139528   0.412   0.856   0.173
13195TIP3    H239529   0.325   0.869   0.050
13196TIP3   OH239530   0.728   5.170   4.470
13196TIP3    H139531   0.752   5.235   4.404
13196TIP3    H239532   0.747   5.212   4.553
13197TIP3   OH239533   2.405   5.533   1.288
13197TIP3    H139534   2.457   5.454   1.271
13197TIP3    H239535   2.324   5.500   1.327
13198TIP3   OH239536   7.951   0.866   3.923
13198TIP3    H139537   7.970   0.951   3.883
13198TIP3    H239538   7.856   0.858   3.917
13199TIP3   OH239539   2.760   6.574   0.291
13199TIP3    H139540   2.852   6.546   0.284
13199TIP3    H239541   2.754   6.650   0.234
13200TIP3   OH239542   3.308   4.387   4.180
13200TIP3    H139543   3.289   4.350   4.094
13200TIP3    H239544   3.402   4.374   4.191
13201TIP3   OH239545   1.959   7.244   4.563
13201TIP3    H139546   2.042   7.280   4.595
13201TIP3    H239547   1.892   7.296   4.607
13202TIP3   OH239548   1.985   0.064   6.799
13202TIP3    H139549   2.020   0.013   6.726
13202TIP3    H239550   1.987   0.155   6.769
13203TIP3   OH239551   7.451   7.186   5.845
13203TIP3    H139552   7.438   7.092   5.831
13203TIP3    H239553   7.511   7.191   5.919
13204TIP3   OH239554   4.121   2.824   5.442
13204TIP3    H139555   4.097   2.892   5.379
13204TIP3    H239556   4.037   2.783   5.466
13205TIP3   OH239557   3.330   5.030   4.904
13205TIP3    H139558   3.404   4.974   4.882
13205TIP3    H239559   3.265   4.971   4.943
13206TIP3   OH239560   1.002   6.865   6.432
13206TIP3    H139561   0.966   6.863   6.344
13206TIP3    H239562   1.026   6.956   6.447
13207TIP3   OH239563   5.131   3.212   5.237
13207TIP3    H139564   5.213   3.261   5.246
13207TIP3    H239565   5.096   3.207   5.326
13208TIP3   OH239566   1.768   1.066   1.034
13208TIP3    H139567   1.864   1.062   1.033
13208TIP3    H239568   1.747   1.130   0.967
13209TIP3   OH239569   2.574   7.443   6.719
13209TIP3    H139570   2.538   7.358   6.693
13209TIP3    H239571   2.651   7.454   6.663
13210TIP3   OH239572   0.900   2.166   3.787
13210TIP3    H139573   0.979   2.113   3.792
13210TIP3    H239574   0.916   2.227   3.715
13211TIP3   OH239575   3.807   1.661   4.472
13211TIP3    H139576   3.729   1.638   4.423
13211TIP3    H239577   3.774   1.703   4.552
13212TIP3   OH239578   0.673   2.288   5.194
13212TIP3    H139579   0.675   2.383   5.183
13212TIP3    H239580   0.703   2.274   5.284
13213TIP3   OH239581   3.410   0.393   0.776
13213TIP3    H139582   3.389   0.456   0.845
13213TIP3    H239583   3.483   0.433   0.729
13214TIP3   OH239584   5.420   0.144   0.187
13214TIP3    H139585   5.410   0.122   0.094
13214TIP3    H239586   5.460   0.066   0.225
13215TIP3   OH239587   4.117   5.065   0.923
13215TIP3    H139588   4.025   5.086   0.905
13215TIP3    H239589   4.163   5.149   0.914
13216TIP3   OH239590   7.188   5.479   1.205
13216TIP3    H139591   7.245   5.503   1.132
13216TIP3    H239592   7.249   5.464   1.278
13217TIP3   OH239593   6.816   5.127   2.310
13217TIP3    H139594   6.844   5.208   2.351
13217TIP3    H239595   6.724   5.118   2.333
13218TIP3   OH239596   5.565   3.431   3.488
13218TIP3    H139597   5.605   3.350   3.456
13218TIP3    H239598   5.530   3.408   3.574
13219TIP3   OH239599   3.301   4.619   3.272
13219TIP3    H139600   3.282   4.535   3.313
13219TIP3    H239601   3.349   4.596   3.192
13220TIP3   OH239602   5.505   5.419   5.289
13220TIP3    H139603   5.442   5.352   5.313
13220TIP3    H239604   5.458   5.477   5.230
13221TIP3   OH239605   0.654   2.945   0.500
13221TIP3    H139606   0.561   2.943   0.522
13221TIP3    H239607   0.667   3.028   0.455
13222TIP3   OH239608   4.374   4.730   2.532
13222TIP3    H139609   4.424   4.653   2.561
13222TIP3    H239610   4.419   4.759   2.453
13223TIP3   OH239611   6.943   7.810   5.002
13223TIP3    H139612   6.987   7.787   4.920
13223TIP3    H239613   6.882   7.738   5.017
13224TIP3   OH239614   4.332   0.932   4.762
13224TIP3    H139615   4.375   0.864   4.814
13224TIP3    H239616   4.271   0.884   4.706
13225TIP3   OH239617   1.102   4.446   5.846
13225TIP3    H139618   1.064   4.533   5.833
13225TIP3    H239619   1.088   4.401   5.762
13226TIP3   OH239620   5.188   6.359   6.577
13226TIP3    H139621   5.131   6.362   6.654
13226TIP3    H239622   5.184   6.267   6.548
13227TIP3   OH239623   7.412   3.510   5.919
13227TIP3    H139624   7.452   3.425   5.937
13227TIP3    H239625   7.445   3.535   5.833
13228TIP3   OH239626   1.024   2.885   6.545
13228TIP3    H139627   1.015   2.821   6.475
13228TIP3    H239628   1.088   2.948   6.512
13229TIP3   OH239629   2.034   6.759   1.920
13229TIP3    H139630   2.048   6.703   1.997
13229TIP3    H239631   1.940   6.756   1.905
13230TIP3   OH239632   4.226   6.088   3.295
13230TIP3    H139633   4.234   6.118   3.386
13230TIP3    H239634   4.316   6.092   3.261
13231TIP3   OH239635   6.943   5.059   0.688
13231TIP3    H139636   6.960   5.086   0.778
13231TIP3    H239637   6.930   5.141   0.640
13232TIP3   OH239638   5.611   2.829   3.826
13232TIP3    H139639   5.638   2.792   3.910
13232TIP3    H239640   5.526   2.869   3.843
13233TIP3   OH239641   6.670   6.709   2.805
13233TIP3    H139642   6.653   6.624   2.765
13233TIP3    H239643   6.711   6.761   2.735
13234TIP3   OH239644   6.851   0.362   2.054
13234TIP3    H139645   6.863   0.374   1.960
13234TIP3    H239646   6.857   0.451   2.090
13235TIP3   OH239647   1.637   3.352   0.648
13235TIP3    H139648   1.725   3.336   0.613
13235TIP3    H239649   1.589   3.271   0.630
13236TIP3   OH239650   5.254   2.017   2.860
13236TIP3    H139651   5.214   2.034   2.945
13236TIP3    H239652   5.234   2.095   2.809
13237TIP3   OH239653   0.410   4.232   6.510
13237TIP3    H139654   0.395   4.318   6.549
13237TIP3    H239655   0.431   4.250   6.419
13238TIP3   OH239656   6.665   1.180   1.362
13238TIP3    H139657   6.687   1.092   1.391
13238TIP3    H239658   6.730   1.201   1.295
13239TIP3   OH239659   4.045   7.690   5.423
13239TIP3    H139660   3.979   7.695   5.354
13239TIP3    H239661   4.055   7.596   5.440
13240TIP3   OH239662   3.125   5.427   2.644
13240TIP3    H139663   3.133   5.492   2.713
13240TIP3    H239664   3.032   5.406   2.641
13241TIP3   OH239665   5.754   1.213   4.096
13241TIP3    H139666   5.784   1.132   4.137
13241TIP3    H239667   5.665   1.194   4.067
13242TIP3   OH239668   4.865   1.009   6.207
13242TIP3    H139669   4.941   1.029   6.261
13242TIP3    H239670   4.843   1.092   6.165
13243TIP3   OH239671   8.217   0.369   4.665
13243TIP3    H139672   8.175   0.314   4.600
13243TIP3    H239673   8.205   0.322   4.748
13244TIP3   OH239674   3.441   1.093   2.055
13244TIP3    H139675   3.422   1.176   2.009
13244TIP3    H239676   3.456   1.030   1.984
13245TIP3   OH239677   2.119   6.560   3.477
13245TIP3    H139678   2.197   6.560   3.422
13245TIP3    H239679   2.132   6.631   3.539
13246TIP3   OH239680   5.819   7.839   5.281
13246TIP3    H139681   5.865   7.755   5.281
13246TIP3    H239682   5.728   7.816   5.300
13247TIP3   OH239683   5.496   1.318   3.531
13247TIP3    H139684   5.469   1.263   3.604
13247TIP3    H239685   5.585   1.289   3.511
13248TIP3   OH239686   5.846   5.868   0.804
13248TIP3    H139687   5.856   5.811   0.880
13248TIP3    H239688   5.881   5.817   0.731
13249TIP3   OH239689   6.194   4.039   4.456
13249TIP3    H139690   6.100   4.020   4.458
13249TIP3    H239691   6.231   3.970   4.401
13250TIP3   OH239692   2.425   0.789   6.705
13250TIP3    H139693   2.402   0.820   6.792
13250TIP3    H239694   2.388   0.854   6.645
13251TIP3   OH239695   7.599   6.507   1.858
13251TIP3    H139696   7.616   6.430   1.912
13251TIP3    H239697   7.671   6.567   1.878
13252TIP3   OH239698   7.816   1.556   3.760
13252TIP3    H139699   7.756   1.503   3.709
13252TIP3    H239700   7.781   1.645   3.755
13253TIP3   OH239701   2.350   2.292   4.464
13253TIP3    H139702   2.425   2.332   4.419
13253TIP3    H239703   2.389   2.229   4.524
13254TIP3   OH239704   6.878   4.773   6.314
13254TIP3    H139705   6.871   4.709   6.243
13254TIP3    H239706   6.797   4.823   6.310
13255TIP3   OH239707   3.952   0.312   0.478
13255TIP3    H139708   4.035   0.358   0.460
13255TIP3    H239709   3.912   0.302   0.392
13256TIP3   OH239710   3.899   1.194   1.174
13256TIP3    H139711   3.920   1.286   1.156
13256TIP3    H239712   3.884   1.156   1.087
13257TIP3   OH239713   4.072   7.591   1.530
13257TIP3    H139714   4.091   7.502   1.560
13257TIP3    H239715   4.083   7.586   1.435
13258TIP3   OH239716   2.217   2.538   2.668
13258TIP3    H139717   2.271   2.501   2.738
13258TIP3    H239718   2.197   2.464   2.611
13259TIP3   OH239719   3.113   5.511   5.393
13259TIP3    H139720   3.169   5.588   5.393
13259TIP3    H239721   3.164   5.444   5.439
13260TIP3   OH239722   2.720   1.988   4.559
13260TIP3    H139723   2.742   2.037   4.480
13260TIP3    H239724   2.749   2.045   4.631
13261TIP3   OH239725   1.276   3.261   0.994
13261TIP3    H139726   1.201   3.284   0.939
13261TIP3    H239727   1.238   3.250   1.081
13262TIP3   OH239728   2.932   7.218   2.543
13262TIP3    H139729   3.027   7.223   2.553
13262TIP3    H239730   2.904   7.156   2.610
13263TIP3   OH239731   5.026   5.550   6.005
13263TIP3    H139732   4.972   5.473   6.020
13263TIP3    H239733   5.101   5.539   6.062
13264TIP3   OH239734   7.529   1.445   0.593
13264TIP3    H139735   7.501   1.395   0.516
13264TIP3    H239736   7.570   1.380   0.650
13265TIP3   OH239737   2.858   3.550   4.491
13265TIP3    H139738   2.927   3.489   4.516
13265TIP3    H239739   2.903   3.633   4.476
13266TIP3   OH239740   1.555   4.593   3.160
13266TIP3    H139741   1.599   4.513   3.131
13266TIP3    H239742   1.482   4.604   3.100
13267TIP3   OH239743   2.232   0.506   0.997
13267TIP3    H139744   2.138   0.524   0.992
13267TIP3    H239745   2.239   0.437   1.063
13268TIP3   OH239746   3.433   0.577   2.288
13268TIP3    H139747   3.496   0.516   2.326
13268TIP3    H239748   3.379   0.604   2.362
13269TIP3   OH239749   0.922   6.393   4.298
13269TIP3    H139750   0.881   6.401   4.384
13269TIP3    H239751   0.979   6.470   4.291
13270TIP3   OH239752   0.245   0.449   3.512
13270TIP3    H139753   0.320   0.404   3.553
13270TIP3    H239754   0.173   0.386   3.520
13271TIP3   OH239755   2.226   0.731   4.594
13271TIP3    H139756   2.242   0.792   4.667
13271TIP3    H239757   2.221   0.788   4.517
13272TIP3   OH239758   5.549   0.319   6.162
13272TIP3    H139759   5.510   0.317   6.074
13272TIP3    H239760   5.518   0.239   6.204
13273TIP3   OH239761   2.509   0.991   1.051
13273TIP3    H139762   2.546   1.022   0.969
13273TIP3    H239763   2.490   0.899   1.036
13274TIP3   OH239764   4.136   1.427   0.342
13274TIP3    H139765   4.079   1.432   0.265
13274TIP3    H239766   4.222   1.407   0.307
13275TIP3   OH239767   5.289   7.432   0.560
13275TIP3    H139768   5.350   7.506   0.572
13275TIP3    H239769   5.267   7.435   0.467
13276TIP3   OH239770   2.744   2.373   1.981
13276TIP3    H139771   2.653   2.402   1.993
13276TIP3    H239772   2.764   2.323   2.060
13277TIP3   OH239773   3.497   0.848   2.611
13277TIP3    H139774   3.407   0.817   2.614
13277TIP3    H239775   3.535   0.805   2.534
13278TIP3   OH239776   0.930   3.368   0.326
13278TIP3    H139777   1.000   3.322   0.281
13278TIP3    H239778   0.884   3.417   0.258
13279TIP3   OH239779   5.707   5.501   3.219
13279TIP3    H139780   5.632   5.487   3.276
13279TIP3    H239781   5.669   5.522   3.133
13280TIP3   OH239782   6.491   7.698   2.416
13280TIP3    H139783   6.427   7.769   2.407
13280TIP3    H239784   6.440   7.625   2.450
13281TIP3   OH239785   4.750   2.987   3.813
13281TIP3    H139786   4.683   2.929   3.778
13281TIP3    H239787   4.833   2.940   3.801
13282TIP3   OH239788   7.691   7.499   6.448
13282TIP3    H139789   7.621   7.517   6.385
13282TIP3    H239790   7.689   7.572   6.509
13283TIP3   OH239791   3.529   3.971   2.256
13283TIP3    H139792   3.531   4.044   2.194
13283TIP3    H239793   3.621   3.950   2.271
13284TIP3   OH239794   0.250   2.514   1.510
13284TIP3    H139795   0.233   2.438   1.455
13284TIP3    H239796   0.320   2.486   1.569
13285TIP3   OH239797   7.490   5.155   1.559
13285TIP3    H139798   7.432   5.083   1.535
13285TIP3    H239799   7.576   5.115   1.569
13286TIP3   OH239800   3.685   6.670   6.535
13286TIP3    H139801   3.640   6.629   6.461
13286TIP3    H239802   3.703   6.598   6.595
13287TIP3   OH239803   6.967   2.483   1.073
13287TIP3    H139804   7.034   2.525   1.020
13287TIP3    H239805   6.951   2.399   1.030
13288TIP3   OH239806   0.232   3.438   0.782
13288TIP3    H139807   0.228   3.466   0.873
13288TIP3    H239808   0.152   3.387   0.769
13289TIP3   OH239809   8.082   5.819   2.711
13289TIP3    H139810   8.036   5.899   2.683
13289TIP3    H239811   8.100   5.834   2.804
13290TIP3   OH239812   1.663   5.469   3.205
13290TIP3    H139813   1.638   5.536   3.269
13290TIP3    H239814   1.584   5.419   3.190
13291TIP3   OH239815   4.588   0.970   0.084
13291TIP3    H139816   4.576   0.907   0.155
13291TIP3    H239817   4.573   0.918   0.004
13292TIP3   OH239818   2.328   7.067   2.747
13292TIP3    H139819   2.301   7.010   2.820
13292TIP3    H239820   2.398   7.018   2.704
13293TIP3   OH239821   3.961   2.989   3.216
13293TIP3    H139822   4.008   3.071   3.207
13293TIP3    H239823   3.881   3.000   3.164
13294TIP3   OH239824   2.141   0.088   2.770
13294TIP3    H139825   2.088   0.112   2.847
13294TIP3    H239826   2.192   0.013   2.799
13295TIP3   OH239827   7.614   1.931   6.700
13295TIP3    H139828   7.538   1.874   6.691
13295TIP3    H239829   7.661   1.921   6.617
13296TIP3   OH239830   0.943   5.700   2.375
13296TIP3    H139831   1.023   5.707   2.428
13296TIP3    H239832   0.907   5.789   2.375
13297TIP3   OH239833   3.664   7.203   2.473
13297TIP3    H139834   3.711   7.273   2.427
13297TIP3    H239835   3.594   7.178   2.413
13298TIP3   OH239836   2.901   6.081   6.523
13298TIP3    H139837   2.916   6.031   6.443
13298TIP3    H239838   2.868   6.166   6.492
13299TIP3   OH239839   1.182   0.142   6.433
13299TIP3    H139840   1.121   0.178   6.497
13299TIP3    H239841   1.269   0.164   6.468
13300TIP3   OH239842   1.697   3.502   5.820
13300TIP3    H139843   1.750   3.582   5.818
13300TIP3    H239844   1.759   3.431   5.805
13301TIP3   OH239845   1.820   5.922   1.257
13301TIP3    H139846   1.860   5.950   1.175
13301TIP3    H239847   1.847   5.831   1.267
13302TIP3   OH239848   6.833   2.644   1.238
13302TIP3    H139849   6.885   2.587   1.181
13302TIP3    H239850   6.898   2.703   1.277
13303TIP3   OH239851   6.379   0.885   3.101
13303TIP3    H139852   6.286   0.906   3.093
13303TIP3    H239853   6.418   0.965   3.135
13304TIP3   OH239854   1.813   5.041   0.204
13304TIP3    H139855   1.726   5.076   0.184
13304TIP3    H239856   1.861   5.051   0.121
13305TIP3   OH239857   8.267   5.965   1.038
13305TIP3    H139858   8.345   6.013   1.066
13305TIP3    H239859   8.272   5.964   0.943
13306TIP3   OH239860   8.203   3.546   4.192
13306TIP3    H139861   8.153   3.493   4.131
13306TIP3    H239862   8.258   3.602   4.136
13307TIP3   OH239863   1.975   1.939   1.041
13307TIP3    H139864   1.904   1.915   0.980
13307TIP3    H239865   1.933   1.943   1.126
13308TIP3   OH239866   4.470   3.999   3.537
13308TIP3    H139867   4.506   4.082   3.569
13308TIP3    H239868   4.459   4.013   3.443
13309TIP3   OH239869   0.199   1.012   4.669
13309TIP3    H139870   0.120   0.966   4.641
13309TIP3    H239871   0.270   0.950   4.652
13310TIP3   OH239872   2.745   4.956   4.063
13310TIP3    H139873   2.760   5.029   4.124
13310TIP3    H239874   2.650   4.946   4.061
13311TIP3   OH239875   7.865   5.654   5.099
13311TIP3    H139876   7.914   5.630   5.178
13311TIP3    H239877   7.898   5.741   5.076
13312TIP3   OH239878   6.228   3.226   5.554
13312TIP3    H139879   6.292   3.261   5.492
13312TIP3    H239880   6.257   3.136   5.570
13313TIP3   OH239881   0.645   6.453   2.684
13313TIP3    H139882   0.613   6.379   2.631
13313TIP3    H239883   0.716   6.491   2.632
13314TIP3   OH239884   2.378   2.105   2.519
13314TIP3    H139885   2.295   2.141   2.487
13314TIP3    H239886   2.435   2.105   2.442
13315TIP3   OH239887   7.482   7.508   3.617
13315TIP3    H139888   7.395   7.498   3.656
13315TIP3    H239889   7.538   7.454   3.671
13316TIP3   OH239890   3.398   4.025   0.583
13316TIP3    H139891   3.411   4.116   0.556
13316TIP3    H239892   3.305   4.008   0.564
13317TIP3   OH239893   5.746   1.733   4.002
13317TIP3    H139894   5.743   1.816   3.954
13317TIP3    H239895   5.659   1.696   3.991
13318TIP3   OH239896   7.279   2.049   1.623
13318TIP3    H139897   7.331   2.125   1.596
13318TIP3    H239898   7.298   2.039   1.716
13319TIP3   OH239899   1.991   7.347   1.183
13319TIP3    H139900   1.909   7.396   1.179
13319TIP3    H239901   1.968   7.260   1.151
13320TIP3   OH239902   6.003   5.383   4.889
13320TIP3    H139903   6.069   5.447   4.865
13320TIP3    H239904   5.959   5.420   4.966
13321TIP3   OH239905   5.280   4.471   3.464
13321TIP3    H139906   5.325   4.480   3.548
13321TIP3    H239907   5.349   4.454   3.401
13322TIP3   OH239908  -0.020   7.750   3.130
13322TIP3    H139909  -0.084   7.775   3.197
13322TIP3    H239910   0.037   7.687   3.174
13323TIP3   OH239911   5.795   6.136   2.364
13323TIP3    H139912   5.842   6.218   2.351
13323TIP3    H239913   5.724   6.138   2.299
13324TIP3   OH239914   5.134   7.693   5.663
13324TIP3    H139915   5.134   7.598   5.652
13324TIP3    H239916   5.112   7.707   5.755
13325TIP3   OH239917   3.215   2.193   2.481
13325TIP3    H139918   3.139   2.246   2.457
13325TIP3    H239919   3.290   2.248   2.461
13326TIP3   OH239920   0.129   4.935   3.556
13326TIP3    H139921   0.072   4.949   3.481
13326TIP3    H239922   0.151   5.023   3.586
13327TIP3   OH239923   4.784   0.917   2.587
13327TIP3    H139924   4.799   0.967   2.506
13327TIP3    H239925   4.847   0.954   2.649
13328TIP3   OH239926   0.773   1.526   4.695
13328TIP3    H139927   0.787   1.538   4.789
13328TIP3    H239928   0.854   1.486   4.663
13329TIP3   OH239929   1.357   0.974   5.820
13329TIP3    H139930   1.402   1.043   5.869
13329TIP3    H239931   1.411   0.896   5.832
13330TIP3   OH239932   3.897   1.061   5.749
13330TIP3    H139933   3.944   0.979   5.737
13330TIP3    H239934   3.932   1.097   5.831
13331TIP3   OH239935   2.470   6.077   0.225
13331TIP3    H139936   2.531   6.097   0.153
13331TIP3    H239937   2.398   6.030   0.183
13332TIP3   OH239938   8.120   7.780   3.332
13332TIP3    H139939   8.178   7.832   3.387
13332TIP3    H239940   8.040   7.770   3.383
13333TIP3   OH239941   3.130   2.911   3.381
13333TIP3    H139942   3.176   2.930   3.299
13333TIP3    H239943   3.152   2.983   3.439
13334TIP3   OH239944   0.818   1.041   5.519
13334TIP3    H139945   0.778   1.070   5.602
13334TIP3    H239946   0.849   1.121   5.478
13335TIP3   OH239947   0.328   4.377   1.186
13335TIP3    H139948   0.368   4.342   1.106
13335TIP3    H239949   0.285   4.457   1.158
13336TIP3   OH239950   5.044   5.425   6.444
13336TIP3    H139951   4.981   5.469   6.501
13336TIP3    H239952   4.990   5.379   6.380
13337TIP3   OH239953   7.788   4.201   4.567
13337TIP3    H139954   7.800   4.186   4.660
13337TIP3    H239955   7.859   4.152   4.525
13338TIP3   OH239956   2.156   2.106   0.884
13338TIP3    H139957   2.120   2.193   0.901
13338TIP3    H239958   2.080   2.052   0.866
13339TIP3   OH239959   5.210   7.776   5.102
13339TIP3    H139960   5.282   7.839   5.100
13339TIP3    H239961   5.196   7.753   5.010
13340TIP3   OH239962   7.523   4.981   4.588
13340TIP3    H139963   7.567   4.937   4.661
13340TIP3    H239964   7.431   4.985   4.615
13341TIP3   OH239965   5.831   7.028   0.438
13341TIP3    H139966   5.811   7.120   0.422
13341TIP3    H239967   5.924   7.026   0.460
13342TIP3   OH239968   3.273   6.488   5.634
13342TIP3    H139969   3.180   6.465   5.631
13342TIP3    H239970   3.293   6.494   5.728
13343TIP3   OH239971   1.815   3.953   5.507
13343TIP3    H139972   1.767   4.035   5.489
13343TIP3    H239973   1.748   3.886   5.507
13344TIP3   OH239974   6.102   2.660   0.513
13344TIP3    H139975   6.124   2.744   0.473
13344TIP3    H239976   6.159   2.654   0.589
13345TIP3   OH239977   1.282   5.731   5.687
13345TIP3    H139978   1.300   5.809   5.635
13345TIP3    H239979   1.306   5.756   5.776
13346TIP3   OH239980   0.787   5.585   0.553
13346TIP3    H139981   0.761   5.653   0.491
13346TIP3    H239982   0.815   5.633   0.631
13347TIP3   OH239983   1.690   2.881   4.293
13347TIP3    H139984   1.604   2.880   4.253
13347TIP3    H239985   1.728   2.795   4.273
13348TIP3   OH239986   6.915   0.891   0.308
13348TIP3    H139987   6.966   0.851   0.237
13348TIP3    H239988   6.971   0.885   0.385
13349TIP3   OH239989   7.585   6.528   0.330
13349TIP3    H139990   7.678   6.535   0.352
13349TIP3    H239991   7.584   6.501   0.238
13350TIP3   OH239992   4.909   2.232   5.589
13350TIP3    H139993   4.835   2.279   5.629
13350TIP3    H239994   4.986   2.269   5.630
13351TIP3   OH239995   3.685   2.013   1.729
13351TIP3    H139996   3.682   1.920   1.752
13351TIP3    H239997   3.593   2.040   1.728
13352TIP3   OH239998   5.296   1.263   6.465
13352TIP3    H139999   5.238   1.276   6.540
13352TIP3    H240000   5.321   1.171   6.471
13353TIP3   OH240001   3.434   7.644   1.780
13353TIP3    H140002   3.486   7.627   1.701
13353TIP3    H240003   3.495   7.629   1.852
13354TIP3   OH240004   0.680   1.074   0.615
13354TIP3    H140005   0.651   1.159   0.583
13354TIP3    H240006   0.733   1.094   0.692
13355TIP3   OH240007   6.671   3.141   1.770
13355TIP3    H140008   6.694   3.140   1.677
13355TIP3    H240009   6.582   3.174   1.772
13356TIP3   OH240010   1.428   7.232   2.638
13356TIP3    H140011   1.366   7.277   2.695
13356TIP3    H240012   1.383   7.151   2.614
13357TIP3   OH240013   3.796   5.297   6.620
13357TIP3    H140014   3.778   5.203   6.627
13357TIP3    H240015   3.739   5.337   6.685
13358TIP3   OH240016   7.304   6.805   6.554
13358TIP3    H140017   7.216   6.843   6.547
13358TIP3    H240018   7.333   6.828   6.642
13359TIP3   OH240019   2.573   3.290   5.205
13359TIP3    H140020   2.525   3.218   5.246
13359TIP3    H240021   2.662   3.282   5.238
13360TIP3   OH240022   0.502   6.013   6.763
13360TIP3    H140023   0.458   5.984   6.843
13360TIP3    H240024   0.441   6.075   6.723
13361TIP3   OH240025   0.830   7.553   0.306
13361TIP3    H140026   0.828   7.642   0.273
13361TIP3    H240027   0.853   7.562   0.399
13362TIP3   OH240028   6.385   7.399   1.196
13362TIP3    H140029   6.350   7.320   1.237
13362TIP3    H240030   6.445   7.435   1.262
13363TIP3   OH240031   3.915   3.133   6.825
13363TIP3    H140032   3.855   3.139   6.750
13363TIP3    H240033   3.987   3.078   6.794
13364TIP3   OH240034   0.817   5.294   4.227
13364TIP3    H140035   0.871   5.230   4.182
13364TIP3    H240036   0.852   5.379   4.200
13365TIP3   OH240037   7.738   3.560   5.941
13365TIP3    H140038   7.690   3.562   6.024
13365TIP3    H240039   7.670   3.561   5.874
13366TIP3   OH240040   7.509   0.160   2.801
13366TIP3    H140041   7.571   0.202   2.861
13366TIP3    H240042   7.563   0.099   2.751
13367TIP3   OH240043   0.245   6.170   1.957
13367TIP3    H140044   0.327   6.218   1.959
13367TIP3    H240045   0.194   6.208   2.028
13368TIP3   OH240046   5.500   0.342   5.895
13368TIP3    H140047   5.493   0.431   5.860
13368TIP3    H240048   5.478   0.286   5.820
13369TIP3   OH240049   1.435   1.519   5.181
13369TIP3    H140050   1.527   1.494   5.179
13369TIP3    H240051   1.435   1.611   5.154
13370TIP3   OH240052   2.517   2.665   6.384
13370TIP3    H140053   2.605   2.650   6.348
13370TIP3    H240054   2.458   2.635   6.315
13371TIP3   OH240055   8.104   6.743   0.611
13371TIP3    H140056   8.169   6.777   0.549
13371TIP3    H240057   8.093   6.813   0.675
13372TIP3   OH240058   3.202   5.890   4.403
13372TIP3    H140059   3.154   5.821   4.357
13372TIP3    H240060   3.135   5.939   4.450
13373TIP3   OH240061   2.471   4.879   0.213
13373TIP3    H140062   2.447   4.814   0.280
13373TIP3    H240063   2.398   4.940   0.212
13374TIP3   OH240064   3.492  -0.020   0.283
13374TIP3    H140065   3.431  -0.004   0.355
13374TIP3    H240066   3.570   0.030   0.306
13375TIP3   OH240067   3.484   6.982   0.798
13375TIP3    H140068   3.389   6.973   0.803
13375TIP3    H240069   3.512   6.916   0.735
13376TIP3   OH240070   6.843   2.508   0.309
13376TIP3    H140071   6.776   2.494   0.242
13376TIP3    H240072   6.806   2.575   0.367
13377TIP3   OH240073   6.122   5.007   6.572
13377TIP3    H140074   6.209   5.004   6.533
13377TIP3    H240075   6.138   5.007   6.666
13378TIP3   OH240076   0.327   6.278   5.983
13378TIP3    H140077   0.376   6.313   5.909
13378TIP3    H240078   0.313   6.354   6.040
13379TIP3   OH240079   3.168   2.642   1.882
13379TIP3    H140080   3.224   2.565   1.874
13379TIP3    H240081   3.085   2.608   1.916
13380TIP3   OH240082   0.898   5.822   4.331
13380TIP3    H140083   0.949   5.894   4.294
13380TIP3    H240084   0.873   5.769   4.255
13381TIP3   OH240085   4.186   6.615   0.292
13381TIP3    H140086   4.195   6.658   0.377
13381TIP3    H240087   4.161   6.685   0.232
13382TIP3   OH240088   7.450   6.148   0.245
13382TIP3    H140089   7.428   6.055   0.251
13382TIP3    H240090   7.404   6.188   0.319
13383TIP3   OH240091   4.103   7.580   2.968
13383TIP3    H140092   4.086   7.645   2.899
13383TIP3    H240093   4.046   7.606   3.040
13384TIP3   OH240094   1.759   2.964   3.056
13384TIP3    H140095   1.747   3.055   3.028
13384TIP3    H240096   1.698   2.952   3.129
13385TIP3   OH240097   0.119   2.999   5.115
13385TIP3    H140098   0.206   2.967   5.092
13385TIP3    H240099   0.089   3.044   5.036
13386TIP3   OH240100   2.330   3.135   2.971
13386TIP3    H140101   2.413   3.148   2.926
13386TIP3    H240102   2.267   3.187   2.920
13387TIP3   OH240103   1.468   5.321   6.621
13387TIP3    H140104   1.401   5.269   6.664
13387TIP3    H240105   1.432   5.410   6.619
13388TIP3   OH240106   4.602   2.199   0.515
13388TIP3    H140107   4.561   2.118   0.547
13388TIP3    H240108   4.682   2.208   0.568
13389TIP3   OH240109   2.539   7.600   1.730
13389TIP3    H140110   2.582   7.556   1.804
13389TIP3    H240111   2.611   7.628   1.674
13390TIP3   OH240112   4.876   5.209   4.786
13390TIP3    H140113   4.815   5.135   4.784
13390TIP3    H240114   4.921   5.205   4.701
13391TIP3   OH240115   4.389   7.118   5.108
13391TIP3    H140116   4.431   7.051   5.162
13391TIP3    H240117   4.426   7.201   5.138
13392TIP3   OH240118   1.595   5.391   5.362
13392TIP3    H140119   1.517   5.446   5.361
13392TIP3    H240120   1.588   5.341   5.444
13393TIP3   OH240121   7.803   0.530   6.121
13393TIP3    H140122   7.782   0.623   6.111
13393TIP3    H240123   7.737   0.485   6.068
13394TIP3   OH240124   7.113   4.164   4.702
13394TIP3    H140125   7.020   4.149   4.716
13394TIP3    H240126   7.120   4.187   4.609
13395TIP3   OH240127   2.775   3.326   0.637
13395TIP3    H140128   2.697   3.287   0.677
13395TIP3    H240129   2.809   3.258   0.580
13396TIP3   OH240130   0.998   4.298   0.557
13396TIP3    H140131   0.978   4.208   0.533
13396TIP3    H240132   1.074   4.292   0.615
13397TIP3   OH240133   3.491   1.382   5.114
13397TIP3    H140134   3.450   1.323   5.051
13397TIP3    H240135   3.576   1.341   5.132
13398TIP3   OH240136   5.414   7.462   4.541
13398TIP3    H140137   5.329   7.420   4.532
13398TIP3    H240138   5.445   7.435   4.628
13399TIP3   OH240139   5.778   5.053   0.148
13399TIP3    H140140   5.724   4.973   0.149
13399TIP3    H240141   5.779   5.081   0.240
13400TIP3   OH240142   0.234   2.435   2.677
13400TIP3    H140143   0.276   2.362   2.631
13400TIP3    H240144   0.148   2.400   2.703
13401TIP3   OH240145   6.749   1.662   1.242
13401TIP3    H140146   6.751   1.709   1.325
13401TIP3    H240147   6.740   1.570   1.266
13402TIP3   OH240148   4.805   0.584   3.432
13402TIP3    H140149   4.728   0.642   3.430
13402TIP3    H240150   4.879   0.643   3.446
13403TIP3   OH240151   3.619   2.375   4.513
13403TIP3    H140152   3.632   2.371   4.607
13403TIP3    H240153   3.620   2.284   4.484
13404TIP3   OH240154   3.286   1.934   2.436
13404TIP3    H140155   3.263   2.022   2.468
13404TIP3    H240156   3.231   1.921   2.359
13405TIP3   OH240157   4.011   2.030   0.295
13405TIP3    H140158   4.088   1.994   0.252
13405TIP3    H240159   3.988   2.107   0.243
13406TIP3   OH240160   7.919   4.613   2.348
13406TIP3    H140161   7.957   4.528   2.371
13406TIP3    H240162   7.845   4.592   2.291
13407TIP3   OH240163   3.917   5.377   0.282
13407TIP3    H140164   3.865   5.443   0.235
13407TIP3    H240165   3.881   5.378   0.371
13408TIP3   OH240166   4.788   6.735   2.163
13408TIP3    H140167   4.865   6.706   2.212
13408TIP3    H240168   4.714   6.695   2.209
13409TIP3   OH240169   6.971   4.645   1.454
13409TIP3    H140170   6.904   4.640   1.522
13409TIP3    H240171   6.955   4.728   1.410
13410TIP3   OH240172   0.907   7.635   2.695
13410TIP3    H140173   0.936   7.566   2.754
13410TIP3    H240174   0.826   7.602   2.656
13411TIP3   OH240175   7.319   6.237   1.527
13411TIP3    H140176   7.276   6.306   1.477
13411TIP3    H240177   7.318   6.161   1.469
13412TIP3   OH240178   4.173   1.716   1.235
13412TIP3    H140179   4.217   1.645   1.281
13412TIP3    H240180   4.148   1.778   1.304
13413TIP3   OH240181   1.968   1.788   4.068
13413TIP3    H140182   1.888   1.815   4.112
13413TIP3    H240183   2.007   1.724   4.127
13414TIP3   OH240184   6.152   4.012   4.805
13414TIP3    H140185   6.227   4.067   4.827
13414TIP3    H240186   6.187   3.922   4.806
13415TIP3   OH240187   4.906   6.758   0.702
13415TIP3    H140188   4.892   6.819   0.629
13415TIP3    H240189   4.930   6.814   0.776
13416TIP3   OH240190   5.708   3.938   1.597
13416TIP3    H140191   5.772   3.997   1.638
13416TIP3    H240192   5.760   3.865   1.565
13417TIP3   OH240193   7.145   4.001   2.649
13417TIP3    H140194   7.203   4.076   2.664
13417TIP3    H240195   7.058   4.040   2.637
13418TIP3   OH240196   1.335   1.235   3.241
13418TIP3    H140197   1.328   1.285   3.323
13418TIP3    H240198   1.425   1.202   3.241
13419TIP3   OH240199   1.218   0.840   3.857
13419TIP3    H140200   1.217   0.757   3.810
13419TIP3    H240201   1.136   0.883   3.832
13420TIP3   OH240202   0.220   4.485   2.113
13420TIP3    H140203   0.196   4.476   2.205
13420TIP3    H240204   0.191   4.573   2.090
13421TIP3   OH240205   0.001   2.316   6.138
13421TIP3    H140206  -0.030   2.272   6.216
13421TIP3    H240207   0.050   2.392   6.171
13422TIP3   OH240208   0.069   2.257   2.405
13422TIP3    H140209   0.060   2.179   2.460
13422TIP3    H240210   0.023   2.325   2.454
13423TIP3   OH240211   6.073   0.928   5.965
13423TIP3    H140212   6.029   0.880   6.035
13423TIP3    H240213   6.009   0.932   5.895
13424TIP3   OH240214   1.586   4.453   3.411
13424TIP3    H140215   1.584   4.503   3.330
13424TIP3    H240216   1.645   4.380   3.393
13425TIP3   OH240217   0.404   2.992   6.733
13425TIP3    H140218   0.431   2.950   6.815
13425TIP3    H240219   0.358   3.071   6.761
13426TIP3   OH240220   0.082   7.572   4.266
13426TIP3    H140221   0.068   7.657   4.223
13426TIP3    H240222   0.168   7.543   4.234
13427TIP3   OH240223   5.085   0.529   1.016
13427TIP3    H140224   5.143   0.602   0.993
13427TIP3    H240225   4.997   0.562   1.000
13428TIP3   OH240226   2.400   2.060   5.658
13428TIP3    H140227   2.347   1.981   5.653
13428TIP3    H240228   2.456   2.047   5.734
13429TIP3   OH240229   0.081   7.140   0.753
13429TIP3    H140230   0.125   7.056   0.763
13429TIP3    H240231  -0.006   7.118   0.718
13430TIP3   OH240232   1.994   3.259   5.338
13430TIP3    H140233   2.057   3.273   5.268
13430TIP3    H240234   1.971   3.166   5.332
13431TIP3   OH240235   0.629   3.920   5.000
13431TIP3    H140236   0.704   3.870   5.033
13431TIP3    H240237   0.581   3.946   5.078
13432TIP3   OH240238   8.249   0.847   1.112
13432TIP3    H140239   8.161   0.876   1.136
13432TIP3    H240240   8.248   0.752   1.126
13433TIP3   OH240241   6.173   4.835   3.549
13433TIP3    H140242   6.195   4.834   3.642
13433TIP3    H240243   6.255   4.812   3.505
13434TIP3   OH240244   2.316   7.792   2.537
13434TIP3    H140245   2.358   7.715   2.497
13434TIP3    H240246   2.376   7.818   2.607
13435TIP3   OH240247   3.407   0.000   6.285
13435TIP3    H140248   3.365  -0.021   6.202
13435TIP3    H240249   3.419   0.095   6.283
13436TIP3   OH240250   3.959   7.421   1.233
13436TIP3    H140251   4.047   7.425   1.270
13436TIP3    H240252   3.969   7.452   1.143
13437TIP3   OH240253   4.001   5.792   5.728
13437TIP3    H140254   4.055   5.714   5.712
13437TIP3    H240255   4.007   5.806   5.823
13438TIP3   OH240256   3.273   3.790   1.404
13438TIP3    H140257   3.289   3.790   1.310
13438TIP3    H240258   3.350   3.831   1.442
13439TIP3   OH240259   3.306   4.378   4.457
13439TIP3    H140260   3.379   4.439   4.443
13439TIP3    H240261   3.265   4.370   4.371
13440TIP3   OH240262   5.934   6.563   1.456
13440TIP3    H140263   6.017   6.517   1.443
13440TIP3    H240264   5.872   6.519   1.396
13441TIP3   OH240265   2.133   4.466   4.255
13441TIP3    H140266   2.201   4.481   4.321
13441TIP3    H240267   2.051   4.486   4.302
13442TIP3   OH240268   4.605   2.808   2.041
13442TIP3    H140269   4.550   2.871   2.087
13442TIP3    H240270   4.643   2.858   1.968
13443TIP3   OH240271   1.676   3.142   2.347
13443TIP3    H140272   1.768   3.164   2.333
13443TIP3    H240273   1.668   3.130   2.442
13444TIP3   OH240274   3.033   7.654   1.736
13444TIP3    H140275   2.963   7.619   1.681
13444TIP3    H240276   2.999   7.650   1.825
13445TIP3   OH240277   3.428   0.804   3.986
13445TIP3    H140278   3.405   0.786   4.078
13445TIP3    H240279   3.487   0.879   3.991
13446TIP3   OH240280   5.793   7.615   2.252
13446TIP3    H140281   5.787   7.679   2.323
13446TIP3    H240282   5.884   7.583   2.256
13447TIP3   OH240283   5.499   4.920   1.551
13447TIP3    H140284   5.451   4.999   1.528
13447TIP3    H240285   5.577   4.951   1.598
13448TIP3   OH240286   5.090   4.837   6.461
13448TIP3    H140287   5.111   4.878   6.545
13448TIP3    H240288   5.015   4.781   6.480
13449TIP3   OH240289   5.918   4.036   3.572
13449TIP3    H140290   5.833   3.993   3.575
13449TIP3    H240291   5.925   4.070   3.483
13450TIP3   OH240292   0.929   4.599   1.753
13450TIP3    H140293   0.853   4.656   1.743
13450TIP3    H240294   0.988   4.624   1.683
13451TIP3   OH240295   6.696   1.948   1.515
13451TIP3    H140296   6.653   2.018   1.564
13451TIP3    H240297   6.789   1.970   1.520
13452TIP3   OH240298   1.940   3.476   1.550
13452TIP3    H140299   1.939   3.454   1.457
13452TIP3    H240300   2.020   3.436   1.583
13453TIP3   OH240301   5.969   1.259   1.037
13453TIP3    H140302   6.057   1.239   1.007
13453TIP3    H240303   5.951   1.193   1.104
13454TIP3   OH240304   3.216   0.461   6.541
13454TIP3    H140305   3.299   0.499   6.511
13454TIP3    H240306   3.151   0.493   6.479
13455TIP3   OH240307   1.127   2.394   5.038
13455TIP3    H140308   1.066   2.360   4.974
13455TIP3    H240309   1.175   2.317   5.070
13456TIP3   OH240310   1.014   6.059   0.089
13456TIP3    H140311   0.963   6.135   0.117
13456TIP3    H240312   1.099   6.070   0.132
13457TIP3   OH240313   3.128   5.740   2.348
13457TIP3    H140314   3.134   5.833   2.370
13457TIP3    H240315   3.078   5.701   2.420
13458TIP3   OH240316   4.596   2.488   3.556
13458TIP3    H140317   4.566   2.404   3.521
13458TIP3    H240318   4.668   2.465   3.615
13459TIP3   OH240319   7.261   2.952   4.145
13459TIP3    H140320   7.275   3.036   4.102
13459TIP3    H240321   7.188   2.967   4.205
13460TIP3   OH240322   2.793   0.415   0.379
13460TIP3    H140323   2.802   0.357   0.304
13460TIP3    H240324   2.811   0.502   0.345
13461TIP3   OH240325   0.002   3.761   3.749
13461TIP3    H140326  -0.042   3.714   3.678
13461TIP3    H240327   0.094   3.735   3.741
13462TIP3   OH240328   7.534   4.219   2.532
13462TIP3    H140329   7.534   4.311   2.504
13462TIP3    H240330   7.617   4.184   2.499
13463TIP3   OH240331   2.992   5.180   5.704
13463TIP3    H140332   2.929   5.210   5.639
13463TIP3    H240333   2.975   5.087   5.714
13464TIP3   OH240334   6.989   1.914   2.438
13464TIP3    H140335   7.071   1.949   2.404
13464TIP3    H240336   6.929   1.989   2.438
13465TIP3   OH240337   0.022   1.561   6.020
13465TIP3    H140338   0.020   1.647   6.064
13465TIP3    H240339   0.004   1.498   6.090
13466TIP3   OH240340   0.538   7.235   2.943
13466TIP3    H140341   0.628   7.240   2.911
13466TIP3    H240342   0.486   7.216   2.865
13467TIP3   OH240343   1.021   0.763   2.113
13467TIP3    H140344   0.983   0.710   2.184
13467TIP3    H240345   1.013   0.707   2.035
13468TIP3   OH240346   0.811   6.454   1.953
13468TIP3    H140347   0.765   6.423   2.031
13468TIP3    H240348   0.894   6.406   1.952
13469TIP3   OH240349   8.185   2.138   2.254
13469TIP3    H140350   8.246   2.175   2.318
13469TIP3    H240351   8.137   2.071   2.302
13470TIP3   OH240352   4.121   6.801   0.001
13470TIP3    H140353   4.206   6.759   0.012
13470TIP3    H240354   4.118   6.867   0.071
13471TIP3   OH240355   5.769   1.124   5.122
13471TIP3    H140356   5.781   1.032   5.147
13471TIP3    H240357   5.853   1.149   5.084
13472TIP3   OH240358   7.445   6.847   6.348
13472TIP3    H140359   7.374   6.837   6.412
13472TIP3    H240360   7.402   6.889   6.273
13473TIP3   OH240361   2.410   2.710   2.596
13473TIP3    H140362   2.335   2.660   2.626
13473TIP3    H240363   2.375   2.769   2.529
13474TIP3   OH240364   1.804   7.717   6.402
13474TIP3    H140365   1.881   7.738   6.455
13474TIP3    H240366   1.731   7.725   6.464
13475TIP3   OH240367   6.362   4.795   1.449
13475TIP3    H140368   6.288   4.760   1.497
13475TIP3    H240369   6.416   4.838   1.516
13476TIP3   OH240370   0.568   1.673   3.806
13476TIP3    H140371   0.574   1.604   3.739
13476TIP3    H240372   0.641   1.732   3.786
13477TIP3   OH240373   6.025   4.840   5.179
13477TIP3    H140374   5.933   4.812   5.176
13477TIP3    H240375   6.074   4.760   5.199
13478TIP3   OH240376   3.923   4.130   6.736
13478TIP3    H140377   3.926   4.143   6.831
13478TIP3    H240378   3.847   4.074   6.722
13479TIP3   OH240379   5.214   0.124   5.799
13479TIP3    H140380   5.153   0.085   5.737
13479TIP3    H240381   5.229   0.056   5.864
13480TIP3   OH240382   7.307   2.670   5.917
13480TIP3    H140383   7.398   2.649   5.896
13480TIP3    H240384   7.273   2.592   5.960
13481TIP3   OH240385   6.274   6.244   1.728
13481TIP3    H140386   6.223   6.176   1.685
13481TIP3    H240387   6.208   6.301   1.768
13482TIP3   OH240388   1.729   2.296   6.554
13482TIP3    H140389   1.742   2.319   6.646
13482TIP3    H240390   1.767   2.209   6.545
13483TIP3   OH240391   0.544   4.536   0.669
13483TIP3    H140392   0.590   4.478   0.730
13483TIP3    H240393   0.454   4.539   0.703
13484TIP3   OH240394   5.738   6.330   0.803
13484TIP3    H140395   5.802   6.380   0.753
13484TIP3    H240396   5.656   6.344   0.757
13485TIP3   OH240397   7.779   2.778   1.222
13485TIP3    H140398   7.788   2.702   1.280
13485TIP3    H240399   7.868   2.809   1.209
13486TIP3   OH240400   3.276   6.626   0.325
13486TIP3    H140401   3.371   6.621   0.333
13486TIP3    H240402   3.254   6.716   0.347
13487TIP3   OH240403   6.915   5.153   3.716
13487TIP3    H140404   6.986   5.116   3.769
13487TIP3    H240405   6.835   5.126   3.761
13488TIP3   OH240406   7.541   5.986   0.518
13488TIP3    H140407   7.523   5.892   0.512
13488TIP3    H240408   7.583   6.007   0.434
13489TIP3   OH240409   3.804   7.640   5.242
13489TIP3    H140410   3.764   7.575   5.184
13489TIP3    H240411   3.762   7.723   5.217
13490TIP3   OH240412   7.798   7.798   1.558
13490TIP3    H140413   7.864   7.760   1.616
13490TIP3    H240414   7.717   7.797   1.610
13491TIP3   OH240415   3.246   4.194   2.852
13491TIP3    H140416   3.159   4.175   2.816
13491TIP3    H240417   3.298   4.117   2.829
13492TIP3   OH240418   1.318   6.506   0.288
13492TIP3    H140419   1.338   6.475   0.377
13492TIP3    H240420   1.392   6.476   0.236
13493TIP3   OH240421   2.216   0.647   3.954
13493TIP3    H140422   2.232   0.644   4.048
13493TIP3    H240423   2.148   0.581   3.939
13494TIP3   OH240424   4.061   4.828   5.938
13494TIP3    H140425   4.147   4.841   5.977
13494TIP3    H240426   4.021   4.915   5.939
13495TIP3   OH240427   6.351   7.238   5.077
13495TIP3    H140428   6.265   7.207   5.106
13495TIP3    H240429   6.373   7.308   5.138
13496TIP3   OH240430   4.916   3.134   0.231
13496TIP3    H140431   4.918   3.203   0.297
13496TIP3    H240432   4.826   3.134   0.198
13497TIP3   OH240433   4.422   3.586   1.865
13497TIP3    H140434   4.450   3.564   1.954
13497TIP3    H240435   4.504   3.598   1.817
13498TIP3   OH240436   1.289   0.740   3.266
13498TIP3    H140437   1.257   0.650   3.258
13498TIP3    H240438   1.233   0.791   3.208
13499TIP3   OH240439   6.880   4.370   3.264
13499TIP3    H140440   6.850   4.460   3.283
13499TIP3    H240441   6.901   4.334   3.350
13500TIP3   OH240442   1.493   6.939   1.701
13500TIP3    H140443   1.587   6.931   1.713
13500TIP3    H240444   1.473   7.031   1.722
13501TIP3   OH240445   3.885   3.335   3.529
13501TIP3    H140446   3.856   3.244   3.521
13501TIP3    H240447   3.893   3.366   3.439
13502TIP3   OH240448   6.503   0.760   2.804
13502TIP3    H140449   6.412   0.752   2.830
13502TIP3    H240450   6.536   0.670   2.800
13503TIP3   OH240451   0.989   1.813   1.396
13503TIP3    H140452   1.056   1.749   1.418
13503TIP3    H240453   1.029   1.866   1.327
13504TIP3   OH240454   2.454   5.077   2.032
13504TIP3    H140455   2.468   5.002   1.974
13504TIP3    H240456   2.361   5.097   2.024
13505TIP3   OH240457   6.042   5.510   3.984
13505TIP3    H140458   6.010   5.599   4.002
13505TIP3    H240459   6.033   5.464   4.068
13506TIP3   OH240460   2.921   5.748   4.251
13506TIP3    H140461   2.974   5.726   4.175
13506TIP3    H240462   2.908   5.665   4.296
13507TIP3   OH240463   0.394   0.153   0.526
13507TIP3    H140464   0.480   0.140   0.486
13507TIP3    H240465   0.333   0.152   0.452
13508TIP3   OH240466   1.436   1.805   3.890
13508TIP3    H140467   1.406   1.755   3.966
13508TIP3    H240468   1.356   1.821   3.839
13509TIP3   OH240469   8.205   7.188   5.004
13509TIP3    H140470   8.241   7.109   5.044
13509TIP3    H240471   8.207   7.170   4.910
13510TIP3   OH240472   6.720   6.348   4.614
13510TIP3    H140473   6.689   6.270   4.660
13510TIP3    H240474   6.640   6.392   4.585
13511TIP3   OH240475   4.220   6.582   2.331
13511TIP3    H140476   4.200   6.534   2.411
13511TIP3    H240477   4.138   6.580   2.281
13512TIP3   OH240478   3.976   0.838   6.360
13512TIP3    H140479   3.997   0.918   6.409
13512TIP3    H240480   3.881   0.836   6.358
13513TIP3   OH240481   4.488   2.831   2.605
13513TIP3    H140482   4.472   2.737   2.600
13513TIP3    H240483   4.583   2.839   2.618
13514TIP3   OH240484   3.513   7.666   2.281
13514TIP3    H140485   3.466   7.607   2.340
13514TIP3    H240486   3.483   7.754   2.306
13515TIP3   OH240487   8.201   6.143   4.971
13515TIP3    H140488   8.124   6.199   4.983
13515TIP3    H240489   8.219   6.109   5.059
13516TIP3   OH240490   8.012   6.758   4.441
13516TIP3    H140491   7.966   6.687   4.486
13516TIP3    H240492   7.993   6.744   4.348
13517TIP3   OH240493   3.339   1.138   4.940
13517TIP3    H140494   3.369   1.075   5.006
13517TIP3    H240495   3.404   1.131   4.870
13518TIP3   OH240496   2.431   6.423   3.097
13518TIP3    H140497   2.526   6.414   3.109
13518TIP3    H240498   2.398   6.334   3.099
13519TIP3   OH240499   4.810   4.625   2.371
13519TIP3    H140500   4.784   4.533   2.382
13519TIP3    H240501   4.801   4.663   2.459
13520TIP3   OH240502   4.029   0.162   1.365
13520TIP3    H140503   4.070   0.222   1.428
13520TIP3    H240504   4.077   0.080   1.377
13521TIP3   OH240505   1.971   7.033   5.619
13521TIP3    H140506   1.896   7.021   5.560
13521TIP3    H240507   1.943   6.996   5.702
13522TIP3   OH240508   1.425   3.384   1.602
13522TIP3    H140509   1.332   3.397   1.616
13522TIP3    H240510   1.430   3.324   1.527
13523TIP3   OH240511   6.911   3.230   1.607
13523TIP3    H140512   6.953   3.224   1.693
13523TIP3    H240513   6.907   3.324   1.589
13524TIP3   OH240514   5.885   2.608   6.169
13524TIP3    H140515   5.898   2.630   6.077
13524TIP3    H240516   5.925   2.521   6.178
13525TIP3   OH240517   2.326   3.634   3.363
13525TIP3    H140518   2.385   3.686   3.309
13525TIP3    H240519   2.297   3.695   3.432
13526TIP3   OH240520   5.314   4.739   2.598
13526TIP3    H140521   5.379   4.671   2.580
13526TIP3    H240522   5.260   4.743   2.520
13527TIP3   OH240523   4.300   5.554   4.616
13527TIP3    H140524   4.277   5.579   4.705
13527TIP3    H240525   4.303   5.636   4.568
13528TIP3   OH240526   0.154   4.955   6.224
13528TIP3    H140527   0.109   5.039   6.232
13528TIP3    H240528   0.174   4.948   6.131
13529TIP3   OH240529   3.621   2.419   6.078
13529TIP3    H140530   3.654   2.424   6.168
13529TIP3    H240531   3.529   2.444   6.084
13530TIP3   OH240532   1.390   3.195   3.719
13530TIP3    H140533   1.368   3.288   3.727
13530TIP3    H240534   1.424   3.186   3.631
13531TIP3   OH240535   7.110   3.625   2.087
13531TIP3    H140536   7.083   3.533   2.082
13531TIP3    H240537   7.096   3.659   1.998
13532TIP3   OH240538   8.089   7.541   5.459
13532TIP3    H140539   8.014   7.509   5.508
13532TIP3    H240540   8.161   7.484   5.486
13533TIP3   OH240541   0.190   1.229   5.149
13533TIP3    H140542   0.253   1.225   5.077
13533TIP3    H240543   0.193   1.143   5.189
13534TIP3   OH240544   2.619   2.736   3.848
13534TIP3    H140545   2.637   2.796   3.775
13534TIP3    H240546   2.541   2.688   3.820
13535TIP3   OH240547   7.587   3.299   5.943
13535TIP3    H140548   7.575   3.223   5.999
13535TIP3    H240549   7.553   3.272   5.858
13536TIP3   OH240550   4.208   3.115   2.264
13536TIP3    H140551   4.242   3.205   2.259
13536TIP3    H240552   4.260   3.074   2.332
13537TIP3   OH240553   6.127   7.093   3.115
13537TIP3    H140554   6.220   7.106   3.131
13537TIP3    H240555   6.102   7.165   3.057
13538TIP3   OH240556   0.194   3.835   0.781
13538TIP3    H140557   0.287   3.850   0.759
13538TIP3    H240558   0.196   3.762   0.843
13539TIP3   OH240559   7.545   7.206   1.190
13539TIP3    H140560   7.551   7.278   1.128
13539TIP3    H240561   7.452   7.187   1.197
13540TIP3   OH240562   7.783  -0.045   1.155
13540TIP3    H140563   7.712  -0.047   1.091
13540TIP3    H240564   7.774   0.040   1.198
13541TIP3   OH240565   4.693   5.854   0.605
13541TIP3    H140566   4.622   5.805   0.563
13541TIP3    H240567   4.767   5.793   0.606
13542TIP3   OH240568   2.695   1.158   3.414
13542TIP3    H140569   2.700   1.144   3.320
13542TIP3    H240570   2.748   1.235   3.431
13543TIP3   OH240571   1.394   2.497   6.622
13543TIP3    H140572   1.440   2.506   6.539
13543TIP3    H240573   1.319   2.440   6.602
13544TIP3   OH240574   7.932   4.086   1.348
13544TIP3    H140575   7.890   4.156   1.398
13544TIP3    H240576   8.025   4.098   1.363
13545TIP3   OH240577   5.182   1.289   4.157
13545TIP3    H140578   5.214   1.205   4.187
13545TIP3    H240579   5.090   1.274   4.133
13546TIP3   OH240580   8.202   6.689   2.959
13546TIP3    H140581   8.268   6.751   2.928
13546TIP3    H240582   8.252   6.611   2.983
13547TIP3   OH240583   2.177   7.547   4.758
13547TIP3    H140584   2.216   7.504   4.834
13547TIP3    H240585   2.124   7.617   4.795
13548TIP3   OH240586   2.618   6.704   2.312
13548TIP3    H140587   2.691   6.735   2.258
13548TIP3    H240588   2.659   6.648   2.378
13549TIP3   OH240589   7.845   1.927   5.642
13549TIP3    H140590   7.909   1.975   5.591
13549TIP3    H240591   7.890   1.905   5.724
13550TIP3   OH240592   0.862   7.788   3.658
13550TIP3    H140593   0.914   7.865   3.635
13550TIP3    H240594   0.892   7.720   3.598
13551TIP3   OH240595   6.188   5.908   0.642
13551TIP3    H140596   6.281   5.886   0.654
13551TIP3    H240597   6.185   6.003   0.648
13552TIP3   OH240598   7.394   6.263   5.828
13552TIP3    H140599   7.301   6.240   5.830
13552TIP3    H240600   7.433   6.209   5.897
13553TIP3   OH240601   6.213   6.099   2.100
13553TIP3    H140602   6.296   6.104   2.146
13553TIP3    H240603   6.236   6.077   2.009
13554TIP3   OH240604   4.131   1.105   2.272
13554TIP3    H140605   4.108   1.026   2.224
13554TIP3    H240606   4.173   1.074   2.352
13555TIP3   OH240607   5.724   6.546   0.478
13555TIP3    H140608   5.740   6.603   0.554
13555TIP3    H240609   5.632   6.561   0.456
13556TIP3   OH240610   4.895   6.551   1.387
13556TIP3    H140611   4.848   6.620   1.435
13556TIP3    H240612   4.885   6.473   1.442
13557TIP3   OH240613   1.228   1.440   6.406
13557TIP3    H140614   1.157   1.383   6.375
13557TIP3    H240615   1.265   1.393   6.481
13558TIP3   OH240616   7.717   7.399   3.787
13558TIP3    H140617   7.715   7.485   3.830
13558TIP3    H240618   7.724   7.337   3.859
13559TIP3   OH240619   6.651   4.453   2.177
13559TIP3    H140620   6.696   4.466   2.094
13559TIP3    H240621   6.714   4.484   2.243
13560TIP3   OH240622   2.108   1.068   2.830
13560TIP3    H140623   2.092   1.039   2.740
13560TIP3    H240624   2.070   1.156   2.834
13561TIP3   OH240625   1.799   1.455   1.164
13561TIP3    H140626   1.822   1.519   1.231
13561TIP3    H240627   1.712   1.424   1.189
13562TIP3   OH240628   1.881   5.970   2.451
13562TIP3    H140629   1.846   5.965   2.362
13562TIP3    H240630   1.921   5.885   2.467
13563TIP3   OH240631   5.792   7.271   4.473
13563TIP3    H140632   5.859   7.270   4.541
13563TIP3    H240633   5.736   7.196   4.493
13564TIP3   OH240634   4.682   6.987   3.369
13564TIP3    H140635   4.761   6.953   3.328
13564TIP3    H240636   4.641   6.910   3.409
13565TIP3   OH240637   4.136   5.829   3.455
13565TIP3    H140638   4.190   5.908   3.453
13565TIP3    H240639   4.163   5.780   3.378
13566TIP3   OH240640   7.133   5.990   6.693
13566TIP3    H140641   7.079   5.975   6.616
13566TIP3    H240642   7.185   6.067   6.672
13567TIP3   OH240643   7.245   1.643   2.698
13567TIP3    H140644   7.187   1.718   2.710
13567TIP3    H240645   7.189   1.576   2.657
13568TIP3   OH240646   5.109   4.382   3.266
13568TIP3    H140647   5.164   4.415   3.337
13568TIP3    H240648   5.171   4.340   3.205
13569TIP3   OH240649   5.629   6.426   5.092
13569TIP3    H140650   5.692   6.411   5.163
13569TIP3    H240651   5.679   6.469   5.023
13570TIP3   OH240652   1.472   0.964   0.942
13570TIP3    H140653   1.461   0.913   1.022
13570TIP3    H240654   1.481   1.054   0.972
13571TIP3   OH240655   0.707   5.799   6.109
13571TIP3    H140656   0.691   5.822   6.018
13571TIP3    H240657   0.758   5.872   6.144
13572TIP3   OH240658   4.039   5.986   1.962
13572TIP3    H140659   4.074   5.899   1.942
13572TIP3    H240660   3.977   5.970   2.033
13573TIP3   OH240661   1.711   4.458   1.065
13573TIP3    H140662   1.761   4.539   1.075
13573TIP3    H240663   1.758   4.409   0.997
13574TIP3   OH240664   2.994   1.959   4.620
13574TIP3    H140665   2.987   1.966   4.715
13574TIP3    H240666   2.907   1.933   4.591
13575TIP3   OH240667   2.273   2.876   2.978
13575TIP3    H140668   2.180   2.894   2.986
13575TIP3    H240669   2.316   2.961   2.990
13576TIP3   OH240670   6.757   0.108   2.094
13576TIP3    H140671   6.829   0.055   2.058
13576TIP3    H240672   6.781   0.198   2.072
13577TIP3   OH240673   0.698   2.358   3.717
13577TIP3    H140674   0.639   2.354   3.642
13577TIP3    H240675   0.710   2.267   3.744
13578TIP3   OH240676   2.982   6.783   2.509
13578TIP3    H140677   2.931   6.793   2.590
13578TIP3    H240678   3.067   6.751   2.538
13579TIP3   OH240679   3.672   1.013   1.598
13579TIP3    H140680   3.736   0.942   1.601
13579TIP3    H240681   3.686   1.054   1.512
13580TIP3   OH240682   4.457   6.006   1.375
13580TIP3    H140683   4.510   6.060   1.434
13580TIP3    H240684   4.372   6.000   1.419
13581TIP3   OH240685   0.065   3.186   0.462
13581TIP3    H140686   0.000   3.203   0.394
13581TIP3    H240687   0.089   3.094   0.450
13582TIP3   OH240688   4.196   4.853   0.791
13582TIP3    H140689   4.287   4.867   0.764
13582TIP3    H240690   4.178   4.926   0.851
13583TIP3   OH240691   6.770   5.828   2.304
13583TIP3    H140692   6.790   5.803   2.394
13583TIP3    H240693   6.797   5.753   2.252
13584TIP3   OH240694   6.073   7.256   6.628
13584TIP3    H140695   6.164   7.287   6.625
13584TIP3    H240696   6.021   7.334   6.610
13585TIP3   OH240697   2.966   7.318   3.482
13585TIP3    H140698   3.011   7.282   3.406
13585TIP3    H240699   2.919   7.244   3.520
13586TIP3   OH240700   7.640   5.725   6.139
13586TIP3    H140701   7.725   5.770   6.140
13586TIP3    H240702   7.591   5.765   6.212
13587TIP3   OH240703   1.224   0.109   0.903
13587TIP3    H140704   1.304   0.071   0.868
13587TIP3    H240705   1.157   0.085   0.838
13588TIP3   OH240706   4.358   1.884   6.690
13588TIP3    H140707   4.266   1.859   6.698
13588TIP3    H240708   4.358   1.952   6.623
13589TIP3   OH240709   5.273   5.825   1.035
13589TIP3    H140710   5.227   5.844   0.953
13589TIP3    H240711   5.326   5.902   1.051
13590TIP3   OH240712   3.817   0.077   4.310
13590TIP3    H140713   3.757   0.152   4.308
13590TIP3    H240714   3.765   0.004   4.277
13591TIP3   OH240715   2.304   6.038   5.569
13591TIP3    H140716   2.215   6.064   5.549
13591TIP3    H240717   2.353   6.053   5.488
13592TIP3   OH240718   4.086   2.991   6.680
13592TIP3    H140719   4.036   2.912   6.662
13592TIP3    H240720   4.169   2.959   6.716
13593TIP3   OH240721   3.591   2.696   1.286
13593TIP3    H140722   3.627   2.776   1.326
13593TIP3    H240723   3.562   2.723   1.199
13594TIP3   OH240724   2.542   3.645   6.221
13594TIP3    H140725   2.533   3.662   6.315
13594TIP3    H240726   2.612   3.581   6.215
13595TIP3   OH240727   5.601   3.025   0.717
13595TIP3    H140728   5.545   3.048   0.791
13595TIP3    H240729   5.606   3.105   0.664
13596TIP3   OH240730   8.142   1.926   6.562
13596TIP3    H140731   8.195   2.006   6.555
13596TIP3    H240732   8.147   1.903   6.655
13597TIP3   OH240733   3.323   7.097   6.424
13597TIP3    H140734   3.341   7.022   6.366
13597TIP3    H240735   3.240   7.076   6.466
13598TIP3   OH240736   4.721   6.737   3.670
13598TIP3    H140737   4.708   6.697   3.584
13598TIP3    H240738   4.745   6.664   3.727
13599TIP3   OH240739   3.621   1.654   3.128
13599TIP3    H140740   3.585   1.732   3.085
13599TIP3    H240741   3.654   1.600   3.056
13600TIP3   OH240742   7.281   7.137   6.481
13600TIP3    H140743   7.371   7.132   6.514
13600TIP3    H240744   7.291   7.158   6.388
13601TIP3   OH240745   4.961   5.224   1.762
13601TIP3    H140746   4.985   5.316   1.749
13601TIP3    H240747   4.876   5.216   1.718
13602TIP3   OH240748   8.260   7.814   5.192
13602TIP3    H140749   8.166   7.804   5.173
13602TIP3    H240750   8.268   7.789   5.284
13603TIP3   OH240751   1.162   5.564   1.084
13603TIP3    H140752   1.081   5.581   1.035
13603TIP3    H240753   1.232   5.581   1.021
13604TIP3   OH240754   2.427   3.082   5.307
13604TIP3    H140755   2.419   3.013   5.372
13604TIP3    H240756   2.394   3.043   5.226
13605TIP3   OH240757   0.359   2.276   2.494
13605TIP3    H140758   0.331   2.192   2.457
13605TIP3    H240759   0.444   2.292   2.452
13606TIP3   OH240760   3.814   7.272   3.385
13606TIP3    H140761   3.796   7.366   3.390
13606TIP3    H240762   3.891   7.266   3.328
13607TIP3   OH240763   3.948   1.248   6.297
13607TIP3    H140764   4.034   1.252   6.256
13607TIP3    H240765   3.893   1.305   6.243
13608TIP3   OH240766   3.229   3.200   5.981
13608TIP3    H140767   3.192   3.252   6.052
13608TIP3    H240768   3.315   3.174   6.013
13609TIP3   OH240769   5.263   0.707   5.454
13609TIP3    H140770   5.249   0.676   5.543
13609TIP3    H240771   5.197   0.662   5.402
13610TIP3   OH240772   7.461   4.580   1.767
13610TIP3    H140773   7.438   4.622   1.685
13610TIP3    H240774   7.411   4.499   1.768
13611TIP3   OH240775   7.038   3.012   1.500
13611TIP3    H140776   6.984   3.089   1.521
13611TIP3    H240777   6.998   2.975   1.422
13612TIP3   OH240778   5.422   6.030   4.152
13612TIP3    H140779   5.377   6.114   4.146
13612TIP3    H240780   5.411   5.990   4.066
13613TIP3   OH240781   5.601   5.755   3.291
13613TIP3    H140782   5.587   5.687   3.356
13613TIP3    H240783   5.603   5.708   3.207
13614TIP3   OH240784   1.952   1.337   6.571
13614TIP3    H140785   2.010   1.297   6.506
13614TIP3    H240786   1.950   1.273   6.643
13615TIP3   OH240787   5.280   3.865   1.569
13615TIP3    H140788   5.267   3.772   1.591
13615TIP3    H240789   5.207   3.910   1.611
13616TIP3   OH240790   5.238   4.875   2.802
13616TIP3    H140791   5.143   4.877   2.792
13616TIP3    H240792   5.268   4.814   2.735
13617TIP3   OH240793   7.424   2.731   2.979
13617TIP3    H140794   7.506   2.778   2.996
13617TIP3    H240795   7.451   2.639   2.972
13618TIP3   OH240796   2.024   1.825   5.672
13618TIP3    H140797   1.929   1.823   5.662
13618TIP3    H240798   2.038   1.862   5.758
13619TIP3   OH240799   1.053   5.701   1.927
13619TIP3    H140800   1.033   5.624   1.981
13619TIP3    H240801   1.029   5.675   1.838
13620TIP3   OH240802   5.158   0.392   6.261
13620TIP3    H140803   5.143   0.340   6.340
13620TIP3    H240804   5.159   0.328   6.190
13621TIP3   OH240805   2.132   4.191   0.332
13621TIP3    H140806   2.157   4.217   0.243
13621TIP3    H240807   2.152   4.097   0.336
13622TIP3   OH240808   0.554   4.444   4.462
13622TIP3    H140809   0.539   4.512   4.396
13622TIP3    H240810   0.615   4.484   4.524
13623TIP3   OH240811   5.804   7.603   3.046
13623TIP3    H140812   5.728   7.602   3.104
13623TIP3    H240813   5.796   7.523   2.995
13624TIP3   OH240814   7.609   2.515   1.503
13624TIP3    H140815   7.534   2.574   1.493
13624TIP3    H240816   7.659   2.526   1.423
13625TIP3   OH240817   4.636   2.466   4.604
13625TIP3    H140818   4.633   2.484   4.698
13625TIP3    H240819   4.728   2.474   4.581
13626TIP3   OH240820   1.940   5.697   6.573
13626TIP3    H140821   1.882   5.773   6.580
13626TIP3    H240822   1.894   5.637   6.515
13627TIP3   OH240823   6.563   1.145   6.268
13627TIP3    H140824   6.562   1.149   6.364
13627TIP3    H240825   6.596   1.230   6.240
13628TIP3   OH240826   8.120   5.336   1.117
13628TIP3    H140827   8.062   5.405   1.149
13628TIP3    H240828   8.092   5.321   1.027
13629TIP3   OH240829   4.399   7.840   1.191
13629TIP3    H140830   4.318   7.813   1.147
13629TIP3    H240831   4.371   7.863   1.280
13630TIP3   OH240832   6.381   4.285   1.157
13630TIP3    H140833   6.361   4.376   1.179
13630TIP3    H240834   6.310   4.235   1.196
13631TIP3   OH240835   7.813   2.882   6.705
13631TIP3    H140836   7.732   2.911   6.664
13631TIP3    H240837   7.875   2.954   6.691
13632TIP3   OH240838   6.848   3.343   4.458
13632TIP3    H140839   6.819   3.434   4.457
13632TIP3    H240840   6.939   3.347   4.431
13633TIP3   OH240841   5.311   5.302   3.276
13633TIP3    H140842   5.378   5.288   3.209
13633TIP3    H240843   5.323   5.229   3.337
13634TIP3   OH240844   7.275   4.021   1.087
13634TIP3    H140845   7.291   3.926   1.089
13634TIP3    H240846   7.208   4.036   1.153
13635TIP3   OH240847   1.420   0.384   3.233
13635TIP3    H140848   1.414   0.308   3.175
13635TIP3    H240849   1.366   0.359   3.309
13636TIP3   OH240850   6.600   4.439   6.386
13636TIP3    H140851   6.640   4.434   6.300
13636TIP3    H240852   6.554   4.523   6.387
13637TIP3   OH240853   0.805   2.029   0.751
13637TIP3    H140854   0.730   1.970   0.749
13637TIP3    H240855   0.773   2.110   0.712
13638TIP3   OH240856   7.249   3.749   1.068
13638TIP3    H140857   7.266   3.702   1.150
13638TIP3    H240858   7.332   3.744   1.020
13639TIP3   OH240859   2.756   7.021   1.804
13639TIP3    H140860   2.707   7.009   1.885
13639TIP3    H240861   2.804   7.103   1.816
13640TIP3   OH240862   0.690   3.847   2.127
13640TIP3    H140863   0.784   3.829   2.117
13640TIP3    H240864   0.683   3.886   2.214
13641TIP3   OH240865   0.924   2.409   2.633
13641TIP3    H140866   0.921   2.361   2.551
13641TIP3    H240867   0.987   2.480   2.617
13642TIP3   OH240868   2.130   0.710   3.226
13642TIP3    H140869   2.043   0.670   3.225
13642TIP3    H240870   2.131   0.767   3.149
13643TIP3   OH240871   7.900   4.090   1.074
13643TIP3    H140872   7.891   4.044   1.158
13643TIP3    H240873   7.906   4.019   1.009
13644TIP3   OH240874   5.724   1.304   4.721
13644TIP3    H140875   5.754   1.378   4.669
13644TIP3    H240876   5.686   1.344   4.800
13645TIP3   OH240877   8.210   1.712   0.706
13645TIP3    H140878   8.247   1.630   0.673
13645TIP3    H240879   8.281   1.752   0.756
13646TIP3   OH240880   2.806   1.361   0.140
13646TIP3    H140881   2.780   1.425   0.074
13646TIP3    H240882   2.738   1.293   0.136
13647TIP3   OH240883   5.463   2.775   3.075
13647TIP3    H140884   5.482   2.786   3.168
13647TIP3    H240885   5.368   2.769   3.070
13648TIP3   OH240886   6.197   4.011   5.140
13648TIP3    H140887   6.163   3.923   5.125
13648TIP3    H240888   6.256   4.001   5.215
13649TIP3   OH240889   1.406   5.358   1.981
13649TIP3    H140890   1.381   5.385   1.893
13649TIP3    H240891   1.473   5.291   1.968
13650TIP3   OH240892   1.711   1.061   1.806
13650TIP3    H140893   1.647   1.119   1.765
13650TIP3    H240894   1.783   1.119   1.832
13651TIP3   OH240895   0.413   6.869   4.912
13651TIP3    H140896   0.322   6.838   4.914
13651TIP3    H240897   0.428   6.890   4.820
13652TIP3   OH240898   8.115   0.980   5.904
13652TIP3    H140899   8.192   1.017   5.858
13652TIP3    H240900   8.065   1.057   5.930
13653TIP3   OH240901   7.435   6.961   3.859
13653TIP3    H140902   7.528   6.958   3.839
13653TIP3    H240903   7.392   6.932   3.779
13654TIP3   OH240904   2.486   1.262   2.735
13654TIP3    H140905   2.581   1.272   2.728
13654TIP3    H240906   2.456   1.346   2.771
13655TIP3   OH240907   2.936   0.629   5.754
13655TIP3    H140908   2.840   0.624   5.759
13655TIP3    H240909   2.964   0.538   5.760
13656TIP3   OH240910   7.579   4.438   3.137
13656TIP3    H140911   7.549   4.380   3.208
13656TIP3    H240912   7.639   4.384   3.086
13657TIP3   OH240913   7.440   4.175   6.539
13657TIP3    H140914   7.525   4.184   6.494
13657TIP3    H240915   7.381   4.231   6.489
13658TIP3   OH240916   6.406   2.104   4.445
13658TIP3    H140917   6.466   2.107   4.370
13658TIP3    H240918   6.437   2.173   4.502
13659TIP3   OH240919   5.419   7.407   0.176
13659TIP3    H140920   5.374   7.322   0.184
13659TIP3    H240921   5.351   7.471   0.197
13660TIP3   OH240922   2.663   1.373   6.489
13660TIP3    H140923   2.759   1.375   6.490
13660TIP3    H240924   2.637   1.464   6.498
13661TIP3   OH240925   7.972   6.299   5.024
13661TIP3    H140926   7.967   6.395   5.028
13661TIP3    H240927   7.883   6.271   5.005
13662TIP3   OH240928   3.579   4.753   5.369
13662TIP3    H140929   3.661   4.779   5.411
13662TIP3    H240930   3.555   4.827   5.314
13663TIP3   OH240931   5.268   7.040   4.696
13663TIP3    H140932   5.360   7.056   4.676
13663TIP3    H240933   5.254   6.949   4.668
13664TIP3   OH240934   7.467   1.561   1.655
13664TIP3    H140935   7.457   1.466   1.660
13664TIP3    H240936   7.453   1.583   1.563
13665TIP3   OH240937   0.755   2.753   1.716
13665TIP3    H140938   0.662   2.730   1.719
13665TIP3    H240939   0.785   2.747   1.807
13666TIP3   OH240940   0.953   1.992   6.682
13666TIP3    H140941   0.897   2.063   6.653
13666TIP3    H240942   1.011   1.974   6.607
13667TIP3   OH240943   6.865   6.130   5.297
13667TIP3    H140944   6.865   6.155   5.204
13667TIP3    H240945   6.804   6.057   5.302
13668TIP3   OH240946   5.888   4.987   5.530
13668TIP3    H140947   5.943   4.991   5.608
13668TIP3    H240948   5.917   5.061   5.477
13669TIP3   OH240949   0.713   2.571   4.085
13669TIP3    H140950   0.807   2.583   4.071
13669TIP3    H240951   0.707   2.498   4.147
13670TIP3   OH240952   1.521   0.850   3.561
13670TIP3    H140953   1.509   0.758   3.583
13670TIP3    H240954   1.516   0.854   3.466
13671TIP3   OH240955   5.641   0.003   5.985
13671TIP3    H140956   5.585   0.040   5.917
13671TIP3    H240957   5.690  -0.066   5.940
13672TIP3   OH240958   2.039   4.443   1.067
13672TIP3    H140959   2.040   4.393   1.148
13672TIP3    H240960   1.980   4.393   1.009
13673TIP3   OH240961   6.703   1.723   2.753
13673TIP3    H140962   6.627   1.775   2.724
13673TIP3    H240963   6.722   1.665   2.679
13674TIP3   OH240964   2.688   4.338   6.184
13674TIP3    H140965   2.599   4.304   6.183
13674TIP3    H240966   2.737   4.277   6.239
13675TIP3   OH240967   4.048   3.677   6.439
13675TIP3    H140968   4.125   3.640   6.396
13675TIP3    H240969   3.978   3.614   6.421
13676TIP3   OH240970   7.970   3.396   3.610
13676TIP3    H140971   7.899   3.460   3.604
13676TIP3    H240972   7.940   3.322   3.558
13677TIP3   OH240973   5.561   2.562   4.288
13677TIP3    H140974   5.535   2.506   4.215
13677TIP3    H240975   5.543   2.510   4.366
13678TIP3   OH240976   2.190   1.271   5.548
13678TIP3    H140977   2.273   1.317   5.563
13678TIP3    H240978   2.131   1.339   5.517
13679TIP3   OH240979   4.953   2.115   2.453
13679TIP3    H140980   5.010   2.141   2.380
13679TIP3    H240981   4.880   2.069   2.411
13680TIP3   OH240982   4.258   1.266   6.505
13680TIP3    H140983   4.253   1.238   6.414
13680TIP3    H240984   4.235   1.359   6.503
13681TIP3   OH240985   6.957   5.301   5.507
13681TIP3    H140986   7.051   5.312   5.518
13681TIP3    H240987   6.919   5.383   5.539
13682TIP3   OH240988   5.173   4.267   6.293
13682TIP3    H140989   5.206   4.340   6.346
13682TIP3    H240990   5.115   4.219   6.351
13683TIP3   OH240991   8.067   0.232   4.452
13683TIP3    H140992   8.038   0.167   4.388
13683TIP3    H240993   8.021   0.312   4.428
13684TIP3   OH240994   8.299   6.358   6.198
13684TIP3    H140995   8.217   6.366   6.246
13684TIP3    H240996   8.318   6.264   6.197
13685TIP3   OH240997   7.427   6.585   0.853
13685TIP3    H140998   7.472   6.526   0.912
13685TIP3    H240999   7.474   6.577   0.770
13686TIP3   OH241000   3.714   6.161   5.650
13686TIP3    H141001   3.685   6.074   5.677
13686TIP3    H241002   3.807   6.163   5.673
13687TIP3   OH241003   2.807   3.274   3.536
13687TIP3    H141004   2.784   3.181   3.546
13687TIP3    H241005   2.802   3.290   3.442
13688TIP3   OH241006   2.974   3.677   5.203
13688TIP3    H141007   2.965   3.761   5.158
13688TIP3    H241008   3.007   3.618   5.136
13689TIP3   OH241009   0.267   5.984   3.400
13689TIP3    H141010   0.296   5.913   3.343
13689TIP3    H241011   0.207   5.942   3.462
13690TIP3   OH241012   0.482   4.430   2.761
13690TIP3    H141013   0.392   4.428   2.793
13690TIP3    H241014   0.527   4.491   2.819
13691TIP3   OH241015   7.067   0.247   1.835
13691TIP3    H141016   7.096   0.279   1.750
13691TIP3    H241017   7.017   0.167   1.815
13692TIP3   OH241018   6.324   2.491   1.769
13692TIP3    H141019   6.385   2.475   1.696
13692TIP3    H241020   6.239   2.466   1.734
13693TIP3   OH241021   7.293   5.445   4.110
13693TIP3    H141022   7.370   5.425   4.058
13693TIP3    H241023   7.233   5.487   4.049
13694TIP3   OH241024   0.981   0.703   5.310
13694TIP3    H141025   0.961   0.630   5.251
13694TIP3    H241026   0.978   0.780   5.254
13695TIP3   OH241027   6.697   2.155   1.835
13695TIP3    H141028   6.698   2.250   1.821
13695TIP3    H241029   6.707   2.145   1.930
13696TIP3   OH241030   7.967   5.354   4.532
13696TIP3    H141031   7.940   5.333   4.442
13696TIP3    H241032   8.014   5.276   4.561
13697TIP3   OH241033   3.822   3.985   1.341
13697TIP3    H141034   3.826   4.057   1.278
13697TIP3    H241035   3.872   4.016   1.416
13698TIP3   OH241036   5.986   2.785   3.536
13698TIP3    H141037   6.034   2.775   3.618
13698TIP3    H241038   5.895   2.796   3.563
13699TIP3   OH241039   5.387   5.813   4.347
13699TIP3    H141040   5.323   5.750   4.313
13699TIP3    H241041   5.398   5.876   4.277
13700TIP3   OH241042   4.910   2.746   2.859
13700TIP3    H141043   4.866   2.762   2.942
13700TIP3    H241044   4.856   2.791   2.793
13701TIP3   OH241045   0.214   0.291   1.056
13701TIP3    H141046   0.165   0.229   1.001
13701TIP3    H241047   0.195   0.377   1.019
13702TIP3   OH241048   3.382   4.479   3.751
13702TIP3    H141049   3.432   4.547   3.705
13702TIP3    H241050   3.416   4.396   3.715
13703TIP3   OH241051   4.979   1.060   4.914
13703TIP3    H141052   4.896   1.083   4.956
13703TIP3    H241053   5.046   1.093   4.973
13704TIP3   OH241054   0.386   4.704   3.145
13704TIP3    H141055   0.295   4.689   3.170
13704TIP3    H241056   0.413   4.782   3.194
13705TIP3   OH241057   0.001   3.624   6.378
13705TIP3    H141058   0.069   3.609   6.312
13705TIP3    H241059  -0.059   3.549   6.369
13706TIP3   OH241060   6.664   6.116   4.733
13706TIP3    H141061   6.739   6.071   4.695
13706TIP3    H241062   6.590   6.057   4.717
13707TIP3   OH241063   7.025   6.486   5.846
13707TIP3    H141064   6.969   6.421   5.804
13707TIP3    H241065   7.109   6.478   5.800
13708TIP3   OH241066   0.704   5.647   5.713
13708TIP3    H141067   0.672   5.573   5.765
13708TIP3    H241068   0.798   5.631   5.704
13709TIP3   OH241069   4.066   7.181   1.019
13709TIP3    H141070   4.026   7.139   0.944
13709TIP3    H241071   4.013   7.153   1.094
13710TIP3   OH241072   0.575   0.972   3.895
13710TIP3    H141073   0.643   0.906   3.906
13710TIP3    H241074   0.511   0.953   3.964
13711TIP3   OH241075   4.970   1.563   6.487
13711TIP3    H141076   4.969   1.653   6.518
13711TIP3    H241077   4.877   1.538   6.481
13712TIP3   OH241078   5.403   4.160   3.494
13712TIP3    H141079   5.417   4.211   3.414
13712TIP3    H241080   5.453   4.206   3.561
13713TIP3   OH241081   7.064   4.393   0.523
13713TIP3    H141082   7.140   4.394   0.581
13713TIP3    H241083   7.020   4.477   0.540
13714TIP3   OH241084   0.543   6.974   1.143
13714TIP3    H141085   0.557   7.010   1.231
13714TIP3    H241086   0.565   6.881   1.152
13715TIP3   OH241087   4.304   3.515   2.545
13715TIP3    H141088   4.232   3.460   2.576
13715TIP3    H241089   4.301   3.592   2.601
13716TIP3   OH241090   5.177   2.894   2.891
13716TIP3    H141091   5.201   2.817   2.943
13716TIP3    H241092   5.209   2.875   2.803
13717TIP3   OH241093   2.953   2.737   6.021
13717TIP3    H141094   3.003   2.816   6.002
13717TIP3    H241095   3.014   2.665   6.004
13718TIP3   OH241096   2.281   1.693   4.261
13718TIP3    H141097   2.192   1.657   4.259
13718TIP3    H241098   2.330   1.642   4.197
13719TIP3   OH241099   1.490   1.859   4.541
13719TIP3    H141100   1.578   1.852   4.580
13719TIP3    H241101   1.474   1.953   4.536
13720TIP3   OH241102   0.005   2.586   2.485
13720TIP3    H141103   0.100   2.577   2.481
13720TIP3    H241104  -0.011   2.679   2.474
13721TIP3   OH241105   0.345   6.783   1.752
13721TIP3    H141106   0.356   6.877   1.766
13721TIP3    H241107   0.258   6.764   1.788
13722TIP3   OH241108   3.839   7.413   3.104
13722TIP3    H141109   3.793   7.400   3.021
13722TIP3    H241110   3.877   7.500   3.097
13723TIP3   OH241111   1.474   6.832   0.043
13723TIP3    H141112   1.443   6.817  -0.046
13723TIP3    H241113   1.512   6.920   0.041
13724TIP3   OH241114   4.047   7.682   0.222
13724TIP3    H141115   4.044   7.593   0.186
13724TIP3    H241116   3.979   7.682   0.290
13725TIP3   OH241117   5.028   1.682   5.377
13725TIP3    H141118   5.028   1.647   5.466
13725TIP3    H241119   4.942   1.658   5.341
13726TIP3   OH241120   1.737   7.113   2.947
13726TIP3    H141121   1.830   7.138   2.948
13726TIP3    H241122   1.736   7.026   2.987
13727TIP3   OH241123   2.652   7.305   4.290
13727TIP3    H141124   2.578   7.307   4.229
13727TIP3    H241125   2.726   7.276   4.236
13728TIP3   OH241126   6.499   3.242   4.015
13728TIP3    H141127   6.444   3.243   4.094
13728TIP3    H241128   6.452   3.297   3.953
13729TIP3   OH241129   4.295   6.301   4.897
13729TIP3    H141130   4.261   6.378   4.944
13729TIP3    H241131   4.377   6.280   4.944
13730TIP3   OH241132   4.453   3.740   3.661
13730TIP3    H141133   4.362   3.713   3.651
13730TIP3    H241134   4.463   3.817   3.604
13731TIP3   OH241135   2.438   0.404   0.246
13731TIP3    H141136   2.466   0.494   0.262
13731TIP3    H241137   2.468   0.385   0.157
13732TIP3   OH241138   3.008   4.756   4.066
13732TIP3    H141139   3.103   4.765   4.077
13732TIP3    H241140   2.996   4.664   4.041
13733TIP3   OH241141   2.274   6.606   0.413
13733TIP3    H141142   2.361   6.641   0.435
13733TIP3    H241143   2.250   6.650   0.332
13734TIP3   OH241144   5.156   3.997   5.288
13734TIP3    H141145   5.151   4.063   5.219
13734TIP3    H241146   5.248   3.971   5.291
13735TIP3   OH241147   1.167   2.975   0.156
13735TIP3    H141148   1.254   2.974   0.195
13735TIP3    H241149   1.144   3.068   0.151
13736TIP3   OH241150   7.735   4.372   1.925
13736TIP3    H141151   7.728   4.448   1.867
13736TIP3    H241152   7.679   4.306   1.886
13737TIP3   OH241153   4.197   3.345   4.514
13737TIP3    H141154   4.272   3.338   4.456
13737TIP3    H241155   4.147   3.264   4.498
13738TIP3   OH241156   0.897   1.357   4.245
13738TIP3    H141157   0.895   1.340   4.151
13738TIP3    H241158   0.834   1.294   4.282
13739TIP3   OH241159   6.422   0.998  -0.019
13739TIP3    H141160   6.401   1.090  -0.006
13739TIP3    H241161   6.476   0.974   0.057
13740TIP3   OH241162   3.659   1.338   0.614
13740TIP3    H141163   3.675   1.249   0.645
13740TIP3    H241164   3.745   1.370   0.587
13741TIP3   OH241165   5.223   4.195   5.105
13741TIP3    H141166   5.230   4.121   5.044
13741TIP3    H241167   5.246   4.272   5.053
13742TIP3   OH241168   0.599   2.190   5.490
13742TIP3    H141169   0.605   2.119   5.555
13742TIP3    H241170   0.540   2.156   5.423
13743TIP3   OH241171   1.690   2.456   0.562
13743TIP3    H141172   1.636   2.530   0.535
13743TIP3    H241173   1.675   2.449   0.656
13744TIP3   OH241174   1.996   7.287   0.399
13744TIP3    H141175   2.028   7.329   0.319
13744TIP3    H241176   2.047   7.327   0.469
13745TIP3   OH241177   8.109   6.072   5.891
13745TIP3    H141178   8.080   6.131   5.821
13745TIP3    H241179   8.199   6.098   5.908
13746TIP3   OH241180   3.996   3.734   1.376
13746TIP3    H141181   3.929   3.801   1.371
13746TIP3    H241182   3.949   3.651   1.366
13747TIP3   OH241183   3.509   7.319   6.194
13747TIP3    H141184   3.547   7.270   6.266
13747TIP3    H241185   3.424   7.277   6.178
13748TIP3   OH241186   3.342   5.383   4.018
13748TIP3    H141187   3.292   5.407   4.096
13748TIP3    H241188   3.288   5.318   3.974
13749TIP3   OH241189   1.868   2.373   1.156
13749TIP3    H141190   1.844   2.464   1.138
13749TIP3    H241191   1.906   2.376   1.244
13750TIP3   OH241192   1.705   5.922   5.598
13750TIP3    H141193   1.698   5.979   5.521
13750TIP3    H241194   1.687   5.979   5.672
13751TIP3   OH241195   1.832   3.129   0.591
13751TIP3    H141196   1.785   3.046   0.585
13751TIP3    H241197   1.924   3.103   0.600
13752TIP3   OH241198   3.311   6.609   4.917
13752TIP3    H141199   3.393   6.659   4.913
13752TIP3    H241200   3.308   6.576   5.007
13753TIP3   OH241201   7.493   1.031   4.087
13753TIP3    H141202   7.474   1.121   4.114
13753TIP3    H241203   7.414   0.983   4.110
13754TIP3   OH241204   8.083   2.015   5.464
13754TIP3    H141205   8.146   1.946   5.443
13754TIP3    H241206   8.128   2.070   5.528
13755TIP3   OH241207   1.518   5.281   5.617
13755TIP3    H141208   1.492   5.190   5.635
13755TIP3    H241209   1.541   5.317   5.703
13756TIP3   OH241210   4.954   4.261   5.870
13756TIP3    H141211   4.978   4.316   5.945
13756TIP3    H241212   4.858   4.259   5.872
13757TIP3   OH241213   2.451   5.644   1.960
13757TIP3    H141214   2.428   5.575   2.021
13757TIP3    H241215   2.385   5.637   1.890
13758TIP3   OH241216   4.048   0.404   3.679
13758TIP3    H141217   3.966   0.448   3.702
13758TIP3    H241218   4.057   0.335   3.744
13759TIP3   OH241219   3.705   5.418   5.800
13759TIP3    H141220   3.735   5.480   5.733
13759TIP3    H241221   3.763   5.342   5.790
13760TIP3   OH241222   5.428   2.320   5.896
13760TIP3    H141223   5.460   2.405   5.867
13760TIP3    H241224   5.345   2.307   5.849
13761TIP3   OH241225   0.775   0.288   5.512
13761TIP3    H141226   0.729   0.327   5.586
13761TIP3    H241227   0.863   0.270   5.546
13762TIP3   OH241228   5.092   1.593   0.783
13762TIP3    H141229   5.123   1.563   0.698
13762TIP3    H241230   5.021   1.654   0.763
13763TIP3   OH241231   2.607   0.678   4.202
13763TIP3    H141232   2.604   0.748   4.137
13763TIP3    H241233   2.617   0.722   4.286
13764TIP3   OH241234   0.341   1.516   6.010
13764TIP3    H141235   0.351   1.527   6.105
13764TIP3    H241236   0.265   1.569   5.987
13765TIP3   OH241237   7.657   3.551   1.486
13765TIP3    H141238   7.624   3.523   1.401
13765TIP3    H241239   7.590   3.609   1.521
13766TIP3   OH241240   0.766   6.167   1.802
13766TIP3    H141241   0.745   6.242   1.747
13766TIP3    H241242   0.852   6.187   1.839
13767TIP3   OH241243   3.545   2.649   5.032
13767TIP3    H141244   3.468   2.616   4.985
13767TIP3    H241245   3.522   2.639   5.125
13768TIP3   OH241246   5.914   5.325   2.359
13768TIP3    H141247   5.921   5.229   2.358
13768TIP3    H241248   5.821   5.342   2.349
13769TIP3   OH241249   1.525   3.547   4.527
13769TIP3    H141250   1.612   3.531   4.564
13769TIP3    H241251   1.470   3.479   4.567
13770TIP3   OH241252   2.149   3.882   6.484
13770TIP3    H141253   2.113   3.794   6.497
13770TIP3    H241254   2.225   3.869   6.427
13771TIP3   OH241255   0.032   3.711   2.927
13771TIP3    H141256   0.091   3.635   2.935
13771TIP3    H241257   0.000   3.725   3.016
13772TIP3   OH241258   0.326   3.547   6.510
13772TIP3    H141259   0.282   3.609   6.568
13772TIP3    H241260   0.329   3.465   6.560
13773TIP3   OH241261   6.869   4.061   4.180
13773TIP3    H141262   6.916   3.977   4.175
13773TIP3    H241263   6.787   4.040   4.225
13774TIP3   OH241264   1.654   4.477   0.616
13774TIP3    H141265   1.643   4.528   0.696
13774TIP3    H241266   1.711   4.404   0.642
13775TIP3   OH241267   4.471   0.435   1.915
13775TIP3    H141268   4.404   0.421   1.982
13775TIP3    H241269   4.554   0.421   1.961
13776TIP3   OH241270   7.205   3.231   0.981
13776TIP3    H141271   7.238   3.319   1.000
13776TIP3    H241272   7.284   3.176   0.982
13777TIP3   OH241273   3.303   7.609   0.981
13777TIP3    H141274   3.280   7.561   1.061
13777TIP3    H241275   3.248   7.687   0.983
13778TIP3   OH241276   2.068   1.513   5.517
13778TIP3    H141277   1.973   1.518   5.504
13778TIP3    H241278   2.080   1.520   5.611
13779TIP3   OH241279   6.727   0.996   3.587
13779TIP3    H141280   6.738   1.073   3.530
13779TIP3    H241281   6.799   1.003   3.650
13780TIP3   OH241282   0.604   7.644   5.074
13780TIP3    H141283   0.647   7.661   4.990
13780TIP3    H241284   0.605   7.729   5.119
13781TIP3   OH241285   7.657   7.471   1.840
13781TIP3    H141286   7.610   7.388   1.833
13781TIP3    H241287   7.732   7.461   1.781
13782TIP3   OH241288   5.889   5.830   4.862
13782TIP3    H141289   5.959   5.768   4.841
13782TIP3    H241290   5.914   5.866   4.947
13783TIP3   OH241291   7.970   6.347   2.520
13783TIP3    H141292   8.025   6.404   2.573
13783TIP3    H241293   7.881   6.373   2.542
13784TIP3   OH241294   5.772   3.566   1.968
13784TIP3    H141295   5.769   3.611   1.884
13784TIP3    H241296   5.863   3.575   1.997
13785TIP3   OH241297   6.882   7.194   1.969
13785TIP3    H141298   6.937   7.253   2.019
13785TIP3    H241299   6.793   7.217   1.992
13786TIP3   OH241300   5.938   1.559   6.568
13786TIP3    H141301   5.909   1.611   6.493
13786TIP3    H241302   5.947   1.623   6.639
13787TIP3   OH241303   7.282   0.034   3.695
13787TIP3    H141304   7.209   0.075   3.743
13787TIP3    H241305   7.240  -0.032   3.641
13788TIP3   OH241306   0.945   2.326   0.648
13788TIP3    H141307   0.985   2.411   0.668
13788TIP3    H241308   1.020   2.267   0.638
13789TIP3   OH241309   5.395   3.163   2.027
13789TIP3    H141310   5.477   3.205   2.053
13789TIP3    H241311   5.359   3.219   1.958
13790TIP3   OH241312   4.852   5.625   0.636
13790TIP3    H141313   4.771   5.597   0.593
13790TIP3    H241314   4.920   5.568   0.601
13791TIP3   OH241315   3.963   1.182   0.362
13791TIP3    H141316   4.053   1.181   0.329
13791TIP3    H241317   3.971   1.156   0.454
13792TIP3   OH241318   4.929   6.731   1.818
13792TIP3    H141319   4.965   6.798   1.876
13792TIP3    H241320   4.884   6.670   1.877
13793TIP3   OH241321   2.755   1.342   2.729
13793TIP3    H141322   2.790   1.398   2.798
13793TIP3    H241323   2.812   1.265   2.731
13794TIP3   OH241324   6.279   2.616   0.238
13794TIP3    H141325   6.228   2.596   0.160
13794TIP3    H241326   6.243   2.699   0.269
13795TIP3   OH241327   2.283   6.416   5.666
13795TIP3    H141328   2.308   6.407   5.758
13795TIP3    H241329   2.241   6.333   5.644
13796TIP3   OH241330   3.535   4.542   0.297
13796TIP3    H141331   3.502   4.627   0.269
13796TIP3    H241332   3.564   4.556   0.387
13797TIP3   OH241333   7.025   0.216   5.897
13797TIP3    H141334   7.022   0.140   5.954
13797TIP3    H241335   6.949   0.206   5.839
13798TIP3   OH241336   2.528   6.382   4.220
13798TIP3    H141337   2.576   6.361   4.139
13798TIP3    H241338   2.436   6.383   4.193
13799TIP3   OH241339   5.221   5.378   5.865
13799TIP3    H141340   5.232   5.398   5.958
13799TIP3    H241341   5.135   5.336   5.860
13800TIP3   OH241342   3.221   1.025   1.809
13800TIP3    H141343   3.208   1.003   1.901
13800TIP3    H241344   3.305   0.985   1.787
13801TIP3   OH241345   6.462   7.085   2.074
13801TIP3    H141346   6.523   7.041   2.014
13801TIP3    H241347   6.515   7.154   2.115
13802TIP3   OH241348   6.837   3.346   5.465
13802TIP3    H141349   6.795   3.431   5.453
13802TIP3    H241350   6.923   3.355   5.425
13803TIP3   OH241351   0.706   1.391   2.193
13803TIP3    H141352   0.783   1.448   2.199
13803TIP3    H241353   0.638   1.447   2.157
13804TIP3   OH241354   2.580   4.948   5.078
13804TIP3    H141355   2.634   5.025   5.094
13804TIP3    H241356   2.607   4.885   5.145
13805TIP3   OH241357   7.323   1.643   3.765
13805TIP3    H141358   7.332   1.558   3.809
13805TIP3    H241359   7.350   1.626   3.675
13806TIP3   OH241360   1.049   5.423   0.472
13806TIP3    H141361   1.022   5.506   0.513
13806TIP3    H241362   0.987   5.359   0.506
13807TIP3   OH241363   2.621   0.562   5.461
13807TIP3    H141364   2.552   0.496   5.466
13807TIP3    H241365   2.692   0.518   5.414
13808TIP3   OH241366   8.098   4.272   5.898
13808TIP3    H141367   8.120   4.261   5.990
13808TIP3    H241368   8.128   4.361   5.877
13809TIP3   OH241369   3.412   7.559   0.305
13809TIP3    H141370   3.366   7.528   0.227
13809TIP3    H241371   3.468   7.486   0.331
13810TIP3   OH241372   3.212   7.754   4.221
13810TIP3    H141373   3.130   7.802   4.208
13810TIP3    H241374   3.269   7.816   4.268
13811TIP3   OH241375   7.406   3.703   2.026
13811TIP3    H141376   7.449   3.676   2.107
13811TIP3    H241377   7.322   3.657   2.027
13812TIP3   OH241378   2.398   7.570   2.380
13812TIP3    H141379   2.340   7.495   2.388
13812TIP3    H241380   2.458   7.546   2.309
13813TIP3   OH241381   2.514   7.239   1.343
13813TIP3    H141382   2.551   7.228   1.430
13813TIP3    H241383   2.559   7.174   1.289
13814TIP3   OH241384   4.968   0.781   3.625
13814TIP3    H141385   4.929   0.864   3.651
13814TIP3    H241386   5.039   0.806   3.565
13815TIP3   OH241387   3.176   4.787   4.392
13815TIP3    H141388   3.201   4.732   4.317
13815TIP3    H241389   3.162   4.874   4.355
13816TIP3   OH241390   7.252   2.572   4.488
13816TIP3    H141391   7.267   2.477   4.486
13816TIP3    H241392   7.211   2.588   4.573
13817TIP3   OH241393   1.989   4.114   4.935
13817TIP3    H141394   1.918   4.086   4.877
13817TIP3    H241395   2.051   4.158   4.876
13818TIP3   OH241396   1.312   2.858   6.474
13818TIP3    H141397   1.377   2.915   6.433
13818TIP3    H241398   1.324   2.873   6.568
13819TIP3   OH241399   4.463   1.966   4.295
13819TIP3    H141400   4.401   1.948   4.365
13819TIP3    H241401   4.489   2.057   4.309
13820TIP3   OH241402   2.426   6.046   4.247
13820TIP3    H141403   2.508   6.091   4.228
13820TIP3    H241404   2.384   6.100   4.314
13821TIP3   OH241405   3.333   7.136   2.245
13821TIP3    H141406   3.274   7.079   2.295
13821TIP3    H241407   3.288   7.220   2.242
13822TIP3   OH241408   0.945   5.841   3.702
13822TIP3    H141409   0.926   5.933   3.684
13822TIP3    H241410   0.882   5.816   3.769
13823TIP3   OH241411   5.458   7.085   2.256
13823TIP3    H141412   5.486   6.998   2.286
13823TIP3    H241413   5.454   7.137   2.336
13824TIP3   OH241414   2.843   3.182   0.259
13824TIP3    H141415   2.816   3.115   0.322
13824TIP3    H241416   2.763   3.203   0.211
13825TIP3   OH241417   2.879   0.278   3.224
13825TIP3    H141418   2.791   0.291   3.189
13825TIP3    H241419   2.866   0.249   3.314
13826TIP3   OH241420   6.848   6.313   5.728
13826TIP3    H141421   6.808   6.378   5.671
13826TIP3    H241422   6.897   6.256   5.670
13827TIP3   OH241423   6.385   0.468   5.097
13827TIP3    H141424   6.315   0.418   5.139
13827TIP3    H241425   6.465   0.421   5.120
13828TIP3   OH241426   3.170   2.732   4.320
13828TIP3    H141427   3.091   2.689   4.287
13828TIP3    H241428   3.154   2.826   4.306
13829TIP3   OH241429   1.462   0.679   6.517
13829TIP3    H141430   1.461   0.770   6.486
13829TIP3    H241431   1.545   0.643   6.486
13830TIP3   OH241432   0.922   5.679   1.332
13830TIP3    H141433   0.992   5.723   1.284
13830TIP3    H241434   0.893   5.609   1.273
13831TIP3   OH241435   0.892   6.572   6.523
13831TIP3    H141436   0.810   6.616   6.548
13831TIP3    H241437   0.961   6.629   6.557
13832TIP3   OH241438   0.958   2.954   3.974
13832TIP3    H141439   1.004   2.972   3.892
13832TIP3    H241440   0.919   3.038   3.999
13833TIP3   OH241441   1.081   6.912   4.554
13833TIP3    H141442   1.102   6.883   4.465
13833TIP3    H241443   1.166   6.928   4.595
13834TIP3   OH241444   6.235   5.608   3.303
13834TIP3    H141445   6.327   5.621   3.322
13834TIP3    H241446   6.232   5.528   3.250
13835TIP3   OH241447   6.538   1.822   1.304
13835TIP3    H141448   6.574   1.746   1.258
13835TIP3    H241449   6.611   1.883   1.309
13836TIP3   OH241450   5.570   3.620   0.311
13836TIP3    H141451   5.567   3.703   0.263
13836TIP3    H241452   5.567   3.552   0.244
13837TIP3   OH241453   6.742   2.193   5.901
13837TIP3    H141454   6.813   2.128   5.895
13837TIP3    H241455   6.733   2.225   5.811
13838TIP3   OH241456   6.740   3.459   1.120
13838TIP3    H141457   6.738   3.395   1.049
13838TIP3    H241458   6.698   3.537   1.084
13839TIP3   OH241459   4.800   0.188   5.880
13839TIP3    H141460   4.765   0.273   5.852
13839TIP3    H241461   4.725   0.128   5.873
13840TIP3   OH241462   7.151   7.560   4.549
13840TIP3    H141463   7.078   7.507   4.581
13840TIP3    H241464   7.114   7.613   4.479
13841TIP3   OH241465   4.039   0.602   6.184
13841TIP3    H141466   4.013   0.680   6.233
13841TIP3    H241467   3.992   0.530   6.226
13842TIP3   OH241468   6.294   4.525   3.138
13842TIP3    H141469   6.385   4.511   3.163
13842TIP3    H241470   6.270   4.609   3.177
13843TIP3   OH241471   6.012   3.379   5.510
13843TIP3    H141472   6.001   3.433   5.589
13843TIP3    H241473   6.075   3.311   5.536
13844TIP3   OH241474   4.388   3.608   4.504
13844TIP3    H141475   4.379   3.536   4.441
13844TIP3    H241476   4.480   3.633   4.498
13845TIP3   OH241477   1.958   2.160   3.573
13845TIP3    H141478   1.927   2.229   3.632
13845TIP3    H241479   1.891   2.093   3.578
13846TIP3   OH241480   4.982   3.128   4.719
13846TIP3    H141481   4.979   3.127   4.814
13846TIP3    H241482   4.906   3.076   4.692
13847TIP3   OH241483   7.625   3.254   2.317
13847TIP3    H141484   7.652   3.320   2.381
13847TIP3    H241485   7.684   3.180   2.332
13848TIP3   OH241486   6.235   1.164   2.382
13848TIP3    H141487   6.315   1.188   2.336
13848TIP3    H241488   6.254   1.179   2.474
13849TIP3   OH241489   7.692   6.886   5.768
13849TIP3    H141490   7.688   6.981   5.755
13849TIP3    H241491   7.728   6.877   5.857
13850TIP3   OH241492   1.161   6.237   5.977
13850TIP3    H141493   1.080   6.189   5.995
13850TIP3    H241494   1.208   6.182   5.913
13851TIP3   OH241495   7.942   7.250   5.000
13851TIP3    H141496   7.924   7.263   4.906
13851TIP3    H241497   8.036   7.231   5.004
13852TIP3   OH241498   2.136   1.952   6.510
13852TIP3    H141499   2.229   1.952   6.533
13852TIP3    H241500   2.115   2.043   6.493
13853TIP3   OH241501   2.811   7.513   3.588
13853TIP3    H141502   2.860   7.440   3.549
13853TIP3    H241503   2.816   7.498   3.682
13854TIP3   OH241504   6.669   7.781   5.172
13854TIP3    H141505   6.667   7.853   5.235
13854TIP3    H241506   6.718   7.712   5.217
13855TIP3   OH241507   4.685   1.500   2.942
13855TIP3    H141508   4.769   1.484   2.899
13855TIP3    H241509   4.694   1.460   3.028
13856TIP3   OH241510   6.615   5.422   4.345
13856TIP3    H141511   6.578   5.508   4.361
13856TIP3    H241512   6.638   5.390   4.432
13857TIP3   OH241513   0.600   6.656   6.549
13857TIP3    H141514   0.534   6.593   6.578
13857TIP3    H241515   0.563   6.742   6.573
13858TIP3   OH241516   1.603   2.116   2.177
13858TIP3    H141517   1.626   2.078   2.093
13858TIP3    H241518   1.632   2.207   2.171
13859TIP3   OH241519   4.210   5.588   2.972
13859TIP3    H141520   4.132   5.534   2.987
13859TIP3    H241521   4.282   5.525   2.969
13860TIP3   OH241522   7.047   4.897   5.375
13860TIP3    H141523   6.961   4.925   5.405
13860TIP3    H241524   7.105   4.969   5.397
13861TIP3   OH241525   7.272   5.018   2.363
13861TIP3    H141526   7.308   4.983   2.282
13861TIP3    H241527   7.178   5.004   2.355
13862TIP3   OH241528   0.602   1.047   2.773
13862TIP3    H141529   0.563   1.031   2.858
13862TIP3    H241530   0.671   1.112   2.789
13863TIP3   OH241531   3.662   0.776   4.579
13863TIP3    H141532   3.721   0.711   4.542
13863TIP3    H241533   3.720   0.844   4.614
13864TIP3   OH241534   7.653   2.547   3.292
13864TIP3    H141535   7.560   2.525   3.303
13864TIP3    H241536   7.694   2.521   3.374
13865TIP3   OH241537   2.762   3.784   0.667
13865TIP3    H141538   2.677   3.807   0.705
13865TIP3    H241539   2.743   3.713   0.606
13866TIP3   OH241540   3.847   7.426   5.748
13866TIP3    H141541   3.791   7.413   5.824
13866TIP3    H241542   3.798   7.488   5.693
13867TIP3   OH241543   5.696   7.186   6.428
13867TIP3    H141544   5.643   7.168   6.506
13867TIP3    H241545   5.635   7.223   6.365
13868TIP3   OH241546   2.474   2.263   1.997
13868TIP3    H141547   2.428   2.208   2.059
13868TIP3    H241548   2.405   2.306   1.946
13869TIP3   OH241549   6.517   1.627   5.197
13869TIP3    H141550   6.423   1.644   5.204
13869TIP3    H241551   6.529   1.596   5.108
13870TIP3   OH241552   4.603   2.480   1.296
13870TIP3    H141553   4.677   2.435   1.254
13870TIP3    H241554   4.576   2.547   1.233
13871TIP3   OH241555   2.269   0.539   5.377
13871TIP3    H141556   2.315   0.484   5.441
13871TIP3    H241557   2.265   0.486   5.298
13872TIP3   OH241558   4.098   4.723   1.038
13872TIP3    H141559   4.094   4.792   0.972
13872TIP3    H241560   4.008   4.712   1.067
13873TIP3   OH241561   1.928   4.885   5.305
13873TIP3    H141562   1.904   4.940   5.230
13873TIP3    H241563   2.012   4.920   5.335
13874TIP3   OH241564   3.727   0.326   0.253
13874TIP3    H141565   3.712   0.232   0.262
13874TIP3    H241566   3.702   0.345   0.162
13875TIP3   OH241567   2.645   0.768   2.985
13875TIP3    H141568   2.723   0.728   2.945
13875TIP3    H241569   2.643   0.857   2.950
13876TIP3   OH241570   7.765   6.199   4.725
13876TIP3    H141571   7.721   6.207   4.809
13876TIP3    H241572   7.696   6.213   4.660
13877TIP3   OH241573   8.249   2.177   6.555
13877TIP3    H141574   8.291   2.252   6.511
13877TIP3    H241575   8.181   2.216   6.609
13878TIP3   OH241576   7.725   2.890   5.512
13878TIP3    H141577   7.632   2.903   5.494
13878TIP3    H241578   7.748   2.961   5.572
13879TIP3   OH241579   4.209   4.537   4.973
13879TIP3    H141580   4.131   4.592   4.969
13879TIP3    H241581   4.203   4.482   4.894
13880TIP3   OH241582   6.769   3.124   3.404
13880TIP3    H141583   6.833   3.054   3.422
13880TIP3    H241584   6.719   3.131   3.486
13881TIP3   OH241585   6.934   4.169   2.336
13881TIP3    H141586   6.868   4.111   2.374
13881TIP3    H241587   6.988   4.196   2.410
13882TIP3   OH241588   1.865   7.110   0.250
13882TIP3    H141589   1.895   7.032   0.297
13882TIP3    H241590   1.898   7.183   0.301
13883TIP3   OH241591   5.466   2.102   3.681
13883TIP3    H141592   5.430   2.079   3.596
13883TIP3    H241593   5.518   2.026   3.707
13884TIP3   OH241594   3.424   3.704   2.841
13884TIP3    H141595   3.413   3.694   2.935
13884TIP3    H241596   3.358   3.646   2.803
13885TIP3   OH241597   2.873   2.055   0.975
13885TIP3    H141598   2.802   2.097   1.023
13885TIP3    H241599   2.928   2.017   1.043
13886TIP3   OH241600   7.028   2.579   3.577
13886TIP3    H141601   7.119   2.558   3.598
13886TIP3    H241602   7.022   2.674   3.582
13887TIP3   OH241603   6.721   5.756   1.124
13887TIP3    H141604   6.778   5.824   1.087
13887TIP3    H241605   6.765   5.728   1.204
13888TIP3   OH241606   1.361   2.545   6.197
13888TIP3    H141607   1.397   2.485   6.131
13888TIP3    H241608   1.417   2.533   6.273
13889TIP3   OH241609   1.628   5.233   0.812
13889TIP3    H141610   1.555   5.255   0.755
13889TIP3    H241611   1.676   5.164   0.764
13890TIP3   OH241612   2.183   7.408   0.559
13890TIP3    H141613   2.272   7.374   0.561
13890TIP3    H241614   2.181   7.473   0.629
13891TIP3   OH241615   2.126   1.346   2.484
13891TIP3    H141616   2.169   1.282   2.426
13891TIP3    H241617   2.057   1.384   2.431
13892TIP3   OH241618   0.250   7.512   6.501
13892TIP3    H141619   0.186   7.450   6.534
13892TIP3    H241620   0.238   7.590   6.554
13893TIP3   OH241621   1.482   6.575   1.388
13893TIP3    H141622   1.490   6.489   1.346
13893TIP3    H241623   1.511   6.562   1.478
13894TIP3   OH241624   7.109   1.338   5.591
13894TIP3    H141625   7.091   1.374   5.678
13894TIP3    H241626   7.202   1.357   5.576
13895TIP3   OH241627   7.241   3.571   0.723
13895TIP3    H141628   7.333   3.550   0.735
13895TIP3    H241629   7.203   3.560   0.811
13896TIP3   OH241630   1.249   1.263   4.642
13896TIP3    H141631   1.205   1.335   4.689
13896TIP3    H241632   1.341   1.272   4.666
13897TIP3   OH241633   7.807   3.363   2.764
13897TIP3    H141634   7.795   3.420   2.840
13897TIP3    H241635   7.718   3.336   2.741
13898TIP3   OH241636   8.051   5.108   4.612
13898TIP3    H141637   8.079   5.052   4.540
13898TIP3    H241638   7.995   5.051   4.666
13899TIP3   OH241639   3.511   3.445   3.873
13899TIP3    H141640   3.554   3.509   3.930
13899TIP3    H241641   3.515   3.363   3.922
13900TIP3   OH241642   5.836   4.235   3.765
13900TIP3    H141643   5.836   4.282   3.682
13900TIP3    H241644   5.889   4.157   3.748
13901TIP3   OH241645   2.039   1.208   6.339
13901TIP3    H141646   1.966   1.150   6.361
13901TIP3    H241647   2.061   1.185   6.249
13902TIP3   OH241648   3.649   2.742   1.592
13902TIP3    H141649   3.610   2.811   1.645
13902TIP3    H241650   3.600   2.744   1.510
13903TIP3   OH241651   6.349   3.941   2.862
13903TIP3    H141652   6.428   3.889   2.847
13903TIP3    H241653   6.294   3.923   2.785
13904TIP3   OH241654   1.834   6.612   0.756
13904TIP3    H141655   1.790   6.695   0.737
13904TIP3    H241656   1.922   6.622   0.720
13905TIP3   OH241657   5.490   4.950   4.857
13905TIP3    H141658   5.578   4.916   4.838
13905TIP3    H241659   5.487   4.954   4.953
13906TIP3   OH241660   3.723   4.442   1.241
13906TIP3    H141661   3.702   4.505   1.310
13906TIP3    H241662   3.638   4.418   1.203
13907TIP3   OH241663   0.349   7.225   2.321
13907TIP3    H141664   0.418   7.288   2.299
13907TIP3    H241665   0.277   7.279   2.354
13908TIP3   OH241666   6.934   0.659   1.242
13908TIP3    H141667   7.020   0.689   1.214
13908TIP3    H241668   6.880   0.662   1.163
13909TIP3   OH241669   0.796   7.147   5.200
13909TIP3    H141670   0.890   7.151   5.212
13909TIP3    H241671   0.773   7.230   5.158
13910TIP3   OH241672   1.003   3.424   5.031
13910TIP3    H141673   0.931   3.437   5.093
13910TIP3    H241674   0.963   3.434   4.945
13911TIP3   OH241675   6.017   6.423   3.793
13911TIP3    H141676   5.956   6.427   3.719
13911TIP3    H241677   5.994   6.343   3.840
13912TIP3   OH241678   2.272   4.074   2.156
13912TIP3    H141679   2.192   4.096   2.204
13912TIP3    H241680   2.280   3.979   2.165
13913TIP3   OH241681   5.528   4.924   5.831
13913TIP3    H141682   5.501   4.834   5.851
13913TIP3    H241683   5.613   4.915   5.788
13914TIP3   OH241684   5.839   3.914   2.086
13914TIP3    H141685   5.897   3.989   2.094
13914TIP3    H241686   5.888   3.841   2.125
13915TIP3   OH241687   0.736   0.114   0.978
13915TIP3    H141688   0.812   0.144   0.927
13915TIP3    H241689   0.660   0.147   0.930
13916TIP3   OH241690   5.107   5.329   5.366
13916TIP3    H141691   5.125   5.366   5.452
13916TIP3    H241692   5.193   5.328   5.322
13917TIP3   OH241693   5.667   3.521   6.256
13917TIP3    H141694   5.602   3.590   6.266
13917TIP3    H241695   5.665   3.499   6.163
13918TIP3   OH241696   2.911   5.731   2.544
13918TIP3    H141697   2.847   5.663   2.524
13918TIP3    H241698   2.865   5.813   2.528
13919TIP3   OH241699   5.231   2.770   2.168
13919TIP3    H141700   5.250   2.723   2.086
13919TIP3    H241701   5.301   2.836   2.173
13920TIP3   OH241702   4.023   5.989   4.013
13920TIP3    H141703   3.937   6.020   3.986
13920TIP3    H241704   4.007   5.942   4.096
13921TIP3   OH241705   5.741   4.369   2.343
13921TIP3    H141706   5.829   4.361   2.380
13921TIP3    H241707   5.689   4.305   2.391
13922TIP3   OH241708   3.858   6.556   6.770
13922TIP3    H141709   3.905   6.638   6.759
13922TIP3    H241710   3.911   6.492   6.723
13923TIP3   OH241711   6.497   1.502   1.576
13923TIP3    H141712   6.492   1.593   1.605
13923TIP3    H241713   6.548   1.506   1.495
13924TIP3   OH241714   6.792   7.714   5.967
13924TIP3    H141715   6.831   7.630   5.992
13924TIP3    H241716   6.700   7.693   5.947
13925TIP3   OH241717   1.009   5.696   1.627
13925TIP3    H141718   0.975   5.785   1.639
13925TIP3    H241719   0.983   5.672   1.538
13926TIP3   OH241720   6.783   4.256   6.637
13926TIP3    H141721   6.784   4.200   6.715
13926TIP3    H241722   6.704   4.229   6.589
13927TIP3   OH241723   5.613   4.850   3.608
13927TIP3    H141724   5.639   4.934   3.569
13927TIP3    H241725   5.528   4.867   3.647
13928TIP3   OH241726   1.958   7.742   0.047
13928TIP3    H141727   1.940   7.836   0.053
13928TIP3    H241728   2.053   7.735   0.052
13929TIP3   OH241729   5.366   3.793   3.537
13929TIP3    H141730   5.331   3.756   3.617
13929TIP3    H241731   5.375   3.887   3.555
13930TIP3   OH241732   6.834   5.022   5.484
13930TIP3    H141733   6.744   5.049   5.464
13930TIP3    H241734   6.878   5.103   5.510
13931TIP3   OH241735   0.199   7.587   2.961
13931TIP3    H141736   0.137   7.651   2.995
13931TIP3    H241737   0.281   7.606   3.005
13932TIP3   OH241738   4.713   0.436   2.331
13932TIP3    H141739   4.753   0.432   2.245
13932TIP3    H241740   4.730   0.525   2.362
13933TIP3   OH241741   3.599   2.449   1.101
13933TIP3    H141742   3.542   2.525   1.114
13933TIP3    H241743   3.688   2.484   1.111
13934TIP3   OH241744   7.804   4.546   3.237
13934TIP3    H141745   7.849   4.461   3.243
13934TIP3    H241746   7.719   4.525   3.198
13935TIP3   OH241747   7.812   5.574   4.190
13935TIP3    H141748   7.847   5.597   4.276
13935TIP3    H241749   7.778   5.485   4.201
13936TIP3   OH241750   3.188   6.361   4.123
13936TIP3    H141751   3.093   6.350   4.131
13936TIP3    H241752   3.224   6.310   4.195
13937TIP3   OH241753   4.644   5.539   5.779
13937TIP3    H141754   4.571   5.566   5.724
13937TIP3    H241755   4.606   5.535   5.868
13938TIP3   OH241756   2.411   1.912   1.061
13938TIP3    H141757   2.449   1.875   0.981
13938TIP3    H241758   2.426   2.007   1.053
13939TIP3   OH241759   8.029   3.318   1.074
13939TIP3    H141760   8.039   3.266   1.154
13939TIP3    H241761   8.030   3.253   1.004
13940TIP3   OH241762   2.219   5.740   3.259
13940TIP3    H141763   2.204   5.718   3.351
13940TIP3    H241764   2.211   5.657   3.212
13941TIP3   OH241765   2.961   0.800   2.568
13941TIP3    H141766   2.947   0.816   2.661
13941TIP3    H241767   3.051   0.766   2.563
13942TIP3   OH241768   5.565   4.468   4.465
13942TIP3    H141769   5.644   4.513   4.496
13942TIP3    H241770   5.552   4.397   4.529
13943TIP3   OH241771   5.047   4.802   2.485
13943TIP3    H141772   4.966   4.802   2.435
13943TIP3    H241773   5.029   4.857   2.561
13944TIP3   OH241774   1.726   4.929   1.525
13944TIP3    H141775   1.636   4.918   1.495
13944TIP3    H241776   1.769   4.976   1.454
13945TIP3   OH241777   3.778   2.885   0.028
13945TIP3    H141778   3.710   2.853   0.087
13945TIP3    H241779   3.858   2.883   0.081
13946TIP3   OH241780   0.497   5.893   4.809
13946TIP3    H141781   0.581   5.847   4.811
13946TIP3    H241782   0.519   5.986   4.812
13947TIP3   OH241783   2.559   6.261   1.615
13947TIP3    H141784   2.589   6.352   1.621
13947TIP3    H241785   2.630   6.210   1.653
13948TIP3   OH241786   6.926   7.153   1.040
13948TIP3    H141787   6.845   7.168   1.088
13948TIP3    H241788   6.959   7.070   1.073
13949TIP3   OH241789   6.363   4.353   6.176
13949TIP3    H141790   6.458   4.354   6.182
13949TIP3    H241791   6.345   4.339   6.083
13950TIP3   OH241792   1.634   4.734   2.756
13950TIP3    H141793   1.726   4.719   2.778
13950TIP3    H241794   1.595   4.647   2.756
13951TIP3   OH241795   8.146   4.870   3.763
13951TIP3    H141796   8.063   4.906   3.734
13951TIP3    H241797   8.174   4.813   3.691
13952TIP3   OH241798   1.930   3.024   0.892
13952TIP3    H141799   1.925   3.114   0.923
13952TIP3    H241800   1.855   2.981   0.934
13953TIP3   OH241801   4.241   2.712   5.667
13953TIP3    H141802   4.171   2.675   5.720
13953TIP3    H241803   4.197   2.766   5.602
13954TIP3   OH241804   4.866   6.169   5.856
13954TIP3    H141805   4.842   6.189   5.765
13954TIP3    H241806   4.961   6.177   5.858
13955TIP3   OH241807   3.597   2.914   4.767
13955TIP3    H141808   3.554   2.953   4.843
13955TIP3    H241809   3.641   2.987   4.723
13956TIP3   OH241810   7.288   6.063   1.302
13956TIP3    H141811   7.249   5.976   1.300
13956TIP3    H241812   7.216   6.123   1.282
13957TIP3   OH241813   7.156   6.333   5.423
13957TIP3    H141814   7.234   6.281   5.403
13957TIP3    H241815   7.098   6.272   5.469
13958TIP3   OH241816   8.053   2.932   3.936
13958TIP3    H141817   8.063   2.957   3.844
13958TIP3    H241818   8.114   2.990   3.983
13959TIP3   OH241819   5.377   4.829   1.821
13959TIP3    H141820   5.421   4.805   1.903
13959TIP3    H241821   5.449   4.848   1.760
13960TIP3   OH241822   1.675   5.665   5.483
13960TIP3    H141823   1.647   5.688   5.394
13960TIP3    H241824   1.678   5.748   5.530
13961TIP3   OH241825   0.427   6.906   0.438
13961TIP3    H141826   0.506   6.936   0.482
13961TIP3    H241827   0.381   6.986   0.413
13962TIP3   OH241828   2.427   7.044   1.083
13962TIP3    H141829   2.359   7.055   1.150
13962TIP3    H241830   2.441   6.949   1.079
13963TIP3   OH241831   7.610   5.569   5.697
13963TIP3    H141832   7.678   5.623   5.740
13963TIP3    H241833   7.576   5.514   5.767
13964TIP3   OH241834   6.332   1.347   4.763
13964TIP3    H141835   6.412   1.385   4.800
13964TIP3    H241836   6.324   1.262   4.806
13965TIP3   OH241837   8.006   4.965   4.841
13965TIP3    H141838   7.948   4.890   4.828
13965TIP3    H241839   7.947   5.037   4.862
13966TIP3   OH241840   4.214   3.929   6.618
13966TIP3    H141841   4.168   4.012   6.604
13966TIP3    H241842   4.245   3.904   6.531
13967TIP3   OH241843   2.588   0.284   3.624
13967TIP3    H141844   2.644   0.263   3.549
13967TIP3    H241845   2.500   0.258   3.597
13968TIP3   OH241846   2.808   4.751   3.844
13968TIP3    H141847   2.715   4.767   3.835
13968TIP3    H241848   2.820   4.661   3.811
13969TIP3   OH241849   1.418   6.220   2.616
13969TIP3    H141850   1.473   6.160   2.667
13969TIP3    H241851   1.329   6.205   2.649
13970TIP3   OH241852   5.199   7.719   3.336
13970TIP3    H141853   5.179   7.671   3.255
13970TIP3    H241854   5.115   7.730   3.379
13971TIP3   OH241855   8.038   1.013   3.220
13971TIP3    H141856   7.946   1.030   3.241
13971TIP3    H241857   8.063   1.085   3.162
13972TIP3   OH241858   1.639   4.336   2.342
13972TIP3    H141859   1.661   4.428   2.328
13972TIP3    H241860   1.719   4.289   2.318
13973TIP3   OH241861   7.481   0.822   6.278
13973TIP3    H141862   7.506   0.899   6.226
13973TIP3    H241863   7.430   0.858   6.350
13974TIP3   OH241864   8.123   5.105   1.803
13974TIP3    H141865   8.103   5.192   1.767
13974TIP3    H241866   8.038   5.071   1.832
13975TIP3   OH241867   4.272   3.242   5.653
13975TIP3    H141868   4.189   3.198   5.633
13975TIP3    H241869   4.296   3.207   5.739
13976TIP3   OH241870   4.467   6.861   4.209
13976TIP3    H141871   4.436   6.952   4.203
13976TIP3    H241872   4.394   6.808   4.178
13977TIP3   OH241873   6.899   1.467   0.334
13977TIP3    H141874   6.891   1.473   0.239
13977TIP3    H241875   6.930   1.553   0.362
13978TIP3   OH241876   6.762   2.383   0.810
13978TIP3    H141877   6.698   2.375   0.739
13978TIP3    H241878   6.783   2.476   0.813
13979TIP3   OH241879   6.014   1.968   1.993
13979TIP3    H141880   6.036   1.988   1.902
13979TIP3    H241881   6.099   1.956   2.036
13980TIP3   OH241882   3.478   5.920   3.392
13980TIP3    H141883   3.552   5.974   3.421
13980TIP3    H241884   3.518   5.854   3.335
13981TIP3   OH241885   2.991   5.852   4.785
13981TIP3    H141886   2.936   5.820   4.714
13981TIP3    H241887   2.930   5.893   4.846
13982TIP3   OH241888   7.593   3.179   3.001
13982TIP3    H141889   7.534   3.241   2.959
13982TIP3    H241890   7.639   3.137   2.928
13983TIP3   OH241891   4.884   5.421  -0.002
13983TIP3    H141892   4.907   5.353   0.061
13983TIP3    H241893   4.911   5.503   0.040
13984TIP3   OH241894   0.738   6.626   1.726
13984TIP3    H141895   0.781   6.559   1.779
13984TIP3    H241896   0.729   6.701   1.785
13985TIP3   OH241897   8.274   3.160   4.905
13985TIP3    H141898   8.188   3.120   4.895
13985TIP3    H241899   8.268   3.244   4.859
13986TIP3   OH241900   0.318   2.239   4.403
13986TIP3    H141901   0.343   2.198   4.320
13986TIP3    H241902   0.257   2.308   4.378
13987TIP3   OH241903   2.384   4.308   6.163
13987TIP3    H141904   2.315   4.335   6.223
13987TIP3    H241905   2.339   4.279   6.084
13988TIP3   OH241906   0.782   4.432   5.852
13988TIP3    H141907   0.860   4.485   5.836
13988TIP3    H241908   0.709   4.489   5.831
13989TIP3   OH241909   5.172   0.379   5.891
13989TIP3    H141910   5.124   0.307   5.934
13989TIP3    H241911   5.228   0.335   5.828
13990TIP3   OH241912   7.971   5.537   1.227
13990TIP3    H141913   7.911   5.592   1.177
13990TIP3    H241914   7.981   5.583   1.311
13991TIP3   OH241915   3.877   7.019   6.132
13991TIP3    H141916   3.782   7.017   6.140
13991TIP3    H241917   3.894   7.007   6.038
13992TIP3   OH241918   5.756   3.344   1.098
13992TIP3    H141919   5.851   3.351   1.083
13992TIP3    H241920   5.717   3.386   1.022
13993TIP3   OH241921   0.704   7.329   6.399
13993TIP3    H141922   0.754   7.409   6.382
13993TIP3    H241923   0.649   7.350   6.474
13994TIP3   OH241924   8.008   2.758   5.265
13994TIP3    H141925   8.042   2.762   5.175
13994TIP3    H241926   7.986   2.848   5.286
13995TIP3   OH241927   8.170   4.819   5.931
13995TIP3    H141928   8.205   4.780   5.851
13995TIP3    H241929   8.087   4.859   5.904
13996TIP3   OH241930   6.602   1.451   1.325
13996TIP3    H141931   6.607   1.356   1.339
13996TIP3    H241932   6.561   1.461   1.239
13997TIP3   OH241933   3.486   1.734   2.411
13997TIP3    H141934   3.532   1.711   2.492
13997TIP3    H241935   3.408   1.781   2.441
13998TIP3   OH241936   6.704   6.081   6.706
13998TIP3    H141937   6.747   6.107   6.787
13998TIP3    H241938   6.684   6.163   6.661
13999TIP3   OH241939   6.582   7.251   4.920
13999TIP3    H141940   6.636   7.243   4.998
13999TIP3    H241941   6.492   7.238   4.951
14000TIP3   OH241942   2.589   1.505   0.957
14000TIP3    H141943   2.498   1.480   0.941
14000TIP3    H241944   2.635   1.422   0.974
14001TIP3   OH241945   1.285   6.505   4.678
14001TIP3    H141946   1.309   6.545   4.595
14001TIP3    H241947   1.259   6.579   4.734
14002TIP3   OH241948   1.672   2.442   0.837
14002TIP3    H141949   1.662   2.521   0.889
14002TIP3    H241950   1.640   2.372   0.893
14003TIP3   OH241951   4.185   5.462   1.362
14003TIP3    H141952   4.183   5.541   1.307
14003TIP3    H241953   4.269   5.467   1.408
14004TIP3   OH241954   5.371   6.930   3.642
14004TIP3    H141955   5.384   6.932   3.737
14004TIP3    H241956   5.338   7.017   3.620
14005TIP3   OH241957   5.081   0.390   4.353
14005TIP3    H141958   5.129   0.469   4.379
14005TIP3    H241959   4.989   0.413   4.364
14006TIP3   OH241960   1.527   2.875   3.192
14006TIP3    H141961   1.491   2.941   3.133
14006TIP3    H241962   1.492   2.899   3.278
14007TIP3   OH241963   4.774   5.639   3.617
14007TIP3    H141964   4.724   5.698   3.673
14007TIP3    H241965   4.852   5.618   3.669
14008TIP3   OH241966   0.594   6.118   3.885
14008TIP3    H141967   0.650   6.121   3.807
14008TIP3    H241968   0.653   6.137   3.958
14009TIP3   OH241969   6.645   3.948   4.333
14009TIP3    H141970   6.587   4.020   4.309
14009TIP3    H241971   6.643   3.947   4.429
14010TIP3   OH241972   5.158   6.451   3.102
14010TIP3    H141973   5.074   6.493   3.082
14010TIP3    H241974   5.136   6.386   3.169
14011TIP3   OH241975   0.066   7.119   0.334
14011TIP3    H141976   0.091   7.207   0.363
14011TIP3    H241977   0.038   7.130   0.243
14012TIP3   OH241978   1.001   1.407   2.142
14012TIP3    H141979   1.059   1.333   2.124
14012TIP3    H241980   0.946   1.414   2.063
14013TIP3   OH241981   1.795   1.900   0.818
14013TIP3    H141982   1.765   1.824   0.867
14013TIP3    H241983   1.800   1.870   0.728
14014TIP3   OH241984   5.697   0.659   4.869
14014TIP3    H141985   5.716   0.568   4.893
14014TIP3    H241986   5.780   0.694   4.838
14015TIP3   OH241987   1.863   1.217   3.386
14015TIP3    H141988   1.785   1.268   3.408
14015TIP3    H241989   1.855   1.200   3.292
14016TIP3   OH241990   7.074   6.761   3.376
14016TIP3    H141991   7.059   6.712   3.295
14016TIP3    H241992   6.996   6.744   3.429
14017TIP3   OH241993   4.459   3.556   6.226
14017TIP3    H141994   4.515   3.485   6.192
14017TIP3    H241995   4.490   3.634   6.181
14018TIP3   OH241996   0.600   6.922   2.845
14018TIP3    H141997   0.570   6.999   2.796
14018TIP3    H241998   0.541   6.851   2.818
14019TIP3   OH241999   5.264   7.630   1.085
14019TIP3    H142000   5.231   7.565   1.023
14019TIP3    H242001   5.192   7.691   1.096
14020TIP3   OH242002   5.798   6.983   6.042
14020TIP3    H142003   5.874   6.932   6.014
14020TIP3    H242004   5.834   7.051   6.098
14021TIP3   OH242005   2.576   5.812   0.635
14021TIP3    H142006   2.652   5.754   0.631
14021TIP3    H242007   2.577   5.858   0.551
14022TIP3   OH242008   4.185   5.327   0.277
14022TIP3    H142009   4.090   5.323   0.283
14022TIP3    H242010   4.206   5.285   0.194
14023TIP3   OH242011   4.706   6.128   4.426
14023TIP3    H142012   4.663   6.058   4.475
14023TIP3    H242013   4.735   6.087   4.344
14024TIP3   OH242014   4.500   2.990   1.366
14024TIP3    H142015   4.582   2.951   1.335
14024TIP3    H242016   4.528   3.056   1.429
14025TIP3   OH242017   7.996   6.431   6.148
14025TIP3    H142018   7.902   6.414   6.142
14025TIP3    H242019   8.004   6.509   6.203
14026TIP3   OH242020   7.730   2.237   5.686
14026TIP3    H142021   7.795   2.258   5.753
14026TIP3    H242022   7.751   2.147   5.661
14027TIP3   OH242023   5.210   0.217   0.754
14027TIP3    H142024   5.231   0.284   0.689
14027TIP3    H242025   5.293   0.201   0.799
14028TIP3   OH242026   5.439   4.926   6.189
14028TIP3    H142027   5.366   4.876   6.152
14028TIP3    H242028   5.426   4.921   6.284
14029TIP3   OH242029   0.767   4.934   3.032
14029TIP3    H142030   0.731   5.021   3.047
14029TIP3    H242031   0.845   4.949   2.979
14030TIP3   OH242032   7.519   2.125   1.869
14030TIP3    H142033   7.501   2.173   1.950
14030TIP3    H242034   7.536   2.193   1.804
14031TIP3   OH242035   1.493   0.771   4.112
14031TIP3    H142036   1.561   0.781   4.044
14031TIP3    H242037   1.422   0.829   4.084
14032TIP3   OH242038   6.833   5.559   5.597
14032TIP3    H142039   6.910   5.614   5.584
14032TIP3    H242040   6.774   5.584   5.526
14033TIP3   OH242041   6.913   1.235   1.656
14033TIP3    H142042   6.934   1.158   1.709
14033TIP3    H242043   6.832   1.268   1.695
14034TIP3   OH242044   8.157   5.443   5.105
14034TIP3    H142045   8.095   5.480   5.168
14034TIP3    H242046   8.164   5.351   5.130
14035TIP3   OH242047   5.714   6.772   5.556
14035TIP3    H142048   5.706   6.866   5.575
14035TIP3    H242049   5.731   6.732   5.642
14036TIP3   OH242050   0.854  -0.052   0.673
14036TIP3    H142051   0.855   0.026   0.728
14036TIP3    H242052   0.804  -0.026   0.596
14037TIP3   OH242053   4.684   4.077   2.448
14037TIP3    H142054   4.740   4.039   2.515
14037TIP3    H242055   4.693   4.172   2.460
14038TIP3   OH242056   1.695   5.071   5.988
14038TIP3    H142057   1.756   5.138   5.959
14038TIP3    H242058   1.623   5.119   6.030
14039TIP3   OH242059   0.350   2.480   6.734
14039TIP3    H142060   0.388   2.567   6.722
14039TIP3    H242061   0.361   2.462   6.827
14040TIP3   OH242062   5.184   6.499   5.807
14040TIP3    H142063   5.167   6.540   5.891
14040TIP3    H242064   5.244   6.559   5.762
14041TIP3   OH242065   7.339   1.835   6.180
14041TIP3    H142066   7.337   1.757   6.235
14041TIP3    H242067   7.424   1.831   6.135
14042TIP3   OH242068   2.680   2.028   0.250
14042TIP3    H142069   2.597   2.040   0.295
14042TIP3    H242070   2.691   2.108   0.198
14043TIP3   OH242071   5.131   3.762   2.081
14043TIP3    H142072   5.109   3.782   1.990
14043TIP3    H242073   5.047   3.749   2.125
14044TIP3   OH242074   0.882   3.452   1.469
14044TIP3    H142075   0.828   3.527   1.444
14044TIP3    H242076   0.819   3.386   1.499
14045TIP3   OH242077   1.623   3.227   5.681
14045TIP3    H142078   1.682   3.157   5.708
14045TIP3    H242079   1.680   3.290   5.635
14046TIP3   OH242080   6.965   3.760   4.897
14046TIP3    H142081   7.017   3.838   4.882
14046TIP3    H242082   6.991   3.699   4.828
14047TIP3   OH242083   1.938   7.335   1.814
14047TIP3    H142084   1.961   7.270   1.880
14047TIP3    H242085   2.021   7.373   1.787
14048TIP3   OH242086   5.932   5.810   1.654
14048TIP3    H142087   5.998   5.878   1.638
14048TIP3    H242088   5.901   5.826   1.743
14049TIP3   OH242089   8.072   5.653   4.869
14049TIP3    H142090   8.085   5.598   4.947
14049TIP3    H242091   8.080   5.742   4.901
14050TIP3   OH242092   6.482   0.060   6.763
14050TIP3    H142093   6.567   0.101   6.750
14050TIP3    H242094   6.419   0.121   6.722
14051TIP3   OH242095   4.929   1.852   6.063
14051TIP3    H142096   4.909   1.837   5.971
14051TIP3    H242097   4.975   1.772   6.090
14052TIP3   OH242098   5.737   5.444   4.241
14052TIP3    H142099   5.697   5.435   4.155
14052TIP3    H242100   5.669   5.483   4.295
14053TIP3   OH242101   2.335   2.491   0.044
14053TIP3    H142102   2.289   2.435   0.106
14053TIP3    H242103   2.427   2.480   0.065
14054TIP3   OH242104   0.254   2.713   2.228
14054TIP3    H142105   0.268   2.677   2.316
14054TIP3    H242106   0.269   2.807   2.238
14055TIP3   OH242107   5.965   3.607   3.447
14055TIP3    H142108   6.006   3.675   3.500
14055TIP3    H242109   5.872   3.613   3.469
14056TIP3   OH242110   4.496   3.759   6.052
14056TIP3    H142111   4.496   3.722   5.964
14056TIP3    H242112   4.477   3.852   6.039
14057TIP3   OH242113   4.703   5.206   2.940
14057TIP3    H142114   4.643   5.160   2.999
14057TIP3    H242115   4.652   5.218   2.860
14058TIP3   OH242116   2.336   2.661   4.401
14058TIP3    H142117   2.416   2.652   4.452
14058TIP3    H242118   2.266   2.637   4.461
14059TIP3   OH242119   3.661   0.399   5.008
14059TIP3    H142120   3.581   0.350   5.025
14059TIP3    H242121   3.638   0.461   4.939
14060TIP3   OH242122   3.983   1.812   6.084
14060TIP3    H142123   3.990   1.902   6.116
14060TIP3    H242124   3.894   1.805   6.050
14061TIP3   OH242125   6.707   0.730   1.506
14061TIP3    H142126   6.798   0.758   1.510
14061TIP3    H242127   6.684   0.740   1.414
14062TIP3   OH242128   1.867   0.851   6.710
14062TIP3    H142129   1.882   0.816   6.622
14062TIP3    H242130   1.857   0.774   6.765
14063TIP3   OH242131   5.421   2.414   5.048
14063TIP3    H142132   5.374   2.352   4.992
14063TIP3    H242133   5.433   2.491   4.993
14064TIP3   OH242134   5.364   4.260   0.832
14064TIP3    H142135   5.326   4.207   0.762
14064TIP3    H242136   5.291   4.275   0.893
14065TIP3   OH242137   4.488   2.249   4.256
14065TIP3    H142138   4.403   2.218   4.223
14065TIP3    H242139   4.548   2.237   4.183
14066TIP3   OH242140   3.766   0.958   5.526
14066TIP3    H142141   3.821   0.988   5.598
14066TIP3    H242142   3.676   0.968   5.558
14067TIP3   OH242143   7.556   0.434   4.942
14067TIP3    H142144   7.509   0.397   4.868
14067TIP3    H242145   7.566   0.527   4.921
14068TIP3   OH242146   4.989   0.112   3.563
14068TIP3    H142147   5.036   0.030   3.574
14068TIP3    H242148   4.945   0.104   3.479
14069TIP3   OH242149   1.975   3.458   2.944
14069TIP3    H142150   2.028   3.525   2.901
14069TIP3    H242151   1.972   3.386   2.881
14070TIP3   OH242152   2.569   2.050   5.970
14070TIP3    H142153   2.492   2.002   6.002
14070TIP3    H242154   2.643   1.994   5.994
14071TIP3   OH242155   6.192   1.344   5.174
14071TIP3    H142156   6.285   1.332   5.155
14071TIP3    H242157   6.149   1.271   5.129
14072TIP3   OH242158   5.091   5.695   3.999
14072TIP3    H142159   5.156   5.628   3.975
14072TIP3    H242160   5.133   5.778   3.978
14073TIP3   OH242161   1.904   2.552   1.423
14073TIP3    H142162   1.849   2.629   1.407
14073TIP3    H242163   1.993   2.582   1.403
14074TIP3   OH242164   4.372   6.206   2.554
14074TIP3    H142165   4.382   6.274   2.487
14074TIP3    H242166   4.296   6.235   2.606
14075TIP3   OH242167   4.619   6.988   5.986
14075TIP3    H142168   4.677   7.042   5.932
14075TIP3    H242169   4.599   7.043   6.062
14076TIP3   OH242170   4.662   5.010   0.557
14076TIP3    H142171   4.708   4.970   0.630
14076TIP3    H242172   4.660   5.104   0.578
14077TIP3   OH242173   7.800   1.257   4.244
14077TIP3    H142174   7.825   1.165   4.256
14077TIP3    H242175   7.871   1.294   4.192
14078TIP3   OH242176   3.637   2.254   0.923
14078TIP3    H142177   3.597   2.311   0.989
14078TIP3    H242178   3.722   2.230   0.961
14079TIP3   OH242179   5.981   0.134   5.568
14079TIP3    H142180   5.978   0.199   5.497
14079TIP3    H242181   5.901   0.149   5.618
14080TIP3   OH242182   3.275   3.611   1.043
14080TIP3    H142183   3.252   3.681   1.103
14080TIP3    H242184   3.366   3.629   1.019
14081TIP3   OH242185   5.239   1.383   5.728
14081TIP3    H142186   5.157   1.390   5.777
14081TIP3    H242187   5.255   1.471   5.695
14082TIP3   OH242188   4.999   2.008   4.007
14082TIP3    H142189   5.072   2.065   4.030
14082TIP3    H242190   5.040   1.931   3.967
14083TIP3   OH242191   4.109   2.628   5.926
14083TIP3    H142192   4.025   2.597   5.958
14083TIP3    H242193   4.097   2.723   5.918
14084TIP3   OH242194   2.933   5.783   6.223
14084TIP3    H142195   2.866   5.820   6.281
14084TIP3    H242196   2.941   5.692   6.251
14085TIP3   OH242197   8.256   2.797   0.668
14085TIP3    H142198   8.190   2.747   0.715
14085TIP3    H242199   8.307   2.731   0.620
14086TIP3   OH242200   4.306   0.747   2.255
14086TIP3    H142201   4.366   0.803   2.205
14086TIP3    H242202   4.219   0.778   2.231
14087TIP3   OH242203   4.680   1.118   4.851
14087TIP3    H142204   4.601   1.171   4.844
14087TIP3    H242205   4.713   1.136   4.940
14088TIP3   OH242206   0.596   6.912   5.445
14088TIP3    H142207   0.569   7.002   5.465
14088TIP3    H242208   0.556   6.894   5.360
14089TIP3   OH242209   7.469   6.760   6.055
14089TIP3    H142210   7.439   6.691   6.114
14089TIP3    H242211   7.562   6.741   6.042
14090TIP3   OH242212   1.780   3.323   4.295
14090TIP3    H142213   1.778   3.381   4.371
14090TIP3    H242214   1.754   3.237   4.330
14091TIP3   OH242215   1.577   0.369   0.660
14091TIP3    H142216   1.663   0.326   0.664
14091TIP3    H242217   1.515   0.301   0.687
14092TIP3   OH242218   6.420   2.860   0.813
14092TIP3    H142219   6.408   2.765   0.810
14092TIP3    H242220   6.424   2.881   0.906
14093TIP3   OH242221   3.341   4.373   6.698
14093TIP3    H142222   3.334   4.280   6.676
14093TIP3    H242223   3.385   4.412   6.621
14094TIP3   OH242224   7.866   3.276   6.650
14094TIP3    H142225   7.780   3.278   6.693
14094TIP3    H242226   7.861   3.347   6.585
14095TIP3   OH242227   0.602   2.843   2.714
14095TIP3    H142228   0.662   2.894   2.768
14095TIP3    H242229   0.631   2.753   2.725
14096TIP3   OH242230   4.623   1.039   0.510
14096TIP3    H142231   4.640   1.121   0.556
14096TIP3    H242232   4.709   1.011   0.478
14097TIP3   OH242233   5.264   6.827   2.089
14097TIP3    H142234   5.333   6.893   2.099
14097TIP3    H242235   5.184   6.877   2.077
14098TIP3   OH242236   1.505   2.159   2.826
14098TIP3    H142237   1.484   2.248   2.854
14098TIP3    H242238   1.509   2.109   2.908
14099TIP3   OH242239   1.676   2.147   0.709
14099TIP3    H142240   1.691   2.074   0.769
14099TIP3    H242241   1.720   2.222   0.750
14100TIP3   OH242242   7.834   1.743   3.229
14100TIP3    H142243   7.775   1.672   3.252
14100TIP3    H242244   7.914   1.727   3.280
14101TIP3   OH242245   7.467   2.482   0.939
14101TIP3    H142246   7.457   2.395   0.979
14101TIP3    H242247   7.410   2.480   0.863
14102TIP3   OH242248   0.292   7.685   0.225
14102TIP3    H142249   0.362   7.649   0.280
14102TIP3    H242250   0.335   7.753   0.173
14103TIP3   OH242251   4.576   5.177   5.290
14103TIP3    H142252   4.589   5.139   5.204
14103TIP3    H242253   4.664   5.201   5.320
14104TIP3   OH242254   2.757   4.258   5.315
14104TIP3    H142255   2.828   4.247   5.252
14104TIP3    H242256   2.769   4.187   5.378
14105TIP3   OH242257   0.873   5.835   0.195
14105TIP3    H142258   0.910   5.913   0.154
14105TIP3    H242259   0.948   5.778   0.213
14106TIP3   OH242260   4.684   3.786   2.741
14106TIP3    H142261   4.731   3.803   2.822
14106TIP3    H242262   4.639   3.702   2.756
14107TIP3   OH242263   2.867   0.858   3.756
14107TIP3    H142264   2.791   0.870   3.700
14107TIP3    H242265   2.902   0.773   3.730
14108TIP3   OH242266   2.037   0.022   1.755
14108TIP3    H142267   2.017  -0.070   1.739
14108TIP3    H242268   1.977   0.048   1.825
14109TIP3   OH242269   1.023   7.588   4.642
14109TIP3    H142270   0.957   7.519   4.631
14109TIP3    H242271   1.014   7.614   4.733
14110TIP3   OH242272   6.232   2.720   5.699
14110TIP3    H142273   6.316   2.707   5.656
14110TIP3    H242274   6.251   2.781   5.771
14111TIP3   OH242275   1.062   6.168   6.452
14111TIP3    H142276   0.999   6.231   6.488
14111TIP3    H242277   1.018   6.083   6.459
14112TIP3   OH242278   4.159   1.525   6.508
14112TIP3    H142279   4.133   1.564   6.591
14112TIP3    H242280   4.082   1.534   6.452
14113TIP3   OH242281   4.976   5.185   0.100
14113TIP3    H142282   4.943   5.097   0.081
14113TIP3    H242283   5.059   5.190   0.052
14114TIP3   OH242284   1.789   5.603   1.252
14114TIP3    H142285   1.762   5.517   1.218
14114TIP3    H242286   1.841   5.582   1.330
14115TIP3   OH242287   6.158   2.324   1.076
14115TIP3    H142288   6.170   2.410   1.116
14115TIP3    H242289   6.226   2.318   1.010
14116TIP3   OH242290   3.617   6.038   0.659
14116TIP3    H142291   3.649   5.950   0.639
14116TIP3    H242292   3.543   6.024   0.719
14117TIP3   OH242293   7.016   0.601   3.749
14117TIP3    H142294   7.101   0.563   3.726
14117TIP3    H242295   7.037   0.669   3.814
14118TIP3   OH242296   5.129   6.568   6.420
14118TIP3    H142297   5.040   6.578   6.453
14118TIP3    H242298   5.155   6.480   6.447
14119TIP3   OH242299   6.129   7.576   0.014
14119TIP3    H142300   6.102   7.488   0.037
14119TIP3    H242301   6.200   7.596   0.076
14120TIP3   OH242302   1.584   4.606   2.192
14120TIP3    H142303   1.603   4.655   2.112
14120TIP3    H242304   1.557   4.520   2.162
14121TIP3   OH242305   8.274   7.561   1.282
14121TIP3    H142306   8.335   7.633   1.262
14121TIP3    H242307   8.188   7.595   1.256
14122TIP3   OH242308   8.139   5.815   3.010
14122TIP3    H142309   8.108   5.843   3.096
14122TIP3    H242310   8.156   5.722   3.019
14123TIP3   OH242311   0.098   3.406   4.391
14123TIP3    H142312   0.159   3.451   4.450
14123TIP3    H242313   0.047   3.477   4.351
14124TIP3   OH242314   1.149   3.445   1.662
14124TIP3    H142315   1.092   3.460   1.738
14124TIP3    H242316   1.090   3.437   1.588
14125TIP3   OH242317   3.595   1.548   4.126
14125TIP3    H142318   3.595   1.635   4.166
14125TIP3    H242319   3.540   1.557   4.048
14126TIP3   OH242320   3.556   1.957   6.415
14126TIP3    H142321   3.505   1.942   6.494
14126TIP3    H242322   3.491   1.972   6.347
14127TIP3   OH242323   5.570   7.183   0.381
14127TIP3    H142324   5.508   7.255   0.384
14127TIP3    H242325   5.655   7.224   0.400
14128TIP3   OH242326   7.178   0.380   6.702
14128TIP3    H142327   7.249   0.416   6.755
14128TIP3    H242328   7.169   0.440   6.628
14129TIP3   OH242329   1.541   2.611   1.703
14129TIP3    H142330   1.496   2.654   1.630
14129TIP3    H242331   1.500   2.648   1.781
14130TIP3   OH242332   0.517   6.116   3.436
14130TIP3    H142333   0.525   6.201   3.393
14130TIP3    H242334   0.425   6.092   3.425
14131TIP3   OH242335   1.204   1.018   6.042
14131TIP3    H142336   1.244   0.998   5.957
14131TIP3    H242337   1.133   0.954   6.050
14132TIP3   OH242338   4.110   7.396   0.192
14132TIP3    H142339   4.135   7.317   0.144
14132TIP3    H242340   4.032   7.371   0.241
14133TIP3   OH242341   8.191   3.552   3.624
14133TIP3    H142342   8.262   3.492   3.648
14133TIP3    H242343   8.113   3.498   3.621
14134TIP3   OH242344   5.441   6.078   2.875
14134TIP3    H142345   5.412   5.991   2.849
14134TIP3    H242346   5.522   6.063   2.922
14135TIP3   OH242347   5.727   2.762   3.590
14135TIP3    H142348   5.694   2.772   3.679
14135TIP3    H242349   5.650   2.740   3.538
14136TIP3   OH242350   5.095   7.528   4.293
14136TIP3    H142351   5.166   7.550   4.233
14136TIP3    H242352   5.029   7.597   4.277
14137TIP3   OH242353   8.039   2.121   1.951
14137TIP3    H142354   8.022   2.040   1.901
14137TIP3    H242355   7.953   2.150   1.979
14138TIP3   OH242356   5.393   5.419   0.826
14138TIP3    H142357   5.315   5.454   0.782
14138TIP3    H242358   5.372   5.425   0.919
14139TIP3   OH242359   2.756   1.729   1.493
14139TIP3    H142360   2.689   1.684   1.441
14139TIP3    H242361   2.823   1.662   1.509
14140TIP3   OH242362   7.976   7.465   5.902
14140TIP3    H142363   8.012   7.532   5.960
14140TIP3    H242364   8.006   7.382   5.940
14141TIP3   OH242365   7.209   5.063   5.109
14141TIP3    H142366   7.222   5.057   5.203
14141TIP3    H242367   7.274   5.004   5.071
14142TIP3   OH242368   1.086   5.327   1.719
14142TIP3    H142369   1.035   5.307   1.798
14142TIP3    H242370   1.022   5.365   1.659
14143TIP3   OH242371   2.949   6.235   0.614
14143TIP3    H142372   2.887   6.223   0.686
14143TIP3    H242373   3.014   6.296   0.649
14144TIP3   OH242374   0.660   6.381   0.332
14144TIP3    H142375   0.576   6.382   0.287
14144TIP3    H242376   0.639   6.367   0.424
14145TIP3   OH242377   4.655   3.241   5.676
14145TIP3    H142378   4.695   3.155   5.686
14145TIP3    H242379   4.661   3.260   5.582
14146TIP3   OH242380   7.494   7.307   5.592
14146TIP3    H142381   7.442   7.387   5.586
14146TIP3    H242382   7.478   7.274   5.681
14147TIP3   OH242383   6.313   7.278   3.382
14147TIP3    H142384   6.407   7.268   3.372
14147TIP3    H242385   6.280   7.189   3.396
14148TIP3   OH242386   2.398   0.527   4.902
14148TIP3    H142387   2.449   0.602   4.872
14148TIP3    H242388   2.380   0.476   4.823
14149TIP3   OH242389   4.679   5.433   6.481
14149TIP3    H142390   4.676   5.513   6.429
14149TIP3    H242391   4.707   5.365   6.420
14150TIP3   OH242392   7.183   4.811   4.375
14150TIP3    H142393   7.130   4.794   4.453
14150TIP3    H242394   7.125   4.792   4.301
14151TIP3   OH242395   5.519   6.980   0.226
14151TIP3    H142396   5.551   7.056   0.274
14151TIP3    H242397   5.569   6.981   0.144
14152TIP3   OH242398   5.285   4.425   5.603
14152TIP3    H142399   5.269   4.351   5.545
14152TIP3    H242400   5.326   4.386   5.681
14153TIP3   OH242401   3.835   5.221   4.562
14153TIP3    H142402   3.869   5.145   4.608
14153TIP3    H242403   3.793   5.273   4.630
14154TIP3   OH242404   7.682   1.910   3.067
14154TIP3    H142405   7.747   1.879   3.130
14154TIP3    H242406   7.658   1.997   3.100
14155TIP3   OH242407   3.564   4.152   4.153
14155TIP3    H142408   3.494   4.133   4.092
14155TIP3    H242409   3.529   4.127   4.239
14156TIP3   OH242410   7.450   0.582   0.942
14156TIP3    H142411   7.525   0.533   0.975
14156TIP3    H242412   7.440   0.655   1.003
14157TIP3   OH242413   3.893   3.875   6.611
14157TIP3    H142414   3.940   3.799   6.576
14157TIP3    H242415   3.935   3.891   6.696
14158TIP3   OH242416   1.574   3.086   3.544
14158TIP3    H142417   1.639   3.026   3.506
14158TIP3    H242418   1.504   3.029   3.574
14159TIP3   OH242419   7.567   6.370   1.621
14159TIP3    H142420   7.550   6.400   1.711
14159TIP3    H242421   7.491   6.399   1.572
14160TIP3   OH242422   0.757   3.006   2.886
14160TIP3    H142423   0.719   3.078   2.834
14160TIP3    H242424   0.751   3.036   2.976
14161TIP3   OH242425   3.381   6.025   4.258
14161TIP3    H142426   3.419   6.102   4.299
14161TIP3    H242427   3.326   5.986   4.326
14162TIP3   OH242428   6.717   0.292   3.175
14162TIP3    H142429   6.752   0.213   3.132
14162TIP3    H242430   6.650   0.324   3.115
14163TIP3   OH242431   2.357   4.922   2.351
14163TIP3    H142432   2.338   4.853   2.415
14163TIP3    H242433   2.451   4.912   2.334
14164TIP3   OH242434   8.231   4.527   3.192
14164TIP3    H142435   8.165   4.581   3.235
14164TIP3    H242436   8.234   4.447   3.243
14165TIP3   OH242437   2.750   3.824   5.276
14165TIP3    H142438   2.730   3.857   5.189
14165TIP3    H242439   2.831   3.774   5.264
14166TIP3   OH242440   1.224   1.449   0.211
14166TIP3    H142441   1.197   1.359   0.228
14166TIP3    H242442   1.313   1.455   0.247
14167TIP3   OH242443   8.195   5.724   2.500
14167TIP3    H142444   8.153   5.769   2.573
14167TIP3    H242445   8.252   5.789   2.461
14168TIP3   OH242446   4.478   1.172   0.829
14168TIP3    H142447   4.481   1.077   0.835
14168TIP3    H242448   4.559   1.202   0.869
14169TIP3   OH242449   1.265   6.938   1.177
14169TIP3    H142450   1.254   7.009   1.114
14169TIP3    H242451   1.332   6.969   1.237
14170TIP3   OH242452   4.708   1.406   4.686
14170TIP3    H142453   4.795   1.369   4.701
14170TIP3    H242454   4.657   1.334   4.649
14171TIP3   OH242455   2.259   3.046   2.004
14171TIP3    H142456   2.202   3.121   2.020
14171TIP3    H242457   2.340   3.084   1.970
14172TIP3   OH242458   1.158   3.731   2.683
14172TIP3    H142459   1.195   3.816   2.706
14172TIP3    H242460   1.099   3.710   2.756
14173TIP3   OH242461   2.953   7.362   4.526
14173TIP3    H142462   2.929   7.338   4.616
14173TIP3    H242463   2.888   7.426   4.501
14174TIP3   OH242464   2.955   4.202   5.512
14174TIP3    H142465   3.020   4.191   5.443
14174TIP3    H242466   2.934   4.295   5.511
14175TIP3   OH242467   3.144   1.057   3.443
14175TIP3    H142468   3.075   1.072   3.507
14175TIP3    H242469   3.105   1.082   3.359
14176TIP3   OH242470   2.414   0.674   0.418
14176TIP3    H142471   2.355   0.719   0.358
14176TIP3    H242472   2.467   0.744   0.456
14177TIP3   OH242473   3.038   3.939   5.125
14177TIP3    H142474   3.111   3.966   5.182
14177TIP3    H242475   2.990   4.020   5.107
14178TIP3   OH242476   1.663   4.763   3.878
14178TIP3    H142477   1.723   4.816   3.932
14178TIP3    H242478   1.709   4.753   3.795
14179TIP3   OH242479   4.862   5.504   1.905
14179TIP3    H142480   4.803   5.563   1.952
14179TIP3    H242481   4.826   5.417   1.920
14180TIP3   OH242482   2.750   0.968   0.440
14180TIP3    H142483   2.772   0.880   0.472
14180TIP3    H242484   2.769   0.964   0.346
14181TIP3   OH242485   6.172   0.636   0.880
14181TIP3    H142486   6.235   0.707   0.882
14181TIP3    H242487   6.214   0.565   0.929
14182TIP3   OH242488   7.906   4.518   1.228
14182TIP3    H142489   7.884   4.442   1.175
14182TIP3    H242490   7.832   4.578   1.217
14183TIP3   OH242491   4.093   4.581   1.657
14183TIP3    H142492   4.178   4.617   1.684
14183TIP3    H242493   4.078   4.508   1.718
14184TIP3   OH242494   3.583   1.041   2.289
14184TIP3    H142495   3.544   1.028   2.202
14184TIP3    H242496   3.572   0.957   2.333
14185TIP3   OH242497   4.167   6.652   1.785
14185TIP3    H142498   4.168   6.562   1.752
14185TIP3    H242499   4.170   6.706   1.706
14186TIP3   OH242500   6.597   3.204   6.520
14186TIP3    H142501   6.577   3.115   6.490
14186TIP3    H242502   6.516   3.234   6.561
14187TIP3   OH242503   3.425   2.981   6.745
14187TIP3    H142504   3.438   2.921   6.818
14187TIP3    H242505   3.406   2.924   6.670
14188TIP3   OH242506   1.940   6.197   6.394
14188TIP3    H142507   1.991   6.131   6.440
14188TIP3    H242508   1.912   6.154   6.314
14189TIP3   OH242509   5.615   5.985   1.752
14189TIP3    H142510   5.556   5.911   1.765
14189TIP3    H242511   5.576   6.033   1.679
14190TIP3   OH242512   4.907   4.509   3.407
14190TIP3    H142513   4.945   4.425   3.381
14190TIP3    H242514   4.815   4.488   3.427
14191TIP3   OH242515   7.557   1.386   0.092
14191TIP3    H142516   7.508   1.467   0.079
14191TIP3    H242517   7.582   1.359   0.003
14192TIP3   OH242518   7.703   6.801   6.588
14192TIP3    H142519   7.728   6.714   6.619
14192TIP3    H242520   7.785   6.842   6.563
14193TIP3   OH242521   4.739   0.162   2.804
14193TIP3    H142522   4.828   0.157   2.768
14193TIP3    H242523   4.682   0.147   2.729
14194TIP3   OH242524   4.123   3.434   0.541
14194TIP3    H142525   4.168   3.360   0.500
14194TIP3    H242526   4.041   3.396   0.575
14195TIP3   OH242527   7.044   3.233   4.948
14195TIP3    H142528   7.098   3.162   4.982
14195TIP3    H242529   7.074   3.310   4.996
14196TIP3   OH242530   2.695   3.361   2.582
14196TIP3    H142531   2.725   3.278   2.543
14196TIP3    H242532   2.604   3.370   2.551
14197TIP3   OH242533   8.286   0.157   6.394
14197TIP3    H142534   8.300   0.080   6.339
14197TIP3    H242535   8.255   0.224   6.333
14198TIP3   OH242536   4.795   4.512   3.833
14198TIP3    H142537   4.767   4.531   3.922
14198TIP3    H242538   4.815   4.598   3.795
14199TIP3   OH242539   0.284   2.321   5.439
14199TIP3    H142540   0.360   2.372   5.410
14199TIP3    H242541   0.286   2.329   5.535
14200TIP3   OH242542   5.577   3.387   2.001
14200TIP3    H142543   5.652   3.444   1.980
14200TIP3    H242544   5.562   3.336   1.922
14201TIP3   OH242545   0.541   7.130   4.600
14201TIP3    H142546   0.573   7.043   4.623
14201TIP3    H242547   0.613   7.189   4.622
14202TIP3   OH242548   2.883   4.940   5.364
14202TIP3    H142549   2.920   4.867   5.413
14202TIP3    H242550   2.958   4.986   5.327
14203TIP3   OH242551   6.328   5.206   3.710
14203TIP3    H142552   6.343   5.185   3.802
14203TIP3    H242553   6.279   5.288   3.711
14204TIP3   OH242554   6.303   5.348   3.216
14204TIP3    H142555   6.378   5.406   3.207
14204TIP3    H242556   6.337   5.261   3.198
14205TIP3   OH242557   3.184   6.046   5.241
14205TIP3    H142558   3.177   6.141   5.254
14205TIP3    H242559   3.247   6.018   5.307
14206TIP3   OH242560   2.845   7.221   4.097
14206TIP3    H142561   2.846   7.215   4.001
14206TIP3    H242562   2.929   7.185   4.124
14207TIP3   OH242563   2.878   4.341   0.373
14207TIP3    H142564   2.908   4.266   0.322
14207TIP3    H242565   2.846   4.304   0.455
14208TIP3   OH242566   3.387   3.768   2.352
14208TIP3    H142567   3.421   3.854   2.327
14208TIP3    H242568   3.333   3.741   2.278
14209TIP3   OH242569   6.687   0.250   0.923
14209TIP3    H142570   6.689   0.173   0.866
14209TIP3    H242571   6.603   0.245   0.968
14210TIP3   OH242572   0.458   1.347   4.779
14210TIP3    H142573   0.473   1.423   4.723
14210TIP3    H242574   0.476   1.379   4.867
14211TIP3   OH242575   1.728   2.391   5.074
14211TIP3    H142576   1.821   2.373   5.086
14211TIP3    H242577   1.701   2.436   5.154
14212TIP3   OH242578   2.853   1.366   4.054
14212TIP3    H142579   2.781   1.352   4.115
14212TIP3    H242580   2.811   1.400   3.974
14213TIP3   OH242581   1.027   2.025   0.954
14213TIP3    H142582   0.996   2.061   0.871
14213TIP3    H242583   0.948   1.992   0.996
14214TIP3   OH242584   0.719   0.522   1.494
14214TIP3    H142585   0.633   0.563   1.502
14214TIP3    H242586   0.747   0.543   1.404
14215TIP3   OH242587   7.441   6.776   4.066
14215TIP3    H142588   7.359   6.744   4.103
14215TIP3    H242589   7.415   6.838   3.999
14216TIP3   OH242590   3.643   5.273   4.344
14216TIP3    H142591   3.705   5.241   4.409
14216TIP3    H242592   3.579   5.203   4.335
14217TIP3   OH242593   5.234   7.650   6.484
14217TIP3    H142594   5.164   7.609   6.536
14217TIP3    H242595   5.315   7.620   6.524
14218TIP3   OH242596   4.435   0.188   1.797
14218TIP3    H142597   4.416   0.169   1.889
14218TIP3    H242598   4.481   0.272   1.799
14219TIP3   OH242599   4.504   4.185   5.307
14219TIP3    H142600   4.515   4.275   5.339
14219TIP3    H242601   4.507   4.193   5.212
14220TIP3   OH242602   2.257   5.676   4.179
14220TIP3    H142603   2.274   5.589   4.143
14220TIP3    H242604   2.301   5.736   4.119
14221TIP3   OH242605   8.234   2.596   4.219
14221TIP3    H142606   8.245   2.623   4.128
14221TIP3    H242607   8.140   2.605   4.236
14222TIP3   OH242608   7.407   0.388   4.668
14222TIP3    H142609   7.341   0.428   4.612
14222TIP3    H242610   7.472   0.351   4.607
14223TIP3   OH242611   5.773   2.783   0.822
14223TIP3    H142612   5.826   2.840   0.877
14223TIP3    H242613   5.807   2.695   0.840
14224TIP3   OH242614   2.835   1.062   3.953
14224TIP3    H142615   2.919   1.105   3.935
14224TIP3    H242616   2.828   0.995   3.886
14225TIP3   OH242617   7.725   0.853   0.047
14225TIP3    H142618   7.769   0.935   0.070
14225TIP3    H242619   7.781   0.813  -0.019
14226TIP3   OH242620   7.466   2.411   5.923
14226TIP3    H142621   7.401   2.379   5.985
14226TIP3    H242622   7.440   2.375   5.839
14227TIP3   OH242623   0.468   3.122   4.401
14227TIP3    H142624   0.459   3.053   4.467
14227TIP3    H242625   0.379   3.151   4.384
14228TIP3   OH242626   7.518   4.660   5.621
14228TIP3    H142627   7.546   4.744   5.655
14228TIP3    H242628   7.595   4.623   5.579
14229TIP3   OH242629   2.955   4.979   2.477
14229TIP3    H142630   2.882   4.930   2.439
14229TIP3    H242631   2.924   5.004   2.564
14230TIP3   OH242632   1.710   1.872   2.292
14230TIP3    H142633   1.678   1.956   2.257
14230TIP3    H242634   1.802   1.890   2.315
14231TIP3   OH242635   1.382   7.316   6.076
14231TIP3    H142636   1.444   7.375   6.033
14231TIP3    H242637   1.313   7.374   6.109
14232TIP3   OH242638   4.885   0.851   3.289
14232TIP3    H142639   4.916   0.938   3.265
14232TIP3    H242640   4.865   0.809   3.206
14233TIP3   OH242641   5.171   0.093   3.895
14233TIP3    H142642   5.194   0.082   3.988
14233TIP3    H242643   5.131   0.180   3.891
14234TIP3   OH242644   6.796   2.975   1.370
14234TIP3    H142645   6.734   3.036   1.410
14234TIP3    H242646   6.773   2.890   1.408
14235TIP3   OH242647   5.586   4.549   4.766
14235TIP3    H142648   5.591   4.552   4.861
14235TIP3    H242649   5.650   4.483   4.740
14236TIP3   OH242650   6.841   2.269   6.201
14236TIP3    H142651   6.768   2.231   6.153
14236TIP3    H242652   6.840   2.361   6.178
14237TIP3   OH242653   4.774   1.976   6.276
14237TIP3    H142654   4.843   1.959   6.213
14237TIP3    H242655   4.694   1.942   6.234
14238TIP3   OH242656   6.568   4.193   0.284
14238TIP3    H142657   6.595   4.237   0.364
14238TIP3    H242658   6.524   4.114   0.313
14239TIP3   OH242659   7.610   3.628   3.924
14239TIP3    H142660   7.700   3.659   3.934
14239TIP3    H242661   7.589   3.588   4.009
14240TIP3   OH242662   2.043   2.514   0.031
14240TIP3    H142663   2.054   2.602   0.068
14240TIP3    H242664   2.133   2.483   0.018
14241TIP3   OH242665   0.550   0.361   3.574
14241TIP3    H142666   0.518   0.432   3.629
14241TIP3    H242667   0.560   0.287   3.634
14242TIP3   OH242668   0.444   1.619   6.283
14242TIP3    H142669   0.535   1.645   6.292
14242TIP3    H242670   0.437   1.538   6.334
14243TIP3   OH242671   2.723   4.746   3.300
14243TIP3    H142672   2.797   4.736   3.360
14243TIP3    H242673   2.695   4.657   3.281
14244TIP3   OH242674   6.208   1.489   4.023
14244TIP3    H142675   6.186   1.446   3.940
14244TIP3    H242676   6.276   1.434   4.061
14245TIP3   OH242677   7.099   0.920   6.102
14245TIP3    H142678   7.039   0.888   6.033
14245TIP3    H242679   7.048   0.986   6.149
14246TIP3   OH242680   1.843   6.198   0.134
14246TIP3    H142681   1.882   6.255   0.200
14246TIP3    H242682   1.756   6.235   0.118
14247TIP3   OH242683   4.132   3.219   3.287
14247TIP3    H142684   4.159   3.304   3.323
14247TIP3    H242685   4.100   3.170   3.363
14248TIP3   OH242686   5.410   6.717   4.001
14248TIP3    H142687   5.504   6.717   3.984
14248TIP3    H242688   5.387   6.810   4.009
14249TIP3   OH242689   3.025   2.785   5.446
14249TIP3    H142690   3.088   2.855   5.461
14249TIP3    H242691   2.973   2.782   5.527
14250TIP3   OH242692   3.281   3.650   6.084
14250TIP3    H142693   3.312   3.716   6.022
14250TIP3    H242694   3.297   3.688   6.170
14251TIP3   OH242695   8.110   3.084   3.051
14251TIP3    H142696   8.163   3.059   2.975
14251TIP3    H242697   8.150   3.036   3.124
14252TIP3   OH242698   6.464   0.190   3.477
14252TIP3    H142699   6.400   0.244   3.523
14252TIP3    H242700   6.545   0.240   3.481
14253TIP3   OH242701   4.749   0.314   4.536
14253TIP3    H142702   4.826   0.340   4.587
14253TIP3    H242703   4.680   0.372   4.567
14254TIP3   OH242704   6.961   1.501   3.139
14254TIP3    H142705   6.963   1.406   3.155
14254TIP3    H242706   7.039   1.518   3.087
14255TIP3   OH242707   2.576   0.397   3.874
14255TIP3    H142708   2.610   0.362   3.792
14255TIP3    H242709   2.521   0.471   3.848
14256TIP3   OH242710   8.277   2.792   1.021
14256TIP3    H142711   8.254   2.700   1.032
14256TIP3    H242712   8.373   2.793   1.023
14257TIP3   OH242713   1.893   6.977   2.202
14257TIP3    H142714   1.943   6.907   2.244
14257TIP3    H242715   1.840   6.932   2.136
14258TIP3   OH242716   5.399   1.405   1.651
14258TIP3    H142717   5.324   1.358   1.615
14258TIP3    H242718   5.429   1.461   1.580
14259TIP3   OH242719   2.733   2.386   0.914
14259TIP3    H142720   2.693   2.461   0.958
14259TIP3    H242721   2.749   2.322   0.983
14260TIP3   OH242722   7.899   1.716   6.408
14260TIP3    H142723   7.892   1.802   6.450
14260TIP3    H242724   7.951   1.664   6.470
14261TIP3   OH242725   2.968   5.867   3.428
14261TIP3    H142726   2.983   5.904   3.341
14261TIP3    H242727   3.043   5.898   3.480
14262TIP3   OH242728   3.275   5.822   2.625
14262TIP3    H142729   3.299   5.795   2.713
14262TIP3    H242730   3.333   5.772   2.567
14263TIP3   OH242731   4.060   1.558   4.689
14263TIP3    H142732   4.123   1.588   4.755
14263TIP3    H242733   3.981   1.537   4.739
14264TIP3   OH242734   7.723   5.004   1.575
14264TIP3    H142735   7.802   4.951   1.578
14264TIP3    H242736   7.680   4.988   1.659
14265TIP3   OH242737   0.206   4.470   2.772
14265TIP3    H142738   0.201   4.385   2.816
14265TIP3    H242739   0.116   4.488   2.745
14266TIP3   OH242740   4.673   0.459   5.837
14266TIP3    H142741   4.679   0.500   5.924
14266TIP3    H242742   4.702   0.528   5.777
14267TIP3   OH242743   5.494   2.933   0.326
14267TIP3    H142744   5.558   2.975   0.268
14267TIP3    H242745   5.427   3.000   0.340
14268TIP3   OH242746   5.071   7.463   5.907
14268TIP3    H142747   5.014   7.393   5.875
14268TIP3    H242748   5.158   7.422   5.913
14269TIP3   OH242749   2.113   7.610   2.278
14269TIP3    H142750   2.094   7.534   2.333
14269TIP3    H242751   2.168   7.666   2.333
14270TIP3   OH242752   2.755   0.308   6.614
14270TIP3    H142753   2.844   0.273   6.607
14270TIP3    H242754   2.756   0.387   6.559
14271TIP3   OH242755   3.909   1.708   0.336
14271TIP3    H142756   3.890   1.742   0.248
14271TIP3    H242757   3.981   1.646   0.322
14272TIP3   OH242758   2.026   5.002   4.663
14272TIP3    H142759   2.000   4.912   4.679
14272TIP3    H242760   1.944   5.048   4.643
14273TIP3   OH242761   6.948   2.925   0.713
14273TIP3    H142762   7.012   2.964   0.653
14273TIP3    H242763   6.933   2.992   0.779
14274TIP3   OH242764   0.546   2.028   6.446
14274TIP3    H142765   0.580   2.116   6.430
14274TIP3    H242766   0.624   1.972   6.451
14275TIP3   OH242767   3.042   3.444   1.663
14275TIP3    H142768   2.973   3.480   1.608
14275TIP3    H242769   3.123   3.463   1.615
14276TIP3   OH242770   2.650   6.675   5.854
14276TIP3    H142771   2.741   6.647   5.853
14276TIP3    H242772   2.617   6.652   5.767
14277TIP3   OH242773   5.379   6.607   1.466
14277TIP3    H142774   5.447   6.673   1.479
14277TIP3    H242775   5.318   6.648   1.405
14278TIP3   OH242776   7.312   3.067   3.014
14278TIP3    H142777   7.289   3.138   3.074
14278TIP3    H242778   7.261   2.992   3.044
14279TIP3   OH242779   4.095   3.884   0.901
14279TIP3    H142780   4.005   3.916   0.907
14279TIP3    H242781   4.122   3.872   0.992
14280TIP3   OH242782   6.182   4.623   5.286
14280TIP3    H142783   6.245   4.629   5.213
14280TIP3    H242784   6.217   4.554   5.342
14281TIP3   OH242785   3.128   6.750   3.157
14281TIP3    H142786   3.072   6.703   3.095
14281TIP3    H242787   3.196   6.687   3.180
14282TIP3   OH242788   2.557   2.469   0.204
14282TIP3    H142789   2.612   2.530   0.253
14282TIP3    H242790   2.528   2.405   0.269
14283TIP3   OH242791   3.900   1.553   2.456
14283TIP3    H142792   3.839   1.511   2.395
14283TIP3    H242793   3.956   1.607   2.400
14284TIP3   OH242794   3.011   5.221   1.878
14284TIP3    H142795   2.945   5.155   1.900
14284TIP3    H242796   3.058   5.236   1.960
14285TIP3   OH242797   7.678   4.840   3.249
14285TIP3    H142798   7.755   4.813   3.299
14285TIP3    H242799   7.689   4.935   3.237
14286TIP3   OH242800   7.364   5.862   5.532
14286TIP3    H142801   7.353   5.768   5.522
14286TIP3    H242802   7.443   5.872   5.585
14287TIP3   OH242803   1.983   6.376   0.584
14287TIP3    H142804   2.018   6.291   0.559
14287TIP3    H242805   1.912   6.357   0.644
14288TIP3   OH242806   6.354   1.079   4.292
14288TIP3    H142807   6.273   1.029   4.300
14288TIP3    H242808   6.404   1.033   4.224
14289TIP3   OH242809   8.029   0.788   4.710
14289TIP3    H142810   7.969   0.860   4.731
14289TIP3    H242811   7.979   0.709   4.729
14290TIP3   OH242812   4.431   7.653   4.524
14290TIP3    H142813   4.463   7.737   4.490
14290TIP3    H242814   4.488   7.588   4.484
14291TIP3   OH242815   8.119   7.105   0.619
14291TIP3    H142816   8.037   7.055   0.615
14291TIP3    H242817   8.116   7.162   0.542
14292TIP3   OH242818   6.096   5.775   4.429
14292TIP3    H142819   6.150   5.698   4.448
14292TIP3    H242820   6.156   5.837   4.387
14293TIP3   OH242821   5.579   2.042   5.130
14293TIP3    H142822   5.569   2.119   5.075
14293TIP3    H242823   5.622   2.075   5.209
14294TIP3   OH242824   5.125   3.389   4.793
14294TIP3    H142825   5.116   3.481   4.770
14294TIP3    H242826   5.082   3.342   4.721
14295TIP3   OH242827   3.342   4.106   5.037
14295TIP3    H142828   3.275   4.069   4.979
14295TIP3    H242829   3.416   4.045   5.030
14296TIP3   OH242830   5.623   5.245   1.533
14296TIP3    H142831   5.534   5.210   1.535
14296TIP3    H242832   5.616   5.329   1.578
14297TIP3   OH242833   7.717   4.219   4.141
14297TIP3    H142834   7.641   4.231   4.084
14297TIP3    H242835   7.792   4.241   4.086
14298TIP3   OH242836   7.035   5.688   4.107
14298TIP3    H142837   7.001   5.603   4.079
14298TIP3    H242838   6.965   5.750   4.088
14299TIP3   OH242839   6.522   7.045   4.541
14299TIP3    H142840   6.459   6.997   4.596
14299TIP3    H242841   6.469   7.112   4.498
14300TIP3   OH242842   1.846   0.068   1.971
14300TIP3    H142843   1.759   0.068   2.011
14300TIP3    H242844   1.905   0.038   2.041
14301TIP3   OH242845   0.736   2.014   1.364
14301TIP3    H142846   0.809   2.012   1.426
14301TIP3    H242847   0.728   1.925   1.332
14302TIP3   OH242848   5.094   2.787   5.417
14302TIP3    H142849   5.102   2.838   5.497
14302TIP3    H242850   5.102   2.851   5.346
14303TIP3   OH242851   3.322   0.440   2.013
14303TIP3    H142852   3.317   0.344   2.020
14303TIP3    H242853   3.383   0.466   2.082
14304TIP3   OH242854   0.361   0.213   1.702
14304TIP3    H142855   0.436   0.168   1.664
14304TIP3    H242856   0.298   0.143   1.721
14305TIP3   OH242857   3.678   3.488   6.091
14305TIP3    H142858   3.725   3.571   6.096
14305TIP3    H242859   3.605   3.506   6.031
14306TIP3   OH242860   0.780   6.335   3.141
14306TIP3    H142861   0.803   6.384   3.062
14306TIP3    H242862   0.852   6.272   3.151
14307TIP3   OH242863   5.321   5.974   5.377
14307TIP3    H142864   5.305   5.932   5.292
14307TIP3    H242865   5.233   5.996   5.410
14308TIP3   OH242866   3.418   5.922   3.999
14308TIP3    H142867   3.386   5.832   3.995
14308TIP3    H242868   3.387   5.954   4.084
14309TIP3   OH242869   5.377   6.137   0.963
14309TIP3    H142870   5.331   6.187   0.895
14309TIP3    H242871   5.469   6.158   0.951
14310TIP3   OH242872   5.014   7.119   4.930
14310TIP3    H142873   4.997   7.209   4.960
14310TIP3    H242874   5.107   7.106   4.946
14311TIP3   OH242875   0.435   7.300   4.430
14311TIP3    H142876   0.446   7.230   4.495
14311TIP3    H242877   0.454   7.380   4.477
14312TIP3   OH242878   5.374   0.855   2.976
14312TIP3    H142879   5.380   0.832   3.069
14312TIP3    H242880   5.422   0.937   2.968
14313TIP3   OH242881   3.888   5.914   2.878
14313TIP3    H142882   3.949   5.922   2.804
14313TIP3    H242883   3.925   5.971   2.946
14314TIP3   OH242884   6.358   2.133   2.071
14314TIP3    H142885   6.355   2.044   2.035
14314TIP3    H242886   6.299   2.183   2.014
14315TIP3   OH242887   4.757   6.150   4.713
14315TIP3    H142888   4.673   6.194   4.695
14315TIP3    H242889   4.785   6.117   4.628
14316TIP3   OH242890   0.806   2.614   3.776
14316TIP3    H142891   0.759   2.664   3.843
14316TIP3    H242892   0.752   2.536   3.762
14317TIP3   OH242893   0.643   2.189   1.807
14317TIP3    H142894   0.643   2.279   1.840
14317TIP3    H242895   0.646   2.198   1.712
14318TIP3   OH242896   7.146   6.562   0.822
14318TIP3    H142897   7.141   6.489   0.760
14318TIP3    H242898   7.238   6.587   0.823
14319TIP3   OH242899   6.357   4.885   1.195
14319TIP3    H142900   6.357   4.849   1.284
14319TIP3    H242901   6.348   4.809   1.138
14320TIP3   OH242902   7.469   5.220   3.604
14320TIP3    H142903   7.382   5.258   3.619
14320TIP3    H242904   7.451   5.129   3.580
14321TIP3   OH242905   5.736   0.041   4.225
14321TIP3    H142906   5.696   0.111   4.173
14321TIP3    H242907   5.668  -0.026   4.230
14322TIP3   OH242908   1.873   0.442   2.868
14322TIP3    H142909   1.918   0.524   2.887
14322TIP3    H242910   1.804   0.437   2.934
14323TIP3   OH242911   1.941   7.771   6.636
14323TIP3    H142912   2.036   7.766   6.647
14323TIP3    H242913   1.906   7.710   6.701
14324TIP3   OH242914   0.461   0.902   0.635
14324TIP3    H142915   0.391   0.961   0.664
14324TIP3    H242916   0.538   0.958   0.627
14325TIP3   OH242917   5.988   2.217   3.327
14325TIP3    H142918   6.016   2.246   3.413
14325TIP3    H242919   6.062   2.169   3.292
14326TIP3   OH242920   7.933   5.204   5.153
14326TIP3    H142921   7.905   5.244   5.071
14326TIP3    H242922   8.028   5.216   5.153
14327TIP3   OH242923   8.176   2.598   6.001
14327TIP3    H142924   8.110   2.611   5.933
14327TIP3    H242925   8.133   2.543   6.066
14328TIP3   OH242926   5.046   7.559   6.666
14328TIP3    H142927   5.007   7.600   6.743
14328TIP3    H242928   5.084   7.477   6.698
14329TIP3   OH242929   0.693   5.882   5.834
14329TIP3    H142930   0.604   5.903   5.803
14329TIP3    H242931   0.710   5.795   5.799
14330TIP3   OH242932   3.755   1.747   4.739
14330TIP3    H142933   3.769   1.653   4.747
14330TIP3    H242934   3.808   1.786   4.808
14331TIP3   OH242935   7.952   0.874   1.110
14331TIP3    H142936   7.935   0.895   1.019
14331TIP3    H242937   7.922   0.951   1.158
14332TIP3   OH242938   1.899   1.532   5.043
14332TIP3    H142939   1.860   1.616   5.019
14332TIP3    H242940   1.958   1.512   4.970
14333TIP3   OH242941   1.701   2.775   1.982
14333TIP3    H142942   1.700   2.828   2.062
14333TIP3    H242943   1.647   2.825   1.920
14334TIP3   OH242944   4.388   6.268   2.273
14334TIP3    H142945   4.418   6.311   2.193
14334TIP3    H242946   4.376   6.176   2.249
14335TIP3   OH242947   5.325   6.665   1.102
14335TIP3    H142948   5.290   6.622   1.180
14335TIP3    H242949   5.247   6.692   1.053
14336TIP3   OH242950   2.642   2.163   2.582
14336TIP3    H142951   2.553   2.131   2.594
14336TIP3    H242952   2.638   2.216   2.501
14337TIP3   OH242953   0.037   6.580   4.734
14337TIP3    H142954  -0.045   6.545   4.698
14337TIP3    H242955   0.055   6.523   4.809
14338TIP3   OH242956   4.303   1.624   2.383
14338TIP3    H142957   4.311   1.571   2.463
14338TIP3    H242958   4.389   1.618   2.342
14339TIP3   OH242959   7.209   7.552   3.682
14339TIP3    H142960   7.140   7.487   3.668
14339TIP3    H242961   7.173   7.633   3.646
14340TIP3   OH242962   0.536   4.987   0.286
14340TIP3    H142963   0.537   4.914   0.224
14340TIP3    H242964   0.627   5.019   0.287
14341TIP3   OH242965   3.529   5.350   2.250
14341TIP3    H142966   3.466   5.279   2.260
14341TIP3    H242967   3.548   5.378   2.340
14342TIP3   OH242968   6.364   1.365   3.685
14342TIP3    H142969   6.381   1.328   3.598
14342TIP3    H242970   6.376   1.291   3.744
14343TIP3   OH242971   1.426   3.165   0.578
14343TIP3    H142972   1.343   3.138   0.618
14343TIP3    H242973   1.400   3.206   0.495
14344TIP3   OH242974   0.921   1.512   5.193
14344TIP3    H142975   0.879   1.597   5.182
14344TIP3    H242976   0.853   1.455   5.230
14345TIP3   OH242977   7.177   2.127   0.123
14345TIP3    H142978   7.202   2.213   0.089
14345TIP3    H242979   7.116   2.093   0.058
14346TIP3   OH242980   6.134   4.763   1.616
14346TIP3    H142981   6.054   4.712   1.626
14346TIP3    H242982   6.164   4.779   1.706
14347TIP3   OH242983   7.907   5.116   3.959
14347TIP3    H142984   7.887   5.183   3.894
14347TIP3    H242985   7.996   5.088   3.938
14348TIP3   OH242986   2.798   3.360   1.500
14348TIP3    H142987   2.791   3.452   1.475
14348TIP3    H242988   2.708   3.328   1.502
14349TIP3   OH242989   7.970   0.344   1.847
14349TIP3    H142990   7.979   0.302   1.933
14349TIP3    H242991   7.977   0.271   1.785
14350TIP3   OH242992   3.771   2.857   5.572
14350TIP3    H142993   3.806   2.776   5.535
14350TIP3    H242994   3.767   2.840   5.667
14351TIP3   OH242995   7.227   1.851   5.347
14351TIP3    H142996   7.156   1.811   5.396
14351TIP3    H242997   7.257   1.782   5.288
14352TIP3   OH242998   2.411   1.011   5.781
14352TIP3    H142999   2.378   0.993   5.693
14352TIP3    H243000   2.475   1.081   5.768
14353TIP3   OH243001   2.916   0.537   4.671
14353TIP3    H143002   2.850   0.480   4.711
14353TIP3    H243003   2.924   0.506   4.581
14354TIP3   OH243004   3.745   4.135   3.581
14354TIP3    H143005   3.785   4.207   3.533
14354TIP3    H243006   3.806   4.118   3.653
14355TIP3   OH243007   6.242   5.658   2.878
14355TIP3    H143008   6.184   5.710   2.822
14355TIP3    H243009   6.279   5.720   2.940
14356TIP3   OH243010   4.915   4.470   6.620
14356TIP3    H143011   4.951   4.423   6.545
14356TIP3    H243012   4.917   4.562   6.594
14357TIP3   OH243013   0.214   0.855   2.044
14357TIP3    H143014   0.273   0.780   2.046
14357TIP3    H243015   0.130   0.820   2.015
14358TIP3   OH243016   0.863   1.455   1.908
14358TIP3    H143017   0.838   1.376   1.861
14358TIP3    H243018   0.789   1.515   1.897
14359TIP3   OH243019   2.407   3.075   4.961
14359TIP3    H143020   2.441   3.037   4.880
14359TIP3    H243021   2.415   3.005   5.026
14360TIP3   OH243022   5.178   1.003   6.078
14360TIP3    H143023   5.257   1.031   6.125
14360TIP3    H243024   5.105   1.037   6.130
14361TIP3   OH243025   1.766   4.138   1.970
14361TIP3    H143026   1.842   4.195   1.981
14361TIP3    H243027   1.722   4.172   1.891
14362TIP3   OH243028   7.090   1.272   3.234
14362TIP3    H143029   7.141   1.211   3.179
14362TIP3    H243030   7.151   1.342   3.256
14363TIP3   OH243031   7.014   4.817   4.604
14363TIP3    H143032   6.968   4.736   4.623
14363TIP3    H243033   7.011   4.866   4.686
14364TIP3   OH243034   5.600   3.390   1.443
14364TIP3    H143035   5.677   3.342   1.472
14364TIP3    H243036   5.602   3.472   1.492
14365TIP3   OH243037   0.898   2.349   1.649
14365TIP3    H143038   0.825   2.316   1.596
14365TIP3    H243039   0.976   2.313   1.607
14366TIP3   OH243040   1.410   2.589   3.656
14366TIP3    H143041   1.490   2.626   3.619
14366TIP3    H243042   1.428   2.495   3.664
14367TIP3   OH243043   0.042   7.295   2.773
14367TIP3    H143044   0.098   7.366   2.742
14367TIP3    H243045   0.003   7.258   2.693
14368TIP3   OH243046   6.657   3.988   2.321
14368TIP3    H143047   6.644   3.896   2.302
14368TIP3    H243048   6.618   4.034   2.247
14369TIP3   OH243049   1.896   7.789   4.047
14369TIP3    H143050   1.873   7.859   3.985
14369TIP3    H243051   1.985   7.764   4.021
14370TIP3   OH243052   5.058   6.703   4.301
14370TIP3    H143053   5.022   6.792   4.299
14370TIP3    H243054   4.983   6.647   4.315
14371TIP3   OH243055   4.619   1.956   3.551
14371TIP3    H143056   4.525   1.969   3.546
14371TIP3    H243057   4.656   2.032   3.506
14372TIP3   OH243058   1.765   0.912   2.121
14372TIP3    H143059   1.849   0.957   2.126
14372TIP3    H243060   1.699   0.981   2.127
14373TIP3   OH243061   5.614   3.148   2.704
14373TIP3    H143062   5.562   3.068   2.708
14373TIP3    H243063   5.682   3.129   2.639
14374TIP3   OH243064   2.906   0.198   2.913
14374TIP3    H143065   2.930   0.221   3.003
14374TIP3    H243066   2.832   0.255   2.892
14375TIP3   OH243067   4.187   5.040   0.214
14375TIP3    H143068   4.107   5.030   0.162
14375TIP3    H243069   4.163   5.013   0.302
14376TIP3   OH243070   1.494   7.577   1.664
14376TIP3    H143071   1.457   7.615   1.743
14376TIP3    H243072   1.589   7.590   1.674
14377TIP3   OH243073   0.734   0.575   3.824
14377TIP3    H143074   0.753   0.485   3.853
14377TIP3    H243075   0.746   0.628   3.902
14378TIP3   OH243076   6.688   2.363   2.246
14378TIP3    H143077   6.614   2.376   2.187
14378TIP3    H243078   6.733   2.286   2.211
14379TIP3   OH243079   2.194   0.728   5.608
14379TIP3    H143080   2.172   0.810   5.652
14379TIP3    H243081   2.179   0.661   5.674
14380TIP3   OH243082   5.595   6.671   1.184
14380TIP3    H143083   5.504   6.688   1.160
14380TIP3    H243084   5.600   6.697   1.277
14381TIP3   OH243085   2.474   4.040   2.772
14381TIP3    H143086   2.502   4.117   2.723
14381TIP3    H243087   2.380   4.035   2.757
14382TIP3   OH243088   1.012   0.310   4.199
14382TIP3    H143089   0.925   0.323   4.237
14382TIP3    H243090   1.065   0.276   4.272
14383TIP3   OH243091   1.774   7.314   6.695
14383TIP3    H143092   1.860   7.352   6.712
14383TIP3    H243093   1.785   7.265   6.614
14384TIP3   OH243094   0.218   2.384   4.152
14384TIP3    H143095   0.129   2.350   4.143
14384TIP3    H243096   0.274   2.306   4.147
14385TIP3   OH243097   0.197   1.121   4.299
14385TIP3    H143098   0.211   1.027   4.311
14385TIP3    H243099   0.150   1.149   4.377
14386TIP3   OH243100   2.823   4.439   6.759
14386TIP3    H143101   2.904   4.436   6.708
14386TIP3    H243102   2.821   4.528   6.795
14387TIP3   OH243103   1.757   7.682   5.520
14387TIP3    H143104   1.702   7.604   5.515
14387TIP3    H243105   1.761   7.714   5.430
14388TIP3   OH243106   7.713   2.007   0.041
14388TIP3    H143107   7.661   2.087   0.041
14388TIP3    H243108   7.784   2.025   0.103
14389TIP3   OH243109   6.628   1.172   4.793
14389TIP3    H143110   6.643   1.202   4.703
14389TIP3    H243111   6.636   1.251   4.846
14390TIP3   OH243112   3.835   7.307   5.430
14390TIP3    H143113   3.745   7.325   5.403
14390TIP3    H243114   3.827   7.246   5.503
14391TIP3   OH243115   2.413   7.254   5.723
14391TIP3    H143116   2.499   7.216   5.740
14391TIP3    H243117   2.431   7.344   5.695
14392TIP3   OH243118   4.434   3.671   6.493
14392TIP3    H143119   4.459   3.611   6.422
14392TIP3    H243120   4.450   3.620   6.573
14393TIP3   OH243121   6.709   3.664   3.473
14393TIP3    H143122   6.709   3.651   3.568
14393TIP3    H243123   6.697   3.758   3.462
14394TIP3   OH243124   5.503   3.616   1.582
14394TIP3    H143125   5.415   3.584   1.601
14394TIP3    H243126   5.491   3.683   1.514
14395TIP3   OH243127   5.691   4.501   6.281
14395TIP3    H143128   5.718   4.593   6.284
14395TIP3    H243129   5.773   4.453   6.269
14396TIP3   OH243130   1.568   5.040   0.584
14396TIP3    H143131   1.499   4.991   0.630
14396TIP3    H243132   1.539   5.042   0.493
14397TIP3   OH243133   3.498   6.393   0.251
14397TIP3    H143134   3.482   6.353   0.166
14397TIP3    H243135   3.551   6.328   0.299
14398TIP3   OH243136   6.944   3.840   5.980
14398TIP3    H143137   7.003   3.898   6.027
14398TIP3    H243138   6.907   3.783   6.048
14399TIP3   OH243139   0.229   7.370   1.177
14399TIP3    H143140   0.213   7.458   1.211
14399TIP3    H243141   0.153   7.352   1.121
14400TIP3   OH243142   6.309   5.870   0.106
14400TIP3    H143143   6.336   5.953   0.145
14400TIP3    H243144   6.223   5.853   0.144
14401TIP3   OH243145   3.779   7.114   6.413
14401TIP3    H143146   3.855   7.071   6.374
14401TIP3    H243147   3.715   7.117   6.342
14402TIP3   OH243148   5.544   4.311   1.089
14402TIP3    H143149   5.506   4.391   1.125
14402TIP3    H243150   5.477   4.276   1.031
14403TIP3   OH243151   5.531   1.273   0.804
14403TIP3    H143152   5.534   1.278   0.900
14403TIP3    H243153   5.584   1.196   0.783
14404TIP3   OH243154   0.899   5.211   3.192
14404TIP3    H143155   0.825   5.206   3.132
14404TIP3    H243156   0.896   5.301   3.226
14405TIP3   OH243157   5.066   0.378   3.192
14405TIP3    H143158   4.971   0.393   3.195
14405TIP3    H243159   5.078   0.293   3.234
14406TIP3   OH243160   7.699   7.478   4.814
14406TIP3    H143161   7.659   7.529   4.744
14406TIP3    H243162   7.633   7.413   4.838
14407TIP3   OH243163   3.105   6.515   5.233
14407TIP3    H143164   3.156   6.435   5.245
14407TIP3    H243165   3.100   6.528   5.139
14408TIP3   OH243166   6.521   7.542   3.414
14408TIP3    H143167   6.536   7.578   3.326
14408TIP3    H243168   6.455   7.599   3.452
14409TIP3   OH243169   6.485   5.446   1.421
14409TIP3    H143170   6.415   5.405   1.472
14409TIP3    H243171   6.439   5.504   1.360
14410TIP3   OH243172   4.122   4.094   0.033
14410TIP3    H143173   4.174   4.031  -0.018
14410TIP3    H243174   4.164   4.178   0.018
14411TIP3   OH243175   6.970   6.834   2.920
14411TIP3    H143176   6.943   6.926   2.917
14411TIP3    H243177   7.042   6.828   2.857
14412TIP3   OH243178   6.921   5.233   3.450
14412TIP3    H143179   6.857   5.303   3.461
14412TIP3    H243180   6.941   5.203   3.538
14413TIP3   OH243181   3.266   6.274   0.478
14413TIP3    H143182   3.253   6.288   0.384
14413TIP3    H243183   3.216   6.344   0.520
14414TIP3   OH243184   6.864   0.899   3.336
14414TIP3    H143185   6.937   0.868   3.390
14414TIP3    H243186   6.870   0.995   3.342
14415TIP3   OH243187   0.887   3.346   4.412
14415TIP3    H143188   0.952   3.303   4.467
14415TIP3    H243189   0.937   3.406   4.357
14416TIP3   OH243190   0.169   5.552   3.653
14416TIP3    H143191   0.241   5.490   3.639
14416TIP3    H243192   0.208   5.624   3.703
14417TIP3   OH243193   2.579   3.698   4.750
14417TIP3    H143194   2.547   3.657   4.670
14417TIP3    H243195   2.642   3.764   4.719
14418TIP3   OH243196   4.729   3.272   3.576
14418TIP3    H143197   4.693   3.201   3.523
14418TIP3    H243198   4.660   3.291   3.640
14419TIP3   OH243199   4.362   1.819   3.959
14419TIP3    H143200   4.435   1.862   3.915
14419TIP3    H243201   4.403   1.759   4.021
14420TIP3   OH243202   0.770   4.349   3.518
14420TIP3    H143203   0.712   4.331   3.592
14420TIP3    H243204   0.738   4.431   3.480
14421TIP3   OH243205   2.564   4.466   1.313
14421TIP3    H143206   2.552   4.492   1.222
14421TIP3    H243207   2.475   4.450   1.345
14422TIP3   OH243208   6.986   6.282   1.020
14422TIP3    H143209   6.908   6.321   0.981
14422TIP3    H243210   7.052   6.288   0.951
14423TIP3   OH243211   0.443   6.491   1.701
14423TIP3    H143212   0.369   6.432   1.688
14423TIP3    H243213   0.405   6.568   1.744
14424TIP3   OH243214   6.184   4.286   3.209
14424TIP3    H143215   6.209   4.376   3.187
14424TIP3    H243216   6.238   4.231   3.152
14425TIP3   OH243217   7.202   4.399   3.024
14425TIP3    H143218   7.186   4.405   3.118
14425TIP3    H243219   7.259   4.473   3.004
14426TIP3   OH243220   5.463   2.305   4.504
14426TIP3    H143221   5.556   2.328   4.499
14426TIP3    H243222   5.460   2.211   4.489
14427TIP3   OH243223   8.104   4.765   5.454
14427TIP3    H143224   8.133   4.779   5.364
14427TIP3    H243225   8.029   4.706   5.447
14428TIP3   OH243226   6.573   1.933   5.214
14428TIP3    H143227   6.617   1.879   5.280
14428TIP3    H243228   6.499   1.880   5.185
14429TIP3   OH243229   5.001   5.816   5.013
14429TIP3    H143230   5.028   5.752   4.947
14429TIP3    H243231   4.965   5.764   5.084
14430TIP3   OH243232   8.161   6.560   5.209
14430TIP3    H143233   8.217   6.635   5.190
14430TIP3    H243234   8.140   6.568   5.302
14431TIP3   OH243235   0.000   0.464   5.073
14431TIP3    H143236   0.042   0.549   5.080
14431TIP3    H243237   0.042   0.411   5.140
14432TIP3   OH243238   0.913   1.947   3.005
14432TIP3    H143239   0.832   1.992   3.027
14432TIP3    H243240   0.954   2.002   2.938
14433TIP3   OH243241   2.332   7.727   6.472
14433TIP3    H143242   2.319   7.640   6.434
14433TIP3    H243243   2.419   7.753   6.443
14434TIP3   OH243244   4.671   1.577   1.129
14434TIP3    H143245   4.718   1.521   1.067
14434TIP3    H243246   4.581   1.544   1.128
14435TIP3   OH243247   6.050   2.707   2.430
14435TIP3    H143248   6.044   2.613   2.413
14435TIP3    H243249   5.981   2.747   2.377
14436TIP3   OH243250   0.700   0.937   1.634
14436TIP3    H143251   0.657   0.924   1.549
14436TIP3    H243252   0.634   0.982   1.687
14437TIP3   OH243253   6.432   1.550   2.790
14437TIP3    H143254   6.444   1.529   2.697
14437TIP3    H243255   6.493   1.492   2.835
14438TIP3   OH243256   5.569   1.859   4.216
14438TIP3    H143257   5.538   1.778   4.256
14438TIP3    H243258   5.616   1.830   4.138
14439TIP3   OH243259   7.724   7.183   4.495
14439TIP3    H143260   7.638   7.221   4.515
14439TIP3    H243261   7.718   7.093   4.525
14440TIP3   OH243262   6.029   1.089   5.367
14440TIP3    H143263   6.021   1.036   5.288
14440TIP3    H243264   6.121   1.115   5.368
14441TIP3   OH243265   5.283   5.314   4.978
14441TIP3    H143266   5.268   5.238   5.033
14441TIP3    H243267   5.214   5.310   4.911
14442TIP3   OH243268   6.807   4.273   4.866
14442TIP3    H143269   6.735   4.281   4.804
14442TIP3    H243270   6.822   4.362   4.897
14443TIP3   OH243271   5.404   5.157   6.002
14443TIP3    H143272   5.440   5.081   5.957
14443TIP3    H243273   5.314   5.133   6.022
14444TIP3   OH243274   2.675   0.520   5.907
14444TIP3    H143275   2.597   0.574   5.895
14444TIP3    H243276   2.739   0.579   5.947
14445TIP3   OH243277   1.492   1.899   1.068
14445TIP3    H143278   1.397   1.884   1.070
14445TIP3    H243279   1.525   1.832   1.009
14446TIP3   OH243280   2.108   1.962   4.552
14446TIP3    H143281   2.047   1.927   4.617
14446TIP3    H243282   2.156   1.886   4.520
14447TIP3   OH243283   4.953   0.327   6.673
14447TIP3    H143284   4.940   0.305   6.765
14447TIP3    H243285   4.876   0.379   6.650
14448TIP3   OH243286   4.119   2.089   5.344
14448TIP3    H143287   4.204   2.112   5.307
14448TIP3    H243288   4.139   2.035   5.420
14449TIP3   OH243289   4.639   7.394   1.476
14449TIP3    H143290   4.595   7.479   1.488
14449TIP3    H243291   4.633   7.351   1.561
14450TIP3   OH243292   0.456   2.525   0.759
14450TIP3    H143293   0.460   2.502   0.851
14450TIP3    H243294   0.547   2.520   0.729
14451TIP3   OH243295   0.762   4.484   3.161
14451TIP3    H143296   0.834   4.478   3.099
14451TIP3    H243297   0.746   4.393   3.188
14452TIP3   OH243298   6.304   1.135   3.496
14452TIP3    H143299   6.222   1.169   3.461
14452TIP3    H243300   6.355   1.109   3.419
14453TIP3   OH243301   6.299   1.817   0.429
14453TIP3    H143302   6.281   1.901   0.470
14453TIP3    H243303   6.294   1.834   0.335
14454TIP3   OH243304   3.030   2.299   4.685
14454TIP3    H143305   3.117   2.330   4.660
14454TIP3    H243306   2.990   2.273   4.602
14455TIP3   OH243307   5.331   7.726   6.095
14455TIP3    H143308   5.239   7.706   6.078
14455TIP3    H243309   5.363   7.761   6.011
14456TIP3   OH243310   0.199   0.215   1.431
14456TIP3    H143311   0.163   0.291   1.478
14456TIP3    H243312   0.144   0.207   1.352
14457TIP3   OH243313   6.726   3.447   6.513
14457TIP3    H143314   6.674   3.373   6.481
14457TIP3    H243315   6.661   3.512   6.539
14458TIP3   OH243316   5.701   3.668   6.615
14458TIP3    H143317   5.673   3.662   6.706
14458TIP3    H243318   5.632   3.623   6.566
14459TIP3   OH243319   4.513   7.284   3.753
14459TIP3    H143320   4.604   7.253   3.760
14459TIP3    H243321   4.517   7.355   3.689
14460TIP3   OH243322   5.818   2.062   0.197
14460TIP3    H143323   5.757   2.134   0.209
14460TIP3    H243324   5.864   2.054   0.281
14461TIP3   OH243325   2.266   5.594   1.762
14461TIP3    H143326   2.323   5.546   1.702
14461TIP3    H243327   2.253   5.679   1.720
14462TIP3   OH243328   7.967   4.889   1.574
14462TIP3    H143329   7.980   4.807   1.527
14462TIP3    H243330   8.025   4.883   1.651
14463TIP3   OH243331   2.262   5.339   1.494
14463TIP3    H143332   2.304   5.258   1.467
14463TIP3    H243333   2.282   5.346   1.588
14464TIP3   OH243334   1.914   5.229   2.106
14464TIP3    H143335   1.880   5.280   2.033
14464TIP3    H243336   1.839   5.179   2.138
14465TIP3   OH243337   5.576   3.599   2.433
14465TIP3    H143338   5.494   3.607   2.483
14465TIP3    H243339   5.552   3.627   2.345
14466TIP3   OH243340   5.115   5.060   4.868
14466TIP3    H143341   5.029   5.021   4.851
14466TIP3    H243342   5.162   5.051   4.785
14467TIP3   OH243343   3.256   4.137   6.580
14467TIP3    H143344   3.258   4.160   6.488
14467TIP3    H243345   3.292   4.048   6.584
14468TIP3   OH243346   2.313   3.276   2.707
14468TIP3    H143347   2.326   3.197   2.654
14468TIP3    H243348   2.324   3.349   2.645
14469TIP3   OH243349   7.150   6.055   2.773
14469TIP3    H143350   7.238   6.038   2.807
14469TIP3    H243351   7.145   6.151   2.766
14470TIP3   OH243352   5.102   6.029   1.244
14470TIP3    H143353   5.049   5.951   1.231
14470TIP3    H243354   5.054   6.098   1.198
14471TIP3   OH243355   5.311   0.545   3.184
14471TIP3    H143356   5.233   0.494   3.206
14471TIP3    H243357   5.351   0.496   3.111
14472TIP3   OH243358   5.707   5.424   2.871
14472TIP3    H143359   5.740   5.492   2.812
14472TIP3    H243360   5.766   5.350   2.857
14473TIP3   OH243361   2.785   1.636   2.392
14473TIP3    H143362   2.733   1.693   2.449
14473TIP3    H243363   2.807   1.561   2.448
14474TIP3   OH243364   6.953   2.249   0.957
14474TIP3    H143365   6.966   2.154   0.962
14474TIP3    H243366   6.885   2.260   0.890
14475TIP3   OH243367   5.541   0.898   4.205
14475TIP3    H143368   5.630   0.873   4.177
14475TIP3    H243369   5.508   0.820   4.250
14476TIP3   OH243370   2.397   4.750   6.650
14476TIP3    H143371   2.467   4.701   6.605
14476TIP3    H243372   2.355   4.800   6.580
14477TIP3   OH243373   6.847   4.599   6.108
14477TIP3    H143374   6.871   4.651   6.032
14477TIP3    H243375   6.761   4.562   6.085
14478TIP3   OH243376   0.711   3.688   0.376
14478TIP3    H143377   0.743   3.711   0.464
14478TIP3    H243378   0.682   3.597   0.384
14479TIP3   OH243379   3.735   0.702   2.954
14479TIP3    H143380   3.789   0.690   2.876
14479TIP3    H243381   3.790   0.753   3.014
14480TIP3   OH243382   2.083   4.631   1.385
14480TIP3    H143383   2.086   4.674   1.300
14480TIP3    H243384   1.989   4.618   1.402
14481TIP3   OH243385   5.398   0.261   6.425
14481TIP3    H143386   5.336   0.189   6.435
14481TIP3    H243387   5.400   0.303   6.511
14482TIP3   OH243388   4.235   5.981   6.590
14482TIP3    H143389   4.248   5.886   6.588
14482TIP3    H243390   4.238   6.004   6.682
14483TIP3   OH243391   1.558   2.553   2.202
14483TIP3    H143392   1.593   2.640   2.224
14483TIP3    H243393   1.486   2.571   2.141
14484TIP3   OH243394   0.881   7.066   1.742
14484TIP3    H143395   0.815   6.996   1.740
14484TIP3    H243396   0.961   7.023   1.712
14485TIP3   OH243397   0.613   1.632   3.378
14485TIP3    H143398   0.654   1.604   3.295
14485TIP3    H243399   0.681   1.617   3.444
14486TIP3   OH243400   4.007   2.293   0.159
14486TIP3    H143401   4.001   2.350   0.235
14486TIP3    H243402   4.080   2.328   0.108
14487TIP3   OH243403   0.726   6.937   6.256
14487TIP3    H143404   0.812   6.935   6.213
14487TIP3    H243405   0.671   6.882   6.202
14488TIP3   OH243406   0.750   3.459   6.700
14488TIP3    H143407   0.830   3.503   6.727
14488TIP3    H243408   0.688   3.476   6.770
14489TIP3   OH243409   8.045   5.925   5.442
14489TIP3    H143410   7.975   5.900   5.382
14489TIP3    H243411   8.009   5.998   5.493
14490TIP3   OH243412   7.744   7.238   3.556
14490TIP3    H143413   7.829   7.194   3.561
14490TIP3    H243414   7.738   7.289   3.636
14491TIP3   OH243415   4.935   0.642   4.906
14491TIP3    H143416   4.843   0.661   4.889
14491TIP3    H243417   4.970   0.615   4.821
14492TIP3   OH243418   3.021   0.634   1.162
14492TIP3    H143419   3.076   0.655   1.086
14492TIP3    H243420   3.072   0.571   1.212
14493TIP3   OH243421   7.569   1.558   2.822
14493TIP3    H143422   7.641   1.579   2.882
14493TIP3    H243423   7.528   1.481   2.860
14494TIP3   OH243424   5.434   2.366   4.085
14494TIP3    H143425   5.376   2.369   4.161
14494TIP3    H243426   5.458   2.273   4.077
14495TIP3   OH243427   1.894   1.401   2.965
14495TIP3    H143428   1.947   1.362   2.896
14495TIP3    H243429   1.932   1.487   2.980
14496TIP3   OH243430   4.481   1.327   3.321
14496TIP3    H143431   4.449   1.281   3.400
14496TIP3    H243432   4.463   1.266   3.250
14497TIP3   OH243433   0.288   5.221   5.529
14497TIP3    H143434   0.369   5.174   5.548
14497TIP3    H243435   0.314   5.313   5.527
14498TIP3   OH243436   0.321   2.506   0.386
14498TIP3    H143437   0.413   2.480   0.380
14498TIP3    H243438   0.310   2.572   0.317
14499TIP3   OH243439   0.441   0.549   4.691
14499TIP3    H143440   0.368   0.575   4.635
14499TIP3    H243441   0.405   0.482   4.749
14500TIP3   OH243442   4.171   1.011   4.968
14500TIP3    H143443   4.220   0.974   5.042
14500TIP3    H243444   4.227   0.994   4.892
14501TIP3   OH243445   4.178   2.835   5.032
14501TIP3    H143446   4.136   2.790   4.959
14501TIP3    H243447   4.270   2.844   5.007
14502TIP3   OH243448   3.760   5.339   4.805
14502TIP3    H143449   3.852   5.364   4.799
14502TIP3    H243450   3.722   5.403   4.865
14503TIP3   OH243451   6.605   7.310   2.171
14503TIP3    H143452   6.647   7.311   2.257
14503TIP3    H243453   6.553   7.390   2.168
14504TIP3   OH243454   5.828   2.684   4.364
14504TIP3    H143455   5.851   2.666   4.272
14504TIP3    H243456   5.733   2.670   4.367
14505TIP3   OH243457   5.902   1.903   6.106
14505TIP3    H143458   5.808   1.895   6.086
14505TIP3    H243459   5.904   1.940   6.194
14506TIP3   OH243460   3.711   6.088   5.160
14506TIP3    H143461   3.745   6.107   5.072
14506TIP3    H243462   3.783   6.110   5.218
14507TIP3   OH243463   4.783   0.165   0.337
14507TIP3    H143464   4.852   0.144   0.274
14507TIP3    H243465   4.728   0.087   0.339
14508TIP3   OH243466   4.084   2.152   3.124
14508TIP3    H143467   4.161   2.201   3.154
14508TIP3    H243468   4.011   2.193   3.170
14509TIP3   OH243469   6.058   4.282   0.971
14509TIP3    H143470   5.969   4.248   0.974
14509TIP3    H243471   6.051   4.370   1.007
14510TIP3   OH243472   5.868   1.027   3.757
14510TIP3    H143473   5.916   0.976   3.822
14510TIP3    H243474   5.778   0.996   3.763
14511TIP3   OH243475   6.357   1.677   3.219
14511TIP3    H143476   6.320   1.669   3.131
14511TIP3    H243477   6.349   1.590   3.257
14512TIP3   OH243478   1.804   5.518   5.220
14512TIP3    H143479   1.743   5.488   5.287
14512TIP3    H243480   1.757   5.588   5.174
14513TIP3   OH243481   2.670   0.198   4.070
14513TIP3    H143482   2.729   0.158   4.005
14513TIP3    H243483   2.602   0.239   4.018
14514TIP3   OH243484   0.845   0.470   1.011
14514TIP3    H143485   0.854   0.485   0.917
14514TIP3    H243486   0.853   0.558   1.050
14515TIP3   OH243487   3.862   4.143   6.450
14515TIP3    H143488   3.898   4.150   6.539
14515TIP3    H243489   3.903   4.065   6.413
14516TIP3   OH243490   3.982   6.438   5.001
14516TIP3    H143491   4.009   6.419   5.091
14516TIP3    H243492   3.953   6.354   4.966
14517TIP3   OH243493   2.935   4.020   1.554
14517TIP3    H143494   2.966   3.934   1.525
14517TIP3    H243495   2.902   4.005   1.642
14518TIP3   OH243496   1.464   5.417   3.498
14518TIP3    H143497   1.529   5.482   3.524
14518TIP3    H243498   1.514   5.338   3.478
14519TIP3   OH243499   3.609   0.223   1.244
14519TIP3    H143500   3.695   0.261   1.263
14519TIP3    H243501   3.587   0.173   1.322
14520TIP3   OH243502   4.781   2.144   3.215
14520TIP3    H143503   4.737   2.093   3.146
14520TIP3    H243504   4.762   2.235   3.192
14521TIP3   OH243505   5.992   3.048   2.788
14521TIP3    H143506   5.974   3.035   2.881
14521TIP3    H243507   6.022   2.962   2.757
14522TIP3   OH243508   6.207   2.937   0.623
14522TIP3    H143509   6.245   2.912   0.538
14522TIP3    H243510   6.267   2.899   0.688
14523TIP3   OH243511   3.063   0.544   6.769
14523TIP3    H143512   2.972   0.552   6.741
14523TIP3    H243513   3.108   0.505   6.694
14524TIP3   OH243514   1.528   6.854   6.594
14524TIP3    H143515   1.576   6.845   6.512
14524TIP3    H243516   1.438   6.874   6.568
14525TIP3   OH243517   3.761   3.348   0.974
14525TIP3    H143518   3.837   3.405   0.960
14525TIP3    H243519   3.787   3.293   1.048
14526TIP3   OH243520   3.927   0.190   2.465
14526TIP3    H143521   3.873   0.209   2.542
14526TIP3    H243522   3.889   0.111   2.427
14527TIP3   OH243523   6.091   7.613   2.739
14527TIP3    H143524   6.137   7.541   2.783
14527TIP3    H243525   6.041   7.655   2.809
14528TIP3   OH243526   1.298   3.472   6.575
14528TIP3    H143527   1.385   3.437   6.592
14528TIP3    H243528   1.304   3.563   6.604
14529TIP3   OH243529   7.357   5.847   0.763
14529TIP3    H143530   7.303   5.769   0.755
14529TIP3    H243531   7.443   5.814   0.788
14530TIP3   OH243532   2.291   0.621   4.227
14530TIP3    H143533   2.360   0.557   4.214
14530TIP3    H243534   2.219   0.572   4.267
14531TIP3   OH243535   1.132   0.389   1.707
14531TIP3    H143536   1.125   0.302   1.747
14531TIP3    H243537   1.116   0.450   1.779
14532TIP3   OH243538   4.904   6.332   4.470
14532TIP3    H143539   4.956   6.271   4.523
14532TIP3    H243540   4.840   6.276   4.426
14533TIP3   OH243541   6.515   5.050   5.413
14533TIP3    H143542   6.472   4.970   5.445
14533TIP3    H243543   6.498   5.050   5.319
14534TIP3   OH243544   1.583   0.762   5.116
14534TIP3    H143545   1.571   0.809   5.033
14534TIP3    H243546   1.557   0.825   5.183
14535TIP3   OH243547   5.989   6.217   4.118
14535TIP3    H143548   6.050   6.215   4.191
14535TIP3    H243549   5.921   6.279   4.144
14536TIP3   OH243550   3.828   7.003   3.173
14536TIP3    H143551   3.900   7.066   3.168
14536TIP3    H243552   3.834   6.953   3.091
14537TIP3   OH243553   8.055   7.424   1.895
14537TIP3    H143554   8.067   7.395   1.804
14537TIP3    H243555   8.024   7.515   1.887
14538TIP3   OH243556   0.696   3.985   6.299
14538TIP3    H143557   0.682   3.979   6.394
14538TIP3    H243558   0.742   3.904   6.278
14539TIP3   OH243559   2.172   4.339   1.732
14539TIP3    H143560   2.172   4.430   1.764
14539TIP3    H243561   2.111   4.339   1.659
14540TIP3   OH243562   1.767   2.794   0.722
14540TIP3    H143563   1.679   2.786   0.758
14540TIP3    H243564   1.753   2.824   0.632
14541TIP3   OH243565   0.295   0.767   2.341
14541TIP3    H143566   0.242   0.688   2.350
14541TIP3    H243567   0.253   0.831   2.398
14542TIP3   OH243568   6.004   7.573   1.053
14542TIP3    H143569   5.914   7.585   1.085
14542TIP3    H243570   6.005   7.618   0.969
14543TIP3   OH243571   0.046   0.606   4.752
14543TIP3    H143572   0.013   0.644   4.833
14543TIP3    H243573  -0.017   0.538   4.729
14544TIP3   OH243574   0.780   3.076   6.233
14544TIP3    H143575   0.701   3.123   6.260
14544TIP3    H243576   0.815   3.127   6.161
14545TIP3   OH243577   1.922   0.746   1.380
14545TIP3    H143578   1.970   0.813   1.332
14545TIP3    H243579   1.856   0.714   1.319
14546TIP3   OH243580   7.436   1.098   2.670
14546TIP3    H143581   7.461   1.188   2.648
14546TIP3    H243582   7.480   1.081   2.753
14547TIP3   OH243583   6.850   0.918   4.856
14547TIP3    H143584   6.920   0.855   4.869
14547TIP3    H243585   6.883   1.000   4.892
14548TIP3   OH243586   7.675   6.373   3.578
14548TIP3    H143587   7.660   6.407   3.490
14548TIP3    H243588   7.645   6.282   3.575
14549TIP3   OH243589   7.595   4.459   2.427
14549TIP3    H143590   7.615   4.458   2.333
14549TIP3    H243591   7.544   4.539   2.439
14550TIP3   OH243592   8.301   2.670   3.933
14550TIP3    H143593   8.326   2.742   3.874
14550TIP3    H243594   8.258   2.606   3.877
14551TIP3   OH243595   0.478   7.389   6.111
14551TIP3    H143596   0.511   7.307   6.146
14551TIP3    H243597   0.397   7.406   6.159
14552TIP3   OH243598   1.943   1.803   6.685
14552TIP3    H143599   1.883   1.729   6.696
14552TIP3    H243600   1.949   1.843   6.771
14553TIP3   OH243601   4.293   1.351   6.065
14553TIP3    H143602   4.272   1.414   5.996
14553TIP3    H243603   4.276   1.265   6.025
14554TIP3   OH243604   4.335   4.030   5.982
14554TIP3    H143605   4.329   4.025   5.887
14554TIP3    H243606   4.249   4.060   6.010
14555TIP3   OH243607   6.686   0.179   4.791
14555TIP3    H143608   6.607   0.222   4.822
14555TIP3    H243609   6.717   0.235   4.719
14556TIP3   OH243610   1.783   1.281   0.791
14556TIP3    H143611   1.868   1.278   0.748
14556TIP3    H243612   1.725   1.231   0.733
14557TIP3   OH243613   6.007   4.948   4.291
14557TIP3    H143614   6.081   4.892   4.267
14557TIP3    H243615   5.955   4.955   4.211
14558TIP3   OH243616   0.968   3.398   3.091
14558TIP3    H143617   0.932   3.471   3.041
14558TIP3    H243618   0.970   3.430   3.181
14559TIP3   OH243619   4.608   6.293   1.540
14559TIP3    H143620   4.621   6.202   1.565
14559TIP3    H243621   4.697   6.327   1.528
14560TIP3   OH243622   3.648   3.723   3.178
14560TIP3    H143623   3.721   3.749   3.121
14560TIP3    H243624   3.597   3.803   3.189
14561TIP3   OH243625   7.318   1.607   4.201
14561TIP3    H143626   7.401   1.579   4.238
14561TIP3    H243627   7.251   1.568   4.258
14562TIP3   OH243628   0.213   3.459   1.072
14562TIP3    H143629   0.143   3.518   1.096
14562TIP3    H243630   0.185   3.373   1.103
14563TIP3   OH243631   3.466   2.756   1.964
14563TIP3    H143632   3.427   2.812   2.031
14563TIP3    H243633   3.454   2.667   1.997
14564TIP3   OH243634   7.261   3.643   5.327
14564TIP3    H143635   7.354   3.632   5.310
14564TIP3    H243636   7.223   3.662   5.241
14565TIP3   OH243637   5.237   0.504   2.800
14565TIP3    H143638   5.290   0.458   2.734
14565TIP3    H243639   5.276   0.591   2.805
14566TIP3   OH243640   6.942   6.717   5.594
14566TIP3    H143641   6.977   6.642   5.547
14566TIP3    H243642   6.901   6.771   5.527
14567TIP3   OH243643   0.896   3.883   5.967
14567TIP3    H143644   0.934   3.922   6.046
14567TIP3    H243645   0.869   3.959   5.914
14568TIP3   OH243646   4.546   5.466   2.321
14568TIP3    H143647   4.557   5.558   2.347
14568TIP3    H243648   4.459   5.462   2.281
14569TIP3   OH243649   0.426   3.754   2.655
14569TIP3    H143650   0.469   3.789   2.577
14569TIP3    H243651   0.334   3.745   2.631
14570TIP3   OH243652   3.817   7.595   4.407
14570TIP3    H143653   3.906   7.627   4.423
14570TIP3    H243654   3.822   7.501   4.424
14571TIP3   OH243655   4.665   1.788   3.209
14571TIP3    H143656   4.607   1.714   3.194
14571TIP3    H243657   4.692   1.780   3.300
14572TIP3   OH243658   5.760   5.990   4.671
14572TIP3    H143659   5.705   5.954   4.601
14572TIP3    H243660   5.763   5.921   4.737
14573TIP3   OH243661   5.272   4.542   2.884
14573TIP3    H143662   5.286   4.470   2.823
14573TIP3    H243663   5.290   4.621   2.833
14574TIP3   OH243664   3.386   0.015   2.986
14574TIP3    H143665   3.451   0.037   2.920
14574TIP3    H243666   3.428   0.036   3.069
14575TIP3   OH243667   1.988   0.787   6.460
14575TIP3    H143668   2.003   0.861   6.401
14575TIP3    H243669   2.074   0.748   6.473
14576TIP3   OH243670   2.390   5.570   5.421
14576TIP3    H143671   2.484   5.585   5.412
14576TIP3    H243672   2.381   5.527   5.507
14577TIP3   OH243673   7.081   3.175   4.048
14577TIP3    H143674   7.071   3.210   3.959
14577TIP3    H243675   6.994   3.143   4.071
14578TIP3   OH243676   2.634   1.664   4.199
14578TIP3    H143677   2.608   1.753   4.223
14578TIP3    H243678   2.717   1.650   4.244
14579TIP3   OH243679   6.658   4.376   1.178
14579TIP3    H143680   6.581   4.325   1.201
14579TIP3    H243681   6.636   4.417   1.094
14580TIP3   OH243682   4.562   7.686   2.166
14580TIP3    H143683   4.620   7.736   2.224
14580TIP3    H243684   4.533   7.749   2.100
14581TIP3   OH243685   6.741   4.615   3.329
14581TIP3    H143686   6.763   4.704   3.359
14581TIP3    H243687   6.694   4.629   3.247
14582TIP3   OH243688   4.097   0.214   3.872
14582TIP3    H143689   4.032   0.147   3.892
14582TIP3    H243690   4.176   0.185   3.919
14583TIP3   OH243691   3.274   3.307   0.914
14583TIP3    H143692   3.335   3.378   0.935
14583TIP3    H243693   3.187   3.345   0.923
14584TIP3   OH243694   3.795   2.030   6.139
14584TIP3    H143695   3.786   2.010   6.232
14584TIP3    H243696   3.705   2.027   6.105
14585TIP3   OH243697   3.652   4.987   6.626
14585TIP3    H143698   3.732   4.935   6.627
14585TIP3    H243699   3.639   5.012   6.718
14586TIP3   OH243700   4.569   4.945   2.205
14586TIP3    H143701   4.513   4.973   2.134
14586TIP3    H243702   4.598   5.026   2.247
14587TIP3   OH243703   7.046   2.014   4.127
14587TIP3    H143704   7.051   2.107   4.105
14587TIP3    H243705   7.132   1.979   4.103
14588TIP3   OH243706   6.762   3.833   5.064
14588TIP3    H143707   6.837   3.799   5.015
14588TIP3    H243708   6.686   3.806   5.013
14589TIP3   OH243709   6.120   2.616   4.799
14589TIP3    H143710   6.084   2.651   4.718
14589TIP3    H243711   6.215   2.613   4.784
14590TIP3   OH243712   5.076   2.779   0.061
14590TIP3    H143713   5.156   2.758   0.109
14590TIP3    H243714   5.070   2.713  -0.007
14591TIP3   OH243715   7.243   2.314   3.140
14591TIP3    H143716   7.334   2.282   3.139
14591TIP3    H243717   7.191   2.236   3.160
14592TIP3   OH243718   6.514   0.549   1.912
14592TIP3    H143719   6.532   0.471   1.964
14592TIP3    H243720   6.555   0.620   1.961
14593TIP3   OH243721   1.287   3.053   1.456
14593TIP3    H143722   1.208   3.048   1.402
14593TIP3    H243723   1.315   3.144   1.449
14594TIP3   OH243724   6.423   6.285   1.503
14594TIP3    H143725   6.380   6.359   1.459
14594TIP3    H243726   6.384   6.284   1.591
14595TIP3   OH243727   2.723   1.941   2.843
14595TIP3    H143728   2.756   2.031   2.846
14595TIP3    H243729   2.783   1.892   2.899
14596TIP3   OH243730   6.825   3.903   3.903
14596TIP3    H143731   6.818   3.816   3.863
14596TIP3    H243732   6.876   3.888   3.983
14597TIP3   OH243733   6.970   6.111   3.640
14597TIP3    H143734   7.015   6.037   3.680
14597TIP3    H243735   6.922   6.073   3.566
14598TIP3   OH243736   5.889   0.387   3.720
14598TIP3    H143737   5.795   0.379   3.737
14598TIP3    H243738   5.899   0.469   3.673
14599TIP3   OH243739   2.392   4.111   0.196
14599TIP3    H143740   2.367   4.095   0.105
14599TIP3    H243741   2.399   4.023   0.235
14600TIP3   OH243742   0.705   0.995   6.191
14600TIP3    H143743   0.613   0.977   6.209
14600TIP3    H243744   0.710   1.089   6.179
14601TIP3   OH243745   0.693   4.683   5.385
14601TIP3    H143746   0.702   4.760   5.329
14601TIP3    H243747   0.770   4.687   5.443
14602TIP3   OH243748   5.752   2.536   4.974
14602TIP3    H143749   5.678   2.537   5.035
14602TIP3    H243750   5.761   2.627   4.945
14603TIP3   OH243751   3.207   2.981   2.525
14603TIP3    H143752   3.201   3.074   2.503
14603TIP3    H243753   3.257   2.943   2.453
14604TIP3   OH243754   2.862   3.003   3.437
14604TIP3    H143755   2.953   2.976   3.420
14604TIP3    H243756   2.829   3.027   3.351
14605TIP3   OH243757   0.377   5.289   0.003
14605TIP3    H143758   0.433   5.315   0.076
14605TIP3    H243759   0.413   5.335  -0.072
14606TIP3   OH243760   6.090   6.613   0.980
14606TIP3    H143761   6.098   6.708   0.973
14606TIP3    H243762   6.091   6.582   0.889
14607TIP3   OH243763   2.628   0.485   0.639
14607TIP3    H143764   2.616   0.405   0.587
14607TIP3    H243765   2.539   0.509   0.664
14608TIP3   OH243766   6.473   2.693   5.340
14608TIP3    H143767   6.523   2.612   5.336
14608TIP3    H243768   6.455   2.704   5.433
14609TIP3   OH243769   6.657   6.077   1.784
14609TIP3    H143770   6.749   6.052   1.792
14609TIP3    H243771   6.647   6.150   1.845
14610TIP3   OH243772   0.266   3.554   1.403
14610TIP3    H143773   0.343   3.589   1.357
14610TIP3    H243774   0.193   3.575   1.345
14611TIP3   OH243775   1.322   3.832   5.378
14611TIP3    H143776   1.272   3.843   5.459
14611TIP3    H243777   1.260   3.792   5.317
14612TIP3   OH243778   0.812   4.887   2.627
14612TIP3    H143779   0.770   4.955   2.574
14612TIP3    H243780   0.902   4.916   2.636
14613TIP3   OH243781   0.961   7.254   0.552
14613TIP3    H143782   0.984   7.161   0.554
14613TIP3    H243783   0.875   7.259   0.594
14614TIP3   OH243784   7.275   3.692  -0.016
14614TIP3    H143785   7.250   3.716   0.073
14614TIP3    H243786   7.292   3.598  -0.011
14615TIP3   OH243787   8.241   3.208   2.650
14615TIP3    H143788   8.146   3.203   2.657
14615TIP3    H243789   8.265   3.285   2.702
14616TIP3   OH243790   7.819   2.632   2.431
14616TIP3    H143791   7.908   2.650   2.403
14616TIP3    H243792   7.804   2.691   2.505
14617TIP3   OH243793   1.462   1.237   1.701
14617TIP3    H143794   1.384   1.204   1.656
14617TIP3    H243795   1.489   1.313   1.649
14618TIP3   OH243796   5.295   6.745   5.377
14618TIP3    H143797   5.253   6.809   5.320
14618TIP3    H243798   5.388   6.766   5.371
14619TIP3   OH243799   0.779   2.164   3.112
14619TIP3    H143800   0.689   2.174   3.081
14619TIP3    H243801   0.772   2.167   3.207
14620TIP3   OH243802   1.270   4.932   2.562
14620TIP3    H143803   1.320   4.870   2.509
14620TIP3    H243804   1.217   4.980   2.498
14621TIP3   OH243805   5.259   5.150   6.280
14621TIP3    H143806   5.328   5.139   6.215
14621TIP3    H243807   5.301   5.198   6.351
14622TIP3   OH243808   0.917   0.461   0.221
14622TIP3    H143809   0.947   0.549   0.244
14622TIP3    H243810   0.846   0.443   0.283
14623TIP3   OH243811   6.088   3.508   1.886
14623TIP3    H143812   6.057   3.442   1.948
14623TIP3    H243813   6.137   3.570   1.940
14624TIP3   OH243814   0.295   3.019   6.000
14624TIP3    H143815   0.291   3.112   5.975
14624TIP3    H243816   0.248   3.014   6.083
14625TIP3   OH243817   6.030   2.369   4.817
14625TIP3    H143818   5.940   2.396   4.797
14625TIP3    H243819   6.083   2.447   4.798
14626TIP3   OH243820   4.859   7.324   2.665
14626TIP3    H143821   4.946   7.295   2.693
14626TIP3    H243822   4.800   7.253   2.692
14627TIP3   OH243823   1.063   2.700   5.538
14627TIP3    H143824   1.148   2.738   5.560
14627TIP3    H243825   1.082   2.639   5.467
14628TIP3   OH243826   3.868   7.708   3.692
14628TIP3    H143827   3.888   7.616   3.709
14628TIP3    H243828   3.856   7.746   3.779
14629TIP3   OH243829   2.887   2.728   0.522
14629TIP3    H143830   2.943   2.658   0.490
14629TIP3    H243831   2.944   2.805   0.524
14630TIP3   OH243832   2.460   6.082   5.784
14630TIP3    H143833   2.524   6.011   5.793
14630TIP3    H243834   2.418   6.066   5.699
14631TIP3   OH243835   5.895   5.828   2.897
14631TIP3    H143836   5.968   5.850   2.839
14631TIP3    H243837   5.914   5.739   2.927
14632TIP3   OH243838   2.737   7.134   5.300
14632TIP3    H143839   2.776   7.080   5.369
14632TIP3    H243840   2.712   7.215   5.343
14633TIP3   OH243841   6.324   7.352   6.548
14633TIP3    H143842   6.382   7.292   6.502
14633TIP3    H243843   6.342   7.438   6.510
14634TIP3   OH243844   0.110   5.423   4.968
14634TIP3    H143845   0.047   5.456   5.032
14634TIP3    H243846   0.060   5.362   4.915
14635TIP3   OH243847   3.203   2.119   4.525
14635TIP3    H143848   3.265   2.130   4.597
14635TIP3    H243849   3.130   2.070   4.563
14636TIP3   OH243850   7.840   0.780   3.620
14636TIP3    H143851   7.877   0.776   3.532
14636TIP3    H243852   7.807   0.870   3.628
14637TIP3   OH243853   0.210   6.606   5.786
14637TIP3    H143854   0.217   6.694   5.821
14637TIP3    H243855   0.194   6.550   5.863
14638TIP3   OH243856   3.135   6.086   4.701
14638TIP3    H143857   3.075   6.013   4.689
14638TIP3    H243858   3.080   6.164   4.696
14639TIP3   OH243859   6.646   6.162   0.501
14639TIP3    H143860   6.577   6.182   0.564
14639TIP3    H243861   6.699   6.242   0.497
14640TIP3   OH243862   4.053   0.801   2.198
14640TIP3    H143863   4.004   0.793   2.280
14640TIP3    H243864   4.023   0.727   2.145
14641TIP3   OH243865   0.362   0.632   2.070
14641TIP3    H143866   0.394   0.681   2.145
14641TIP3    H243867   0.410   0.549   2.073
14642TIP3   OH243868   7.344   6.134  -0.011
14642TIP3    H143869   7.322   6.042   0.003
14642TIP3    H243870   7.372   6.166   0.075
14643TIP3   OH243871   6.739   4.318   5.885
14643TIP3    H143872   6.652   4.357   5.887
14643TIP3    H243873   6.738   4.263   5.806
14644TIP3   OH243874   7.478   6.093   1.712
14644TIP3    H143875   7.566   6.112   1.742
14644TIP3    H243876   7.460   6.159   1.645
14645TIP3   OH243877   2.910   6.447   2.152
14645TIP3    H143878   2.958   6.528   2.168
14645TIP3    H243879   2.976   6.378   2.161
14646TIP3   OH243880   2.579   5.701   1.106
14646TIP3    H143881   2.550   5.648   1.180
14646TIP3    H243882   2.504   5.756   1.083
14647TIP3   OH243883   3.603   5.363   2.513
14647TIP3    H143884   3.620   5.273   2.541
14647TIP3    H243885   3.579   5.410   2.593
14648TIP3   OH243886   4.411   5.278   6.598
14648TIP3    H143887   4.499   5.295   6.566
14648TIP3    H243888   4.358   5.267   6.518
14649TIP3   OH243889   7.836   0.955   5.711
14649TIP3    H143890   7.769   0.891   5.733
14649TIP3    H243891   7.918   0.906   5.709
14650TIP3   OH243892   3.786   0.834   2.047
14650TIP3    H143893   3.696   0.813   2.073
14650TIP3    H243894   3.829   0.750   2.038
14651TIP3   OH243895   5.377   6.547   2.076
14651TIP3    H143896   5.322   6.514   2.005
14651TIP3    H243897   5.378   6.642   2.064
14652TIP3   OH243898   4.912   5.152   5.057
14652TIP3    H143899   4.892   5.059   5.071
14652TIP3    H243900   4.898   5.166   4.964
14653TIP3   OH243901   4.365   3.625   1.205
14653TIP3    H143902   4.381   3.639   1.298
14653TIP3    H243903   4.315   3.702   1.178
14654TIP3   OH243904   0.188   7.047   3.845
14654TIP3    H143905   0.146   7.133   3.843
14654TIP3    H243906   0.208   7.028   3.753
14655TIP3   OH243907   3.069   1.364   2.511
14655TIP3    H143908   3.032   1.440   2.465
14655TIP3    H243909   3.151   1.346   2.465
14656TIP3   OH243910   1.596   7.439   4.973
14656TIP3    H143911   1.522   7.414   5.029
14656TIP3    H243912   1.651   7.493   5.029
14657TIP3   OH243913   1.096   4.122   5.934
14657TIP3    H143914   1.080   4.159   6.020
14657TIP3    H243915   1.132   4.194   5.883
14658TIP3   OH243916   2.965   3.593   6.083
14658TIP3    H143917   3.001   3.661   6.026
14658TIP3    H243918   3.042   3.541   6.109
14659TIP3   OH243919   1.781   0.344   6.533
14659TIP3    H143920   1.798   0.303   6.449
14659TIP3    H243921   1.755   0.433   6.512
14660TIP3   OH243922   7.977   2.029   2.483
14660TIP3    H143923   7.962   1.974   2.406
14660TIP3    H243924   7.910   2.000   2.546
14661TIP3   OH243925   3.153   1.258   0.980
14661TIP3    H143926   3.210   1.270   0.904
14661TIP3    H243927   3.131   1.346   1.008
14662TIP3   OH243928   1.595   6.520   3.826
14662TIP3    H143929   1.514   6.570   3.813
14662TIP3    H243930   1.644   6.571   3.890
14663TIP3   OH243931   7.467   5.160   3.200
14663TIP3    H143932   7.433   5.239   3.157
14663TIP3    H243933   7.499   5.192   3.284
14664TIP3   OH243934   6.869   4.190   1.053
14664TIP3    H143935   6.930   4.247   1.007
14664TIP3    H243936   6.839   4.243   1.127
14665TIP3   OH243937   3.818   5.952   1.068
14665TIP3    H143938   3.837   5.913   0.983
14665TIP3    H243939   3.823   5.879   1.130
14666TIP3   OH243940   0.733   4.736   6.594
14666TIP3    H143941   0.767   4.798   6.658
14666TIP3    H243942   0.645   4.714   6.625
14667TIP3   OH243943   1.350   6.019   1.194
14667TIP3    H143944   1.343   6.085   1.126
14667TIP3    H243945   1.413   5.955   1.160
14668TIP3   OH243946   4.970   7.281   4.307
14668TIP3    H143947   5.021   7.358   4.285
14668TIP3    H243948   5.035   7.213   4.327
14669TIP3   OH243949   0.275   0.246   5.126
14669TIP3    H143950   0.225   0.293   5.192
14669TIP3    H243951   0.291   0.160   5.165
14670TIP3   OH243952   7.204   2.142   0.743
14670TIP3    H143953   7.176   2.206   0.678
14670TIP3    H243954   7.131   2.136   0.804
14671TIP3   OH243955   5.687   0.820   2.739
14671TIP3    H143956   5.666   0.741   2.787
14671TIP3    H243957   5.780   0.812   2.718
14672TIP3   OH243958   0.128   3.087   4.268
14672TIP3    H143959   0.147   3.033   4.191
14672TIP3    H243960   0.180   3.166   4.255
14673TIP3   OH243961   0.001   7.646   2.581
14673TIP3    H143962   0.083   7.596   2.584
14673TIP3    H243963   0.009   7.708   2.654
14674TIP3   OH243964   8.124   5.330   2.996
14674TIP3    H143965   8.127   5.332   2.900
14674TIP3    H243966   8.154   5.242   3.019
14675TIP3   OH243967   3.229   3.404   6.172
14675TIP3    H143968   3.226   3.497   6.153
14675TIP3    H243969   3.311   3.392   6.219
14676TIP3   OH243970   6.953   3.879   6.693
14676TIP3    H143971   6.894   3.935   6.742
14676TIP3    H243972   7.040   3.896   6.730
14677TIP3   OH243973   5.424   7.643   4.084
14677TIP3    H143974   5.418   7.556   4.123
14677TIP3    H243975   5.338   7.658   4.045
14678TIP3   OH243976   6.167   3.129   4.329
14678TIP3    H143977   6.081   3.151   4.292
14678TIP3    H243978   6.153   3.046   4.375
14679TIP3   OH243979   2.515   1.160   1.993
14679TIP3    H143980   2.569   1.082   2.004
14679TIP3    H243981   2.429   1.127   1.966
14680TIP3   OH243982   6.543   4.201   1.396
14680TIP3    H143983   6.633   4.189   1.427
14680TIP3    H243984   6.506   4.266   1.455
14681TIP3   OH243985   4.126   2.083   2.864
14681TIP3    H143986   4.212   2.123   2.877
14681TIP3    H243987   4.082   2.092   2.949
14682TIP3   OH243988   2.282   2.912   3.895
14682TIP3    H143989   2.241   2.993   3.866
14682TIP3    H243990   2.349   2.940   3.957
14683TIP3   OH243991   2.031   2.302   3.072
14683TIP3    H143992   1.939   2.303   3.047
14683TIP3    H243993   2.073   2.243   3.009
14684TIP3   OH243994   5.771   5.662   6.280
14684TIP3    H143995   5.741   5.593   6.221
14684TIP3    H243996   5.705   5.667   6.348
14685TIP3   OH243997   7.890   6.752   1.843
14685TIP3    H143998   7.959   6.780   1.903
14685TIP3    H243999   7.817   6.728   1.900
14686TIP3   OH244000   3.930   2.837   4.811
14686TIP3    H144001   3.866   2.773   4.780
14686TIP3    H244002   4.007   2.786   4.834
14687TIP3   OH244003   1.183   5.899   6.759
14687TIP3    H144004   1.189   5.929   6.850
14687TIP3    H244005   1.092   5.871   6.749
14688TIP3   OH244006   3.031   5.278   0.522
14688TIP3    H144007   3.123   5.294   0.501
14688TIP3    H244008   3.003   5.357   0.567
14689TIP3   OH244009   8.040   2.449   0.353
14689TIP3    H144010   8.062   2.483   0.440
14689TIP3    H244011   7.966   2.504   0.325
14690TIP3   OH244012   5.233   4.829   5.357
14690TIP3    H144013   5.148   4.833   5.313
14690TIP3    H244014   5.215   4.854   5.447
14691TIP3   OH244015   2.992   5.218   4.498
14691TIP3    H144016   2.899   5.240   4.491
14691TIP3    H244017   3.003   5.192   4.590
14692TIP3   OH244018   5.653   2.480   1.578
14692TIP3    H144019   5.611   2.537   1.642
14692TIP3    H244020   5.692   2.539   1.514
14693TIP3   OH244021   8.291   7.453   4.962
14693TIP3    H144022   8.226   7.486   4.899
14693TIP3    H244023   8.267   7.362   4.975
14694TIP3   OH244024   4.455   0.462   4.365
14694TIP3    H144025   4.524   0.397   4.372
14694TIP3    H244026   4.392   0.438   4.433
14695TIP3   OH244027   3.990   4.042   1.577
14695TIP3    H144028   3.945   3.972   1.624
14695TIP3    H244029   3.952   4.123   1.612
14696TIP3   OH244030   6.569   6.997   0.459
14696TIP3    H144031   6.484   6.995   0.503
14696TIP3    H244032   6.616   6.922   0.494
14697TIP3   OH244033   5.404   3.381   5.709
14697TIP3    H144034   5.487   3.381   5.661
14697TIP3    H244035   5.406   3.461   5.761
14698TIP3   OH244036   7.079   6.103   6.373
14698TIP3    H144037   7.061   6.018   6.413
14698TIP3    H244038   7.152   6.086   6.312
14699TIP3   OH244039   4.842   3.381   0.589
14699TIP3    H144040   4.753   3.376   0.554
14699TIP3    H244041   4.898   3.386   0.511
14700TIP3   OH244042   5.243   4.411   4.915
14700TIP3    H144043   5.195   4.407   4.832
14700TIP3    H244044   5.284   4.497   4.915
14701TIP3   OH244045   2.427   5.887   3.508
14701TIP3    H144046   2.467   5.955   3.454
14701TIP3    H244047   2.368   5.935   3.567
14702TIP3   OH244048   8.022   3.582   3.830
14702TIP3    H144049   7.994   3.519   3.763
14702TIP3    H244050   8.110   3.609   3.801
14703TIP3   OH244051   6.493   2.448   1.554
14703TIP3    H144052   6.505   2.454   1.460
14703TIP3    H244053   6.464   2.358   1.570
14704TIP3   OH244054   5.934   6.542   4.082
14704TIP3    H144055   5.953   6.628   4.045
14704TIP3    H244056   6.016   6.493   4.072
14705TIP3   OH244057   7.113   5.403   0.634
14705TIP3    H144058   7.018   5.385   0.635
14705TIP3    H244059   7.140   5.381   0.545
14706TIP3   OH244060   7.228   0.675   3.140
14706TIP3    H144061   7.137   0.658   3.117
14706TIP3    H244062   7.259   0.736   3.073
14707TIP3   OH244063   3.195   4.396   3.362
14707TIP3    H144064   3.099   4.394   3.355
14707TIP3    H244065   3.222   4.308   3.335
14708TIP3   OH244066   5.506   2.094   6.650
14708TIP3    H144067   5.565   2.144   6.594
14708TIP3    H244068   5.434   2.067   6.592
14709TIP3   OH244069   2.601   5.977   0.824
14709TIP3    H144070   2.575   5.903   0.770
14709TIP3    H244071   2.521   6.005   0.868
14710TIP3   OH244072   2.682   6.817   5.408
14710TIP3    H144073   2.663   6.881   5.477
14710TIP3    H244074   2.601   6.766   5.400
14711TIP3   OH244075   6.864   4.479   6.786
14711TIP3    H144076   6.838   4.405   6.731
14711TIP3    H244077   6.864   4.554   6.727
14712TIP3   OH244078   0.386   4.260   2.563
14712TIP3    H144079   0.467   4.210   2.549
14712TIP3    H244080   0.406   4.318   2.637
14713TIP3   OH244081   6.541   0.539   2.303
14713TIP3    H144082   6.626   0.572   2.332
14713TIP3    H244083   6.484   0.617   2.302
14714TIP3   OH244084   6.486   0.133   1.751
14714TIP3    H144085   6.555   0.199   1.748
14714TIP3    H244086   6.529   0.052   1.726
14715TIP3   OH244087   3.221   6.446   4.701
14715TIP3    H144088   3.255   6.472   4.616
14715TIP3    H244089   3.287   6.474   4.764
14716TIP3   OH244090   3.908   5.231   5.669
14716TIP3    H144091   3.874   5.282   5.595
14716TIP3    H244092   3.992   5.198   5.639
14717TIP3   OH244093   0.523   6.756   2.401
14717TIP3    H144094   0.463   6.829   2.383
14717TIP3    H244095   0.519   6.703   2.322
14718TIP3   OH244096   5.200   5.393   2.486
14718TIP3    H144097   5.130   5.448   2.451
14718TIP3    H244098   5.173   5.304   2.464
14719TIP3   OH244099   1.951   6.994   4.476
14719TIP3    H144100   1.871   6.959   4.515
14719TIP3    H244101   1.951   7.087   4.499
14720TIP3   OH244102   8.269   5.746   3.837
14720TIP3    H144103   8.246   5.678   3.900
14720TIP3    H244104   8.328   5.804   3.885
14721TIP3   OH244105   7.717   0.328   5.862
14721TIP3    H144106   7.782   0.259   5.876
14721TIP3    H244107   7.643   0.303   5.918
14722TIP3   OH244108   0.315   5.232   5.092
14722TIP3    H144109   0.254   5.274   5.032
14722TIP3    H244110   0.401   5.250   5.054
14723TIP3   OH244111   7.166   0.363   2.071
14723TIP3    H144112   7.255   0.340   2.041
14723TIP3    H244113   7.108   0.309   2.017
14724TIP3   OH244114   6.619   4.480   0.934
14724TIP3    H144115   6.681   4.441   0.872
14724TIP3    H244116   6.537   4.434   0.919
14725TIP3   OH244117   1.782   2.673   4.504
14725TIP3    H144118   1.755   2.582   4.513
14725TIP3    H244119   1.729   2.720   4.570
14726TIP3   OH244120   2.982   7.668   2.286
14726TIP3    H144121   2.955   7.722   2.212
14726TIP3    H244122   2.901   7.626   2.316
14727TIP3   OH244123   7.476   6.650   3.602
14727TIP3    H144124   7.515   6.664   3.688
14727TIP3    H244125   7.529   6.580   3.563
14728TIP3   OH244126   4.717   3.778   3.019
14728TIP3    H144127   4.714   3.869   3.049
14728TIP3    H244128   4.658   3.732   3.079
14729TIP3   OH244129   4.340   6.792   5.423
14729TIP3    H144130   4.257   6.835   5.405
14729TIP3    H244131   4.404   6.839   5.370
14730TIP3   OH244132   6.409   2.175   3.312
14730TIP3    H144133   6.504   2.163   3.316
14730TIP3    H244134   6.395   2.265   3.342
14731TIP3   OH244135   5.452   5.159   0.966
14731TIP3    H144136   5.392   5.142   0.894
14731TIP3    H244137   5.515   5.223   0.930
14732TIP3   OH244138   2.816   0.323   0.864
14732TIP3    H144139   2.840   0.343   0.955
14732TIP3    H244140   2.724   0.297   0.869
14733TIP3   OH244141   4.950   1.203   1.100
14733TIP3    H144142   4.904   1.234   1.178
14733TIP3    H244143   5.021   1.149   1.133
14734TIP3   OH244144   3.371   5.646   3.939
14734TIP3    H144145   3.358   5.619   3.849
14734TIP3    H244146   3.371   5.564   3.989
14735TIP3   OH244147   4.015   4.951   5.448
14735TIP3    H144148   4.034   4.888   5.519
14735TIP3    H244149   4.084   4.936   5.384
14736TIP3   OH244150   1.770   7.431   0.301
14736TIP3    H144151   1.860   7.401   0.292
14736TIP3    H244152   1.726   7.362   0.351
14737TIP3   OH244153   1.850   3.887   2.866
14737TIP3    H144154   1.853   3.791   2.864
14737TIP3    H244155   1.765   3.907   2.905
14738TIP3   OH244156   6.416   6.515   6.104
14738TIP3    H144157   6.420   6.430   6.059
14738TIP3    H244158   6.493   6.562   6.073
14739TIP3   OH244159  -0.003   0.648   6.268
14739TIP3    H144160  -0.062   0.716   6.234
14739TIP3    H244161   0.005   0.585   6.195
14740TIP3   OH244162   4.839   0.642   2.467
14740TIP3    H144163   4.902   0.668   2.399
14740TIP3    H244164   4.837   0.717   2.527
14741TIP3   OH244165   0.542   0.609   0.529
14741TIP3    H144166   0.584   0.554   0.463
14741TIP3    H244167   0.605   0.680   0.544
14742TIP3   OH244168   6.475   2.721   5.614
14742TIP3    H144169   6.491   2.645   5.670
14742TIP3    H244170   6.562   2.745   5.581
14743TIP3   OH244171   8.304   7.246   2.125
14743TIP3    H144172   8.307   7.222   2.033
14743TIP3    H244173   8.211   7.239   2.148
14744TIP3   OH244174   3.972   1.466   0.132
14744TIP3    H144175   3.900   1.520   0.100
14744TIP3    H244176   3.989   1.404   0.062
14745TIP3   OH244177   1.224   0.541   3.828
14745TIP3    H144178   1.166   0.539   3.904
14745TIP3    H244179   1.299   0.487   3.854
14746TIP3   OH244180   4.456   4.534   3.339
14746TIP3    H144181   4.519   4.605   3.330
14746TIP3    H244182   4.452   4.495   3.252
14747TIP3   OH244183   3.366   1.043   0.061
14747TIP3    H144184   3.271   1.033   0.054
14747TIP3    H244185   3.379   1.134   0.085
14748TIP3   OH244186   1.561   7.591   4.671
14748TIP3    H144187   1.507   7.670   4.661
14748TIP3    H244188   1.500   7.524   4.701
14749TIP3   OH244189   1.090   0.274   3.069
14749TIP3    H144190   1.016   0.227   3.108
14749TIP3    H244191   1.161   0.210   3.066
14750TIP3   OH244192   6.444   2.183   0.263
14750TIP3    H144193   6.372   2.131   0.227
14750TIP3    H244194   6.501   2.119   0.305
14751TIP3   OH244195   0.587   3.599   6.025
14751TIP3    H144196   0.576   3.657   5.950
14751TIP3    H244197   0.645   3.647   6.084
14752TIP3   OH244198   0.844   4.444   2.418
14752TIP3    H144199   0.935   4.471   2.405
14752TIP3    H244200   0.806   4.445   2.330
14753TIP3   OH244201   3.598   1.884   5.206
14753TIP3    H144202   3.547   1.803   5.210
14753TIP3    H244203   3.679   1.859   5.160
14754TIP3   OH244204   3.720   1.622   3.609
14754TIP3    H144205   3.627   1.607   3.590
14754TIP3    H244206   3.721   1.663   3.695
14755TIP3   OH244207   2.540   6.213   2.683
14755TIP3    H144208   2.534   6.169   2.768
14755TIP3    H244209   2.520   6.144   2.619
14756TIP3   OH244210   7.686   4.222   6.769
14756TIP3    H144211   7.605   4.271   6.786
14756TIP3    H244212   7.675   4.190   6.679
14757TIP3   OH244213   4.418   0.340   5.808
14757TIP3    H144214   4.513   0.354   5.804
14757TIP3    H244215   4.404   0.294   5.890
14758TIP3   OH244216   6.583   5.312   5.957
14758TIP3    H144217   6.549   5.231   5.919
14758TIP3    H244218   6.643   5.346   5.892
14759TIP3   OH244219   7.713   1.994   5.908
14759TIP3    H144220   7.707   1.952   5.822
14759TIP3    H244221   7.784   2.057   5.899
14760TIP3   OH244222   6.731   5.518   1.685
14760TIP3    H144223   6.766   5.595   1.729
14760TIP3    H244224   6.688   5.468   1.755
14761TIP3   OH244225   7.989   1.428  -0.002
14761TIP3    H144226   7.999   1.416   0.092
14761TIP3    H244227   7.922   1.364  -0.027
14762TIP3   OH244228   7.265   2.029   2.470
14762TIP3    H144229   7.252   2.102   2.410
14762TIP3    H244230   7.231   2.060   2.554
14763TIP3   OH244231   3.241   1.868   5.642
14763TIP3    H144232   3.218   1.960   5.653
14763TIP3    H244233   3.336   1.867   5.632
14764TIP3   OH244234   5.253   4.274   2.445
14764TIP3    H144235   5.179   4.313   2.398
14764TIP3    H244236   5.315   4.251   2.376
14765TIP3   OH244237   7.635   5.041   0.947
14765TIP3    H144238   7.697   5.096   0.996
14765TIP3    H244239   7.680   4.957   0.937
14766TIP3   OH244240   0.123   3.409   2.210
14766TIP3    H144241   0.072   3.485   2.182
14766TIP3    H244242   0.057   3.347   2.242
14767TIP3   OH244243   1.851   5.037   3.858
14767TIP3    H144244   1.887   5.105   3.801
14767TIP3    H244245   1.893   5.052   3.943
14768TIP3   OH244246   2.993   3.997   0.168
14768TIP3    H144247   2.995   3.951   0.084
14768TIP3    H244248   2.963   3.931   0.231
14769TIP3   OH244249   0.588   5.832   4.302
14769TIP3    H144250   0.659   5.896   4.296
14769TIP3    H244251   0.528   5.868   4.368
14770TIP3   OH244252   0.991   6.624   0.401
14770TIP3    H144253   1.053   6.586   0.463
14770TIP3    H244254   1.020   6.593   0.315
14771TIP3   OH244255   5.940   2.999   1.218
14771TIP3    H144256   5.995   3.077   1.207
14771TIP3    H244257   5.858   3.033   1.255
14772TIP3   OH244258   6.295   4.824   4.440
14772TIP3    H144259   6.296   4.803   4.347
14772TIP3    H244260   6.234   4.761   4.478
14773TIP3   OH244261   0.704   0.706   3.036
14773TIP3    H144262   0.636   0.695   2.970
14773TIP3    H244263   0.716   0.619   3.074
14774TIP3   OH244264   1.058   1.109   6.487
14774TIP3    H144265   1.040   1.184   6.430
14774TIP3    H244266   1.030   1.033   6.435
14775TIP3   OH244267   1.757   4.907   6.232
14775TIP3    H144268   1.748   4.814   6.211
14775TIP3    H244269   1.753   4.952   6.148
14776TIP3   OH244270   1.250   6.009   6.116
14776TIP3    H144271   1.340   6.011   6.082
14776TIP3    H244272   1.218   6.098   6.105
14777TIP3   OH244273   5.538   6.179   0.360
14777TIP3    H144274   5.445   6.185   0.381
14777TIP3    H244275   5.558   6.260   0.313
14778TIP3   OH244276   2.388   0.504   1.444
14778TIP3    H144277   2.322   0.512   1.375
14778TIP3    H244278   2.415   0.413   1.441
14779TIP3   OH244279   4.520   5.891   6.644
14779TIP3    H144280   4.511   5.934   6.729
14779TIP3    H244281   4.479   5.805   6.655
14780TIP3   OH244282   0.328   6.744   2.916
14780TIP3    H144283   0.257   6.794   2.876
14780TIP3    H244284   0.389   6.726   2.845
14781TIP3   OH244285   8.270   1.646   0.411
14781TIP3    H144286   8.204   1.714   0.425
14781TIP3    H244287   8.231   1.587   0.347
14782TIP3   OH244288   4.242   2.125   4.118
14782TIP3    H144289   4.243   2.160   4.029
14782TIP3    H244290   4.268   2.033   4.107
14783TIP3   OH244291   2.618   4.062   0.031
14783TIP3    H144292   2.707   4.086   0.003
14783TIP3    H244293   2.601   4.118   0.107
14784TIP3   OH244294   2.958   0.090   6.553
14784TIP3    H144295   3.045   0.122   6.527
14784TIP3    H244296   2.977   0.022   6.618
14785TIP3   OH244297   3.514   3.369   4.256
14785TIP3    H144298   3.518   3.331   4.167
14785TIP3    H244299   3.422   3.360   4.281
14786TIP3   OH244300   7.491   2.163   1.343
14786TIP3    H144301   7.468   2.071   1.336
14786TIP3    H244302   7.407   2.209   1.347
14787TIP3   OH244303   1.425   3.114   3.082
14787TIP3    H144304   1.349   3.158   3.119
14787TIP3    H244305   1.399   3.089   2.994
14788TIP3   OH244306   3.981   2.009   4.706
14788TIP3    H144307   3.982   2.102   4.684
14788TIP3    H244308   4.020   2.005   4.793
14789TIP3   OH244309   1.821   0.666   2.650
14789TIP3    H144310   1.866   0.700   2.728
14789TIP3    H244311   1.738   0.632   2.683
14790TIP3   OH244312   8.144   1.458   3.534
14790TIP3    H144313   8.197   1.390   3.492
14790TIP3    H244314   8.063   1.413   3.559
14791TIP3   OH244315   0.081   1.384   5.535
14791TIP3    H144316   0.173   1.365   5.552
14791TIP3    H244317   0.083   1.452   5.467
14792TIP3   OH244318   1.578   2.449   0.158
14792TIP3    H144319   1.526   2.391   0.102
14792TIP3    H244320   1.669   2.424   0.142
14793TIP3   OH244321   2.025   2.012   4.244
14793TIP3    H144322   2.030   2.080   4.312
14793TIP3    H244323   1.959   2.045   4.183
14794TIP3   OH244324   2.424   6.291   0.918
14794TIP3    H144325   2.393   6.216   0.869
14794TIP3    H244326   2.488   6.334   0.861
14795TIP3   OH244327   0.041   4.127   3.954
14795TIP3    H144328   0.077   4.201   4.004
14795TIP3    H244329   0.070   4.050   4.003
14796TIP3   OH244330   0.031   7.735   1.851
14796TIP3    H144331  -0.008   7.720   1.937
14796TIP3    H244332   0.079   7.817   1.860
14797TIP3   OH244333   8.093   7.778   0.471
14797TIP3    H144334   8.127   7.819   0.550
14797TIP3    H244335   8.022   7.722   0.501
14798TIP3   OH244336   2.738   7.006   2.262
14798TIP3    H144337   2.811   7.054   2.224
14798TIP3    H244338   2.773   6.920   2.283
14799TIP3   OH244339   5.690   4.466   3.913
14799TIP3    H144340   5.646   4.502   3.990
14799TIP3    H244341   5.678   4.533   3.846
14800TIP3   OH244342   4.642   5.780   3.829
14800TIP3    H144343   4.658   5.736   3.913
14800TIP3    H244344   4.628   5.872   3.852
14801TIP3   OH244345   3.906   0.829   2.441
14801TIP3    H144346   3.946   0.902   2.486
14801TIP3    H244347   3.814   0.855   2.429
14802TIP3   OH244348   5.008   0.968   2.107
14802TIP3    H144349   4.929   0.940   2.153
14802TIP3    H244350   4.975   1.022   2.035
14803TIP3   OH244351   0.103   5.700   2.114
14803TIP3    H144352   0.168   5.757   2.155
14803TIP3    H244353   0.056   5.662   2.188
14804TIP3   OH244354   4.447   3.870   1.007
14804TIP3    H144355   4.522   3.830   1.051
14804TIP3    H244356   4.444   3.828   0.921
14805TIP3   OH244357   3.397   7.160   6.840
14805TIP3    H144358   3.336   7.168   6.767
14805TIP3    H244359   3.398   7.247   6.881
14806TIP3   OH244360   6.300   1.956   6.120
14806TIP3    H144361   6.252   1.885   6.078
14806TIP3    H244362   6.283   1.944   6.214
14807TIP3   OH244363   5.666   6.070   1.414
14807TIP3    H144364   5.586   6.122   1.407
14807TIP3    H244365   5.700   6.066   1.325
14808TIP3   OH244366   5.554   6.090   5.523
14808TIP3    H144367   5.569   6.017   5.583
14808TIP3    H244368   5.460   6.091   5.510
14809TIP3   OH244369   6.713   5.412   4.940
14809TIP3    H144370   6.657   5.336   4.957
14809TIP3    H244371   6.680   5.479   4.999
14810TIP3   OH244372   0.615   7.745   0.890
14810TIP3    H144373   0.550   7.758   0.959
14810TIP3    H244374   0.676   7.817   0.902
14811TIP3   OH244375   3.841   0.549   4.540
14811TIP3    H144376   3.913   0.573   4.482
14811TIP3    H244377   3.884   0.520   4.620
14812TIP3   OH244378   3.677   2.373   4.787
14812TIP3    H144379   3.608   2.394   4.850
14812TIP3    H244380   3.698   2.281   4.804
14813TIP3   OH244381   6.179   2.376   0.002
14813TIP3    H144382   6.148   2.286   0.012
14813TIP3    H244383   6.107   2.422  -0.041
14814TIP3   OH244384   3.843   0.532   2.003
14814TIP3    H144385   3.864   0.463   2.066
14814TIP3    H244386   3.779   0.492   1.945
14815TIP3   OH244387   7.827   5.158   1.091
14815TIP3    H144388   7.846   5.181   1.181
14815TIP3    H244389   7.899   5.100   1.066
14816TIP3   OH244390   4.780   2.650   3.915
14816TIP3    H144391   4.711   2.642   3.980
14816TIP3    H244392   4.734   2.672   3.834
14817TIP3   OH244393   3.937   0.573   5.604
14817TIP3    H144394   3.853   0.528   5.602
14817TIP3    H244395   4.001   0.505   5.585
14818TIP3   OH244396   5.188   4.101   3.713
14818TIP3    H144397   5.230   4.154   3.645
14818TIP3    H244398   5.253   4.035   3.736
14819TIP3   OH244399   2.482   5.446   3.399
14819TIP3    H144400   2.516   5.439   3.310
14819TIP3    H244401   2.416   5.377   3.405
14820TIP3   OH244402   0.837   4.759   0.078
14820TIP3    H144403   0.830   4.707   0.158
14820TIP3    H244404   0.746   4.775   0.052
14821TIP3   OH244405   6.588   7.886   3.998
14821TIP3    H144406   6.495   7.908   4.009
14821TIP3    H244407   6.603   7.816   4.062
14822TIP3   OH244408   2.765   4.642   4.293
14822TIP3    H144409   2.818   4.656   4.215
14822TIP3    H244410   2.828   4.637   4.365
14823TIP3   OH244411   6.500   6.540   3.859
14823TIP3    H144412   6.534   6.575   3.941
14823TIP3    H244413   6.572   6.551   3.797
14824TIP3   OH244414   8.107   0.825   3.645
14824TIP3    H144415   8.135   0.871   3.724
14824TIP3    H244416   8.017   0.799   3.663
14825TIP3   OH244417   3.062   0.173   5.624
14825TIP3    H144418   3.142   0.130   5.655
14825TIP3    H244419   3.034   0.227   5.698
14826TIP3   OH244420   3.722   1.918   2.835
14826TIP3    H144421   3.797   1.955   2.882
14826TIP3    H244422   3.754   1.903   2.746
14827TIP3   OH244423   3.862   0.604   6.623
14827TIP3    H144424   3.849   0.509   6.620
14827TIP3    H244425   3.844   0.627   6.714
14828TIP3   OH244426   0.544   7.278   2.567
14828TIP3    H144427   0.546   7.282   2.472
14828TIP3    H244428   0.613   7.337   2.595
14829TIP3   OH244429   3.236   3.209   0.383
14829TIP3    H144430   3.203   3.223   0.472
14829TIP3    H244431   3.268   3.119   0.383
14830TIP3   OH244432   8.171   7.003   3.722
14830TIP3    H144433   8.239   6.939   3.741
14830TIP3    H244434   8.208   7.087   3.751
   8.30411   7.82920   6.78028   0.00000   0.00000  -2.76803   0.00000  -2.76803  -3.91459
