Title
29212
    1ASP      N    1   3.889   1.757   1.129  0.3726 -0.2033  0.7654
    1ASP    HT1    2   3.880   1.839   1.193  0.1492 -1.7936  2.9007
    1ASP    HT2    3   3.802   1.740   1.076  1.0668  2.3405 -1.4246
    1ASP    HT3    4   3.969   1.767   1.063  1.3869 -2.1724  1.6181
    1ASP     CA    5   3.925   1.654   1.232 -0.1321  0.0018 -0.1090
    1ASP     HA    6   3.867   1.686   1.318  1.3653  1.2191  0.4892
    1ASP     CB    7   3.883   1.515   1.172  0.1732 -0.4828 -0.1928
    1ASP    HB1    8   3.951   1.483   1.090  0.4173  2.6277 -1.3385
    1ASP    HB2    9   3.777   1.513   1.138 -0.2633 -0.5049  1.1067
    1ASP     CG   10   3.884   1.419   1.282  0.7068 -0.0178  0.1231
    1ASP    OD1   11   3.874   1.464   1.400 -0.5179  0.0071 -0.3807
    1ASP    OD2   12   3.873   1.297   1.256 -0.7036  0.0598  0.2913
    1ASP      C   13   4.064   1.661   1.292 -0.3314  0.2086  0.4478
    1ASP      O   14   4.080   1.710   1.407 -0.0302 -0.2230 -0.0935
    2GLY      N   15   4.172   1.628   1.220 -0.9181  0.1653 -0.4597
    2GLY     HN   16   4.157   1.574   1.138 -0.8218 -2.7436  1.3146
    2GLY     CA   17   4.310   1.657   1.262  0.0480  1.1064  0.0562
    2GLY    HA1   18   4.374   1.610   1.189 -0.4272  0.4829  0.0400
    2GLY    HA2   19   4.326   1.637   1.367 -2.7912 -2.0711  0.0437
    2GLY      C   20   4.355   1.799   1.247 -0.3625 -0.3066  0.0704
    2GLY      O   21   4.275   1.885   1.214 -0.2537  0.1957 -0.2654
    3ASP      N   22   4.487   1.820   1.255  0.1550 -0.1835 -0.2947
    3ASP     HN   23   4.548   1.744   1.279  0.1019 -0.6207 -1.4604
    3ASP     CA   24   4.564   1.936   1.224  0.3886  0.1997 -0.4766
    3ASP     HA   25   4.567   1.989   1.318 -4.2046 -0.6016  0.3680
    3ASP     CB   26   4.706   1.914   1.169  0.2203 -0.3921  0.1782
    3ASP    HB1   27   4.755   2.004   1.128  1.5625 -0.7516  0.9474
    3ASP    HB2   28   4.703   1.834   1.091 -0.4825 -1.6603  1.4537
    3ASP     CG   29   4.792   1.853   1.272  0.4411 -0.1885 -0.0582
    3ASP    OD1   30   4.901   1.907   1.293  0.1807  0.8644 -0.4969
    3ASP    OD2   31   4.748   1.750   1.335  0.1784  0.6243  0.1251
    3ASP      C   32   4.501   2.040   1.125 -0.0819 -0.1403 -0.4008
    3ASP      O   33   4.469   2.005   1.014  0.4273 -0.3864 -0.0729
    4GLY      N   34   4.484   2.163   1.174 -0.4693 -0.4218  0.2709
    4GLY     HN   35   4.502   2.175   1.272 -1.8925  0.8503  0.4252
    4GLY     CA   36   4.452   2.282   1.095  0.1234  0.0356 -0.7186
    4GLY    HA1   37   4.365   2.331   1.137  0.9224 -0.8106  2.1144
    4GLY    HA2   38   4.449   2.245   0.994  0.6454 -0.6740 -0.4818
    4GLY      C   39   4.557   2.395   1.102  0.6087  0.3192 -0.5671
    4GLY      O   40   4.656   2.377   1.174  0.0430 -0.4896 -0.3430
    5PRO      N   41   4.529   2.504   1.038 -0.5309  0.6213  0.2119
    5PRO     CD   42   4.433   2.508   0.922 -0.5221  0.4977 -0.0649
    5PRO    HD1   43   4.333   2.495   0.969 -0.1012 -0.2228  0.6569
    5PRO    HD2   44   4.453   2.429   0.847 -2.2406 -1.3370  1.3199
    5PRO     CA   45   4.604   2.626   1.053 -0.7377  0.4902  0.6326
    5PRO     HA   46   4.699   2.615   1.002 -0.8833  0.1448  0.4338
    5PRO     CB   47   4.520   2.724   0.972  0.2307 -0.1996  0.7628
    5PRO    HB1   48   4.574   2.811   0.929 -0.4558  0.6415  1.5474
    5PRO    HB2   49   4.451   2.772   1.046  1.7709 -0.0778  2.1844
    5PRO     CG   50   4.448   2.645   0.863 -0.5868  0.1650 -0.0661
    5PRO    HG1   51   4.356   2.694   0.823 -0.8505 -1.2500 -1.2867
    5PRO    HG2   52   4.513   2.647   0.773 -3.1881 -0.5623 -2.0777
    5PRO      C   53   4.641   2.672   1.193  0.5028 -0.0814 -0.2429
    5PRO      O   54   4.555   2.655   1.281  0.4073 -0.3610 -0.2725
    6GLY      N   55   4.764   2.730   1.220  0.2861 -0.3584  0.6093
    6GLY     HN   56   4.835   2.708   1.154  1.6752  0.8870  1.6376
    6GLY     CA   57   4.806   2.811   1.337 -0.2976  0.6297  0.4617
    6GLY    HA1   58   4.895   2.861   1.304 -0.6434  0.9371 -0.0280
    6GLY    HA2   59   4.812   2.744   1.422 -1.5252 -2.5275 -1.7096
    6GLY      C   60   4.716   2.918   1.373  0.5867 -0.3247  0.0689
    6GLY      O   61   4.637   2.979   1.295  0.0893  0.3290  0.4454
    7ASP      N   62   4.730   2.967   1.500  0.1579 -0.1226 -0.7483
    7ASP     HN   63   4.789   2.922   1.566 -0.2230  0.5928  0.0992
    7ASP     CA   64   4.649   3.071   1.557  0.2514  0.1459 -0.3292
    7ASP     HA   65   4.545   3.041   1.564  0.1639  0.5017 -0.0269
    7ASP     CB   66   4.696   3.091   1.706  0.4589 -0.2384  0.2307
    7ASP    HB1   67   4.660   3.184   1.757  0.0124 -0.8425  1.0417
    7ASP    HB2   68   4.805   3.096   1.687  0.0017 -0.9719 -3.0974
    7ASP     CG   69   4.657   2.985   1.804 -0.1511 -0.1430 -0.0547
    7ASP    OD1   70   4.720   2.980   1.913 -0.3673  0.0125  0.3201
    7ASP    OD2   71   4.555   2.911   1.777  0.2485  0.6731  0.7445
    7ASP      C   72   4.658   3.205   1.486  0.1759  1.0464  1.0492
    7ASP      O   73   4.767   3.263   1.475  0.0998  0.2445  0.3166
    8PRO      N   74   4.541   3.246   1.417 -0.0444 -0.0654  0.2778
    8PRO     CD   75   4.403   3.198   1.442  0.2189  0.2119 -0.6494
    8PRO    HD1   76   4.372   3.214   1.547 -0.7186  0.5341 -0.9641
    8PRO    HD2   77   4.395   3.090   1.414 -0.4104  0.2768 -0.7351
    8PRO     CA   78   4.541   3.358   1.324  0.2681 -0.0682 -0.2258
    8PRO     HA   79   4.560   3.315   1.226  1.1874  0.5572 -0.3357
    8PRO     CB   80   4.397   3.409   1.330  0.1295 -0.1106  0.2226
    8PRO    HB1   81   4.369   3.473   1.243  1.8561 -0.5993 -0.7501
    8PRO    HB2   82   4.374   3.460   1.426 -0.0216 -2.3984  1.4608
    8PRO     CG   83   4.320   3.278   1.340 -0.2842  0.6874 -0.0102
    8PRO    HG1   84   4.213   3.289   1.370 -0.1820 -0.6623  0.9309
    8PRO    HG2   85   4.324   3.224   1.243  0.1805  0.1287  0.3181
    8PRO      C   86   4.628   3.472   1.359 -1.0848  0.1563  0.0398
    8PRO      O   87   4.633   3.519   1.475  0.6058  0.1058 -0.0265
    9GLY      N   88   4.708   3.521   1.265 -0.1626 -0.6740  0.2289
    9GLY     HN   89   4.700   3.494   1.170 -1.2414  0.8095 -0.1348
    9GLY     CA   90   4.794   3.644   1.280  0.3037 -0.2855  0.4245
    9GLY    HA1   91   4.858   3.654   1.194 -3.8512  2.7312 -2.6723
    9GLY    HA2   92   4.839   3.643   1.378  1.3120  0.9795 -0.0006
    9GLY      C   93   4.715   3.760   1.258  0.1816  0.1665 -0.2962
    9GLY      O   94   4.597   3.754   1.230 -0.3004 -0.3494 -0.1433
   10ASP      N   95   4.778   3.878   1.261  0.3098  0.5608 -0.3387
   10ASP     HN   96   4.876   3.886   1.278  0.4155 -0.4406 -0.4241
   10ASP     CA   97   4.719   4.000   1.216 -0.0412 -0.0260 -0.7162
   10ASP     HA   98   4.623   4.006   1.266 -0.3010  0.3407 -1.2504
   10ASP     CB   99   4.803   4.127   1.245  0.7248  0.3466 -0.2346
   10ASP    HB1  100   4.746   4.216   1.211 -0.5818 -0.1761  0.5274
   10ASP    HB2  101   4.900   4.133   1.190 -0.0964 -2.8123 -2.3418
   10ASP     CG  102   4.827   4.146   1.389 -0.0015 -0.2965 -0.1929
   10ASP    OD1  103   4.929   4.216   1.415  0.0934 -0.4072  0.0233
   10ASP    OD2  104   4.752   4.112   1.484  0.7361  0.4265  0.5541
   10ASP      C  105   4.676   3.992   1.065 -0.0983 -0.0546  0.0759
   10ASP      O  106   4.755   3.940   0.986 -0.0269  0.0898  0.6928
   11GLY      N  107   4.561   4.058   1.033 -0.2900 -0.0466  0.4386
   11GLY     HN  108   4.514   4.098   1.112  0.5749 -1.7638  1.9067
   11GLY     CA  109   4.513   4.077   0.891 -0.0773  0.4930 -1.1815
   11GLY    HA1  110   4.526   3.984   0.838  1.1985 -1.6636  2.4937
   11GLY    HA2  111   4.566   4.162   0.852  1.5959 -1.2571 -2.8984
   11GLY      C  112   4.364   4.100   0.896 -0.2100  0.4812  0.5573
   11GLY    OT1  113   4.292   4.012   0.840  0.4778 -0.0341 -0.6024
   11GLY    OT2  114   4.317   4.207   0.941  0.0571  0.5658 -0.6586
   12SOD    SOD  115   7.145   3.549   1.468 -0.7658  0.6026 -0.0339
   13SOD    SOD  116   0.089   4.973   2.675 -0.2753 -0.2031  0.3164
   14SOD    SOD  117   0.618   4.499   4.188 -0.3706  0.2813  0.2660
   15SOD    SOD  118   1.611   0.754   3.253 -0.0546 -0.2776  0.1231
   16SOD    SOD  119   3.982   6.304   4.349 -0.5040  0.1888 -0.3569
   17SOD    SOD  120   2.597   4.480   2.638  0.5173 -0.6289 -0.0092
   18SOD    SOD  121   1.528   0.188   1.247  0.3200 -0.0464  0.6972
   19SOD    SOD  122   0.094   2.913   2.422  0.4416  0.2951  0.1009
   20SOD    SOD  123   0.740   2.844   3.317 -0.3625  0.1568  0.6746
   21SOD    SOD  124   2.972   5.847   0.407  0.6619 -0.6137 -0.2905
   22SOD    SOD  125   2.032   4.796   3.806 -0.3332  0.1399  0.4503
   23SOD    SOD  126   5.044   2.344   1.213 -0.3926  0.3782  0.5251
   24SOD    SOD  127   2.056   0.987   4.802 -1.0653  0.0666 -0.1783
   25SOD    SOD  128   6.718   3.185   4.114 -0.6230  0.1368 -0.5658
   26SOD    SOD  129   2.121   2.915   4.217  0.0481 -0.0765  0.1655
   27SOD    SOD  130   6.171   6.266   3.511  0.2265  0.0669  0.2337
   28SOD    SOD  131   6.821   1.628   2.944  0.0267  0.4098 -0.5153
   29SOD    SOD  132   3.954   1.331   1.776 -0.1746 -0.4109 -0.1228
   30SOD    SOD  133   4.944   0.198   3.286 -0.6108  0.0904 -0.0313
   31SOD    SOD  134   2.074   6.644   5.671 -0.2949 -0.4528  0.3974
   32SOD    SOD  135   0.144   5.202   0.931 -0.0963 -0.4005 -0.2315
   33SOD    SOD  136   1.873   2.290   3.173 -0.1511 -0.1843 -0.0629
   34SOD    SOD  137   1.482   5.649   2.952  0.0717 -0.1902 -0.5661
   35SOD    SOD  138   6.607   0.073   4.294  0.0996 -0.1658 -0.1676
   36SOD    SOD  139   6.265   2.590   2.742 -0.2597  0.5797  0.5434
   37SOD    SOD  140   5.498   3.752   3.225 -0.0017  0.0799 -0.1190
   38SOD    SOD  141   3.987   2.175   0.953  0.0062 -0.3914 -0.0860
   39SOD    SOD  142   4.796   6.787   1.255  0.2057 -0.4777  0.5113
   40SOD    SOD  143   3.734   6.092   1.179  0.7097 -0.0492  0.0884
   41SOD    SOD  144   1.624   1.887   4.104  0.3308  0.1664 -0.0931
   42SOD    SOD  145   4.090   0.582   2.018 -0.2495  0.1755 -0.3553
   43CLA    CLA  146   4.601   3.830   3.161  0.0770 -0.1962 -0.1141
   44CLA    CLA  147   3.642   0.120   2.532 -0.1690  0.2884 -0.1148
   45CLA    CLA  148   5.391   4.478   1.529 -0.2363  0.0429 -0.6749
   46CLA    CLA  149   4.586   5.930   2.218  0.3124 -0.3794 -0.3083
   47CLA    CLA  150   5.916   3.081   0.019  0.0360 -0.0101  0.3080
   48CLA    CLA  151   2.053   3.130   3.074  0.3660  0.0621  0.2476
   49CLA    CLA  152   2.328   1.273   1.297 -0.3202  0.0260 -0.3317
   50CLA    CLA  153   1.986   5.271   3.722 -0.0556  0.3327 -0.0299
   51CLA    CLA  154   1.011   2.189   3.472  0.4628  0.1205 -0.3140
   52CLA    CLA  155   3.368   2.252   0.631  0.3350  0.2731  0.0509
   53CLA    CLA  156   1.289   0.632   2.453  0.2743  0.1201  0.6173
   54CLA    CLA  157   2.340   1.255   0.510  0.1243  0.3248  0.2127
   55CLA    CLA  158   4.264   5.724   3.147  0.0984 -0.3635 -0.4060
   56CLA    CLA  159   2.197   5.999   4.755  0.3384  0.2978 -0.1329
   57CLA    CLA  160   3.666   6.372   0.401  0.0483  0.2857 -0.0480
   58CLA    CLA  161   1.780   4.801   3.003 -0.5764 -0.1990 -0.5571
   59CLA    CLA  162   0.227   3.355   3.555 -0.0189 -0.5409 -0.0374
   60CLA    CLA  163   2.863   4.696   3.391  0.1856  0.3928 -0.0624
   61CLA    CLA  164   3.187   5.904   0.880 -0.3359  0.5364 -0.0738
   62CLA    CLA  165   0.058   1.434   2.551  0.5260  0.0129  0.0862
   63CLA    CLA  166   6.668   2.224   3.899 -0.1449 -0.0009 -0.1467
   64CLA    CLA  167   3.243   4.571   0.460  0.0280  0.2072  0.3976
   65CLA    CLA  168   5.105   0.571   3.553  0.0419  0.1071  0.2818
   66CLA    CLA  169   5.996   0.662   4.616 -0.2475 -0.2491  0.0666
   67CLA    CLA  170   1.399   0.790   1.669  0.1905  0.2078 -0.1746
   68CLA    CLA  171   7.055   0.239   4.296  0.3136 -0.3854 -0.3402
   69CLA    CLA  172   6.208   2.804   5.170 -0.1552 -0.1303  0.1289
   70TIP3   OH2  173   3.082   5.752   3.263 -0.0086 -0.1178  0.0431
   70TIP3    H1  174   3.120   5.699   3.193 -0.2127 -0.1618 -0.0352
   70TIP3    H2  175   3.129   5.726   3.342 -1.4694 -1.9142  0.3965
   71TIP3   OH2  176   1.996   5.393   3.270 -0.1381  0.2419 -0.3134
   71TIP3    H1  177   2.057   5.340   3.322  0.5301  2.0291  0.8349
   71TIP3    H2  178   1.969   5.336   3.199  2.7207 -0.7309 -0.7391
   72TIP3   OH2  179   2.662   4.602   0.769 -0.2936  0.4888 -0.4328
   72TIP3    H1  180   2.734   4.583   0.708 -0.0329  0.2900 -0.0655
   72TIP3    H2  181   2.635   4.517   0.801  0.4921  0.6810  0.7827
   73TIP3   OH2  182   2.632   6.111   2.111  0.0682 -0.2853 -0.1023
   73TIP3    H1  183   2.659   6.198   2.138 -0.1189 -0.3556  0.3144
   73TIP3    H2  184   2.695   6.052   2.152  0.1096 -0.3558 -0.2669
   74TIP3   OH2  185   6.310   6.433   0.868 -0.1538 -0.3451  0.2364
   74TIP3    H1  186   6.276   6.363   0.812 -1.0907  0.6165 -0.4363
   74TIP3    H2  187   6.403   6.413   0.876 -0.2342 -1.2001 -0.6373
   75TIP3   OH2  188   4.772   5.394   4.204  0.1123  0.1165 -0.3763
   75TIP3    H1  189   4.701   5.457   4.214  0.2364  0.0967  0.9130
   75TIP3    H2  190   4.754   5.349   4.122  0.0321  1.8346 -1.3335
   76TIP3   OH2  191   3.946   4.434   3.473  0.5465 -0.1819 -0.4650
   76TIP3    H1  192   3.949   4.529   3.467  0.3953 -0.1207  0.3368
   76TIP3    H2  193   4.035   4.409   3.498 -0.0768  0.0115  2.3428
   77TIP3   OH2  194   2.998   2.651   0.196 -0.3234  0.0921 -0.3988
   77TIP3    H1  195   3.040   2.631   0.113 -0.4258  0.5608 -0.5670
   77TIP3    H2  196   2.939   2.725   0.177  0.8781  1.3220  0.4396
   78TIP3   OH2  197   7.204   4.149   0.043  0.3394  0.5394  0.2789
   78TIP3    H1  198   7.221   4.055   0.051  0.2393  0.6294  1.9359
   78TIP3    H2  199   7.129   4.155  -0.015 -1.8166 -0.6731  2.7544
   79TIP3   OH2  200   2.600   1.457   4.459 -0.0363  0.2931  0.1965
   79TIP3    H1  201   2.623   1.413   4.378 -0.9542  0.0980  0.0340
   79TIP3    H2  202   2.530   1.517   4.435 -0.1501  0.4125  0.7960
   80TIP3   OH2  203   0.166   2.739   3.587 -0.3320 -0.1632 -0.0829
   80TIP3    H1  204   0.108   2.792   3.533  0.6350  1.6022  0.5402
   80TIP3    H2  205   0.162   2.652   3.547 -0.2976  0.8541 -2.4871
   81TIP3   OH2  206   6.522   2.797   1.358 -0.8936 -0.3501  0.5818
   81TIP3    H1  207   6.492   2.753   1.438 -2.2287  1.5006  1.1712
   81TIP3    H2  208   6.609   2.760   1.341 -0.3226 -0.4036  3.2218
   82TIP3   OH2  209   7.189   1.313   3.580 -0.7329 -0.6354 -0.8053
   82TIP3    H1  210   7.252   1.254   3.621  0.0848  0.2852 -0.6995
   82TIP3    H2  211   7.185   1.285   3.488  3.4948  2.1079 -2.1170
   83TIP3   OH2  212   7.005   6.058   4.829 -0.3472  0.1796 -0.0027
   83TIP3    H1  213   7.055   6.070   4.748 -0.6278  1.4165 -0.0085
   83TIP3    H2  214   6.915   6.042   4.800 -0.3079 -0.1337  0.0481
   84TIP3   OH2  215   3.310   4.331   0.200  0.1432 -0.4391  0.2229
   84TIP3    H1  216   3.225   4.359   0.166  0.5265 -0.3701 -0.7003
   84TIP3    H2  217   3.309   4.359   0.292 -0.7621 -0.2935  0.1817
   85TIP3   OH2  218   1.050   5.816   3.897 -0.4944 -0.2775 -0.0088
   85TIP3    H1  219   1.066   5.911   3.902 -0.1664 -0.2385 -1.2840
   85TIP3    H2  220   1.124   5.783   3.845 -1.2624 -1.0549 -0.6219
   86TIP3   OH2  221   4.723   0.245   1.424 -0.6557 -0.2550  0.1055
   86TIP3    H1  222   4.673   0.173   1.464 -0.2513 -0.1690  0.7873
   86TIP3    H2  223   4.795   0.202   1.379 -0.1917 -0.2718  0.8370
   87TIP3   OH2  224   6.326   1.523   0.050 -0.0958  0.2787 -0.3985
   87TIP3    H1  225   6.340   1.429   0.042  0.8652  0.3372  0.3913
   87TIP3    H2  226   6.236   1.532   0.083  0.0392 -0.3994  0.1710
   88TIP3   OH2  227   5.940   4.894   1.650  0.5129 -0.0993  0.2747
   88TIP3    H1  228   5.874   4.867   1.586 -0.1775 -0.9936  1.3180
   88TIP3    H2  229   6.024   4.874   1.609  0.1807  1.2933 -1.1799
   89TIP3   OH2  230   0.326   2.157   2.873 -0.2896 -0.1098  0.2965
   89TIP3    H1  231   0.329   2.252   2.863 -0.1699 -0.1848 -0.3969
   89TIP3    H2  232   0.266   2.127   2.805 -2.3746 -0.3167  2.0920
   90TIP3   OH2  233   3.759   1.682   3.012 -0.4571 -0.1479  0.2976
   90TIP3    H1  234   3.678   1.733   3.020 -0.2645  0.1429  0.4225
   90TIP3    H2  235   3.828   1.748   3.003 -0.2667 -0.3988 -0.1247
   91TIP3   OH2  236   3.977   4.062   0.540 -0.1858  0.2773 -0.3190
   91TIP3    H1  237   3.974   4.082   0.634  0.6540 -0.4804 -0.1078
   91TIP3    H2  238   3.897   4.012   0.524  0.6423 -1.4065  0.4796
   92TIP3   OH2  239   0.091   4.627   4.927 -0.0050 -0.2663  0.0357
   92TIP3    H1  240   0.010   4.678   4.930 -0.1354 -0.4956  0.6826
   92TIP3    H2  241   0.145   4.664   4.997  0.9785  0.7274 -1.1933
   93TIP3   OH2  242   5.647   3.661   2.847  0.1469 -0.0003 -0.1460
   93TIP3    H1  243   5.605   3.736   2.805  1.6842 -0.0276 -1.8668
   93TIP3    H2  244   5.591   3.641   2.922 -1.5883  1.3668 -1.0031
   94TIP3   OH2  245   4.201   0.782   5.205 -0.1600  0.4932  0.4360
   94TIP3    H1  246   4.115   0.821   5.221 -0.0506  1.6558 -1.4031
   94TIP3    H2  247   4.248   0.849   5.156  1.2358 -0.7291  0.0386
   95TIP3   OH2  248   3.877   2.378   3.237 -0.0244  0.0652 -0.3582
   95TIP3    H1  249   3.961   2.345   3.203  0.6234 -0.4267  1.5736
   95TIP3    H2  250   3.899   2.463   3.273 -0.2633 -0.2326  0.4987
   96TIP3   OH2  251   0.795   1.821   5.536  0.2609 -0.1250  0.3911
   96TIP3    H1  252   0.781   1.736   5.494  1.0176  0.2651 -0.6938
   96TIP3    H2  253   0.889   1.834   5.533  0.1828  0.5999  0.8740
   97TIP3   OH2  254   4.884   4.707   3.341  0.3821  0.3410  0.3311
   97TIP3    H1  255   4.945   4.649   3.296  0.0191  0.4846 -0.3600
   97TIP3    H2  256   4.924   4.794   3.335  1.1655  0.1170  1.7897
   98TIP3   OH2  257   4.000   4.527   2.813  0.0292 -0.3337 -0.4104
   98TIP3    H1  258   4.061   4.453   2.810  0.5560 -0.0581  1.5694
   98TIP3    H2  259   3.915   4.489   2.791 -0.2386 -2.2537  3.0713
   99TIP3   OH2  260   0.143   4.816   1.008  0.0300 -0.1827  0.4092
   99TIP3    H1  261   0.099   4.842   1.089  0.0010  2.9395 -0.4888
   99TIP3    H2  262   0.072   4.798   0.946  0.0574 -1.0530  0.6181
  100TIP3   OH2  263   2.722   5.946   1.054  0.2657 -0.0546 -0.0883
  100TIP3    H1  264   2.682   5.929   1.140 -0.1942  0.5634 -0.1702
  100TIP3    H2  265   2.814   5.925   1.066  0.4104  1.0341  0.8685
  101TIP3   OH2  266   5.844   3.973   3.280  0.4963 -0.8311 -0.1651
  101TIP3    H1  267   5.909   4.016   3.224  0.3420 -0.2658  0.0742
  101TIP3    H2  268   5.809   4.045   3.333  0.8753 -1.4120  0.8896
  102TIP3   OH2  269   4.408   4.091   0.392 -0.0939 -0.3097 -0.3294
  102TIP3    H1  270   4.437   4.035   0.319 -1.0767  0.0307 -0.9925
  102TIP3    H2  271   4.383   4.029   0.461  0.8002 -0.6358 -0.2856
  103TIP3   OH2  272   5.345   2.494   3.944  0.1494  0.8429  0.0357
  103TIP3    H1  273   5.401   2.416   3.952  0.2689  1.0199  1.0144
  103TIP3    H2  274   5.258   2.464   3.971 -0.0933  0.7391 -0.8272
  104TIP3   OH2  275   4.275   0.355   0.858 -0.2743 -0.1856  0.2646
  104TIP3    H1  276   4.224   0.296   0.803 -0.2536 -0.3328  0.4027
  104TIP3    H2  277   4.357   0.366   0.812 -0.7957  0.8439 -0.4624
  105TIP3   OH2  278   3.461   4.317   5.038 -0.2197  0.0546 -0.2922
  105TIP3    H1  279   3.487   4.310   4.946  0.1300 -2.8518 -0.0449
  105TIP3    H2  280   3.367   4.336   5.035  0.1354  1.8606 -1.1976
  106TIP3   OH2  281   2.376   1.485   3.442  0.0119 -0.2785  0.2911
  106TIP3    H1  282   2.330   1.420   3.495  1.2115 -0.5583  1.0125
  106TIP3    H2  283   2.444   1.436   3.397  1.2186  0.5187  1.1830
  107TIP3   OH2  284   2.531   0.890   2.003 -0.0263 -0.0806 -0.8898
  107TIP3    H1  285   2.471   0.832   1.957 -0.5998  0.6610 -1.0924
  107TIP3    H2  286   2.493   0.977   1.993  0.8942  0.3574 -0.7190
  108TIP3   OH2  287   2.339   6.322   1.562 -0.5685  0.1583 -0.1388
  108TIP3    H1  288   2.276   6.276   1.506 -0.9783  2.5435 -1.7792
  108TIP3    H2  289   2.419   6.327   1.509  0.5197 -1.3545  1.2711
  109TIP3   OH2  290   2.631   4.352   1.805 -0.5161 -0.0419 -0.7429
  109TIP3    H1  291   2.614   4.375   1.714 -1.8181  0.4630 -0.3895
  109TIP3    H2  292   2.576   4.411   1.856  2.1715  1.5727  0.5269
  110TIP3   OH2  293   0.594   1.955   2.068 -0.0694  0.1441 -0.2481
  110TIP3    H1  294   0.649   1.896   2.015  0.6310  0.3242  0.2660
  110TIP3    H2  295   0.604   1.923   2.157 -0.4265  0.4787 -0.0845
  111TIP3   OH2  296   6.924   1.359   3.651  0.0492 -0.8401  0.5299
  111TIP3    H1  297   6.889   1.448   3.663 -1.0738 -0.9813 -1.2710
  111TIP3    H2  298   7.016   1.373   3.631 -0.3054  0.0512 -0.6847
  112TIP3   OH2  299   2.130   2.176   0.905  0.5994 -0.3970  0.0874
  112TIP3    H1  300   2.048   2.127   0.907 -0.4436  1.2732  0.8573
  112TIP3    H2  301   2.176   2.144   0.827 -0.6746 -1.5388 -0.2264
  113TIP3   OH2  302   3.976   3.398   1.421 -0.5243  0.0692  0.2975
  113TIP3    H1  303   4.047   3.419   1.482 -1.4842  1.1816  1.0831
  113TIP3    H2  304   3.941   3.484   1.395 -1.4010 -0.4556 -0.3023
  114TIP3   OH2  305   5.064   6.691   5.434  0.1304 -0.3885 -0.3118
  114TIP3    H1  306   5.094   6.606   5.465 -1.7226  0.1405  3.3828
  114TIP3    H2  307   5.073   6.749   5.509 -0.6213  2.1902 -2.0838
  115TIP3   OH2  308   2.633   4.778   1.971 -0.0613 -0.0942  0.3494
  115TIP3    H1  309   2.544   4.749   1.951 -0.1358 -0.2979  0.9402
  115TIP3    H2  310   2.626   4.820   2.057  0.6582 -1.4005  1.0791
  116TIP3   OH2  311   6.979   4.215   0.767  0.0741 -1.0891  0.4502
  116TIP3    H1  312   6.906   4.273   0.789  0.9748  0.3731 -0.3099
  116TIP3    H2  313   7.057   4.268   0.779  0.8854 -1.8420 -1.1695
  117TIP3   OH2  314   1.100   5.606   0.617 -0.2506  0.7055  0.3818
  117TIP3    H1  315   1.015   5.616   0.660 -0.0488  0.6206  0.8014
  117TIP3    H2  316   1.125   5.695   0.591 -0.8318  0.6332 -0.4458
  118TIP3   OH2  317   0.713   2.467   4.899 -0.5561 -0.1056 -0.8215
  118TIP3    H1  318   0.796   2.455   4.946 -0.8510 -1.3570 -0.6036
  118TIP3    H2  319   0.722   2.553   4.857  1.7293 -1.0429 -2.5092
  119TIP3   OH2  320   3.293   3.000   1.611 -0.6554 -0.3968 -0.0641
  119TIP3    H1  321   3.259   3.081   1.573 -0.9934 -0.1448  0.7665
  119TIP3    H2  322   3.338   3.027   1.691  2.7378 -0.5265 -1.7243
  120TIP3   OH2  323   6.292   3.114   4.107  0.4689  0.0929 -0.5440
  120TIP3    H1  324   6.234   3.188   4.093  2.0316  1.4426 -0.1134
  120TIP3    H2  325   6.240   3.052   4.158 -1.1478  0.4766 -1.6680
  121TIP3   OH2  326   2.898   6.133   0.057 -1.0913  0.0126 -0.0644
  121TIP3    H1  327   2.938   6.089   0.133 -0.0451 -0.2937 -0.7588
  121TIP3    H2  328   2.878   6.221   0.088  0.9319  0.4694  0.1276
  122TIP3   OH2  329   6.854   1.678   3.640  0.3757 -0.0784  0.3348
  122TIP3    H1  330   6.948   1.686   3.658  0.3016  1.2993  0.2125
  122TIP3    H2  331   6.827   1.767   3.617 -0.7002 -0.7097 -0.9122
  123TIP3   OH2  332   4.772   5.462   2.097  0.5893 -0.0506  0.4242
  123TIP3    H1  333   4.836   5.441   2.166  3.0444 -0.4401 -1.7798
  123TIP3    H2  334   4.792   5.553   2.073 -0.4908  0.2048  0.4612
  124TIP3   OH2  335   0.383   6.608   3.854  0.2357  0.4034 -0.2030
  124TIP3    H1  336   0.413   6.634   3.767 -1.1614  2.9543 -0.0220
  124TIP3    H2  337   0.412   6.518   3.863  1.3605  0.3970 -2.8748
  125TIP3   OH2  338   2.201   4.377   2.760  0.7112  0.2627 -1.0491
  125TIP3    H1  339   2.225   4.431   2.835  3.1751  0.6003 -1.9990
  125TIP3    H2  340   2.122   4.418   2.725  1.3814  2.0691 -0.5438
  126TIP3   OH2  341   3.956   1.866   0.055  0.2061  0.2701  0.1444
  126TIP3    H1  342   3.999   1.949   0.074 -0.6149  0.1949  2.8663
  126TIP3    H2  343   3.866   1.877   0.087 -0.6156 -0.9281 -1.5767
  127TIP3   OH2  344   5.942   2.057   3.832 -0.6735  0.0051 -0.6117
  127TIP3    H1  345   5.850   2.079   3.816 -0.3213  2.2567  0.1561
  127TIP3    H2  346   5.982   2.056   3.745 -0.6412  3.0805 -0.7158
  128TIP3   OH2  347   0.435   1.898   5.178  0.4162  0.5058  0.1405
  128TIP3    H1  348   0.503   1.842   5.216  0.8447  0.3126 -0.8731
  128TIP3    H2  349   0.389   1.935   5.254 -0.5926 -2.0622  0.8955
  129TIP3   OH2  350   2.201   5.037   0.790 -0.3644 -0.6517 -0.3802
  129TIP3    H1  351   2.291   5.069   0.799 -0.4638 -0.8002  1.6114
  129TIP3    H2  352   2.150   5.115   0.770  0.0931 -0.4442 -0.7663
  130TIP3   OH2  353   4.496   1.971   2.944  0.0858 -0.0121  0.5214
  130TIP3    H1  354   4.493   2.054   2.992 -0.5203  0.4718 -0.3383
  130TIP3    H2  355   4.561   1.985   2.876 -0.0985 -0.2024  0.3067
  131TIP3   OH2  356   1.872   6.544   5.608 -0.2391 -0.6528  0.2729
  131TIP3    H1  357   1.858   6.498   5.525 -0.7345  0.5202 -0.3098
  131TIP3    H2  358   1.819   6.495   5.671 -0.9891 -0.7222 -0.3974
  132TIP3   OH2  359   2.798   6.096   0.652 -0.7283  0.2207  0.0196
  132TIP3    H1  360   2.717   6.048   0.663 -0.0985 -0.6655  0.9670
  132TIP3    H2  361   2.840   6.055   0.577 -0.1694 -0.7862  0.8553
  133TIP3   OH2  362   3.598   5.868   4.022 -0.9514  0.5243  0.5183
  133TIP3    H1  363   3.653   5.803   4.065 -1.1777 -0.4997 -0.7002
  133TIP3    H2  364   3.568   5.924   4.093  1.3949  0.9377  1.2520
  134TIP3   OH2  365   3.286   1.854   3.436  0.5543 -0.2013  0.9738
  134TIP3    H1  366   3.326   1.858   3.349 -1.9790 -0.0291 -0.2767
  134TIP3    H2  367   3.339   1.790   3.483  1.3217 -1.2065 -1.1009
  135TIP3   OH2  368   5.352   1.383   2.070  0.4110  0.6545  0.1194
  135TIP3    H1  369   5.278   1.435   2.102  1.2572  1.6359  0.5554
  135TIP3    H2  370   5.427   1.418   2.117  0.9394 -1.4460  0.9214
  136TIP3   OH2  371   1.772   2.845   5.732 -0.1366 -0.4460  0.1225
  136TIP3    H1  372   1.804   2.930   5.764  2.4209 -1.8918  1.7540
  136TIP3    H2  373   1.723   2.809   5.806  0.8172 -1.3335  0.3557
  137TIP3   OH2  374   5.626   4.248   4.731 -0.4808  0.1502  0.3071
  137TIP3    H1  375   5.533   4.249   4.705 -0.2250  2.0466 -0.7043
  137TIP3    H2  376   5.640   4.333   4.772  0.9415  0.1170 -0.0600
  138TIP3   OH2  377   1.823   1.545   3.097  0.4459  0.7014  0.0845
  138TIP3    H1  378   1.818   1.530   3.003  2.2409 -1.3402  0.2619
  138TIP3    H2  379   1.740   1.510   3.131  0.7424 -0.6567 -0.5256
  139TIP3   OH2  380   5.268   2.365   2.568 -0.4930 -0.1623 -0.2545
  139TIP3    H1  381   5.315   2.287   2.599 -2.4971 -2.0933 -1.7444
  139TIP3    H2  382   5.292   2.373   2.476 -0.8348  0.5760 -0.2875
  140TIP3   OH2  383   5.821   3.688   0.088  0.8273 -0.1259 -0.2140
  140TIP3    H1  384   5.912   3.673   0.063  0.5768 -0.9279 -0.6890
  140TIP3    H2  385   5.771   3.631   0.030  0.0820 -0.4189  0.6907
  141TIP3   OH2  386   3.707   3.484   3.918  0.2991  0.2553 -0.4037
  141TIP3    H1  387   3.803   3.479   3.914  0.3503 -0.3023  0.9287
  141TIP3    H2  388   3.688   3.521   4.004 -0.6763  1.7069 -1.2080
  142TIP3   OH2  389   5.210   3.325   0.600  0.0972  0.0994  0.1878
  142TIP3    H1  390   5.134   3.267   0.609  0.1873  0.0366  0.5543
  142TIP3    H2  391   5.182   3.391   0.536 -0.0470 -0.2815 -0.1436
  143TIP3   OH2  392   6.746   4.194   0.101 -1.0360 -0.0858  0.6088
  143TIP3    H1  393   6.807   4.121   0.087 -0.2005  0.1610  2.5306
  143TIP3    H2  394   6.664   4.165   0.063 -0.0189 -0.8914 -1.0920
  144TIP3   OH2  395   6.532   5.158   1.295 -0.0663  0.1468 -0.2926
  144TIP3    H1  396   6.491   5.189   1.214  0.5219 -0.1427 -0.7036
  144TIP3    H2  397   6.478   5.084   1.322 -1.0848  1.0730  0.3358
  145TIP3   OH2  398   6.920   4.985   0.151 -0.0583 -0.6107  0.2841
  145TIP3    H1  399   6.839   4.938   0.135 -0.3151 -0.0983  0.0414
  145TIP3    H2  400   6.901   5.075   0.123  1.1799 -0.8828 -1.5855
  146TIP3   OH2  401   3.871   1.927   1.358 -0.0738  0.2414 -0.2546
  146TIP3    H1  402   3.850   1.912   1.450  2.8899  0.3413  0.5191
  146TIP3    H2  403   3.924   2.007   1.358  0.4274 -0.0502 -1.9977
  147TIP3   OH2  404   1.767   5.771   0.453  0.1170 -0.3337  0.1249
  147TIP3    H1  405   1.738   5.680   0.462  0.4703 -0.3069  1.8984
  147TIP3    H2  406   1.737   5.797   0.367  0.3411 -2.2558 -0.5952
  148TIP3   OH2  407   1.057   2.115   4.820  0.4000 -0.1114 -0.1550
  148TIP3    H1  408   1.068   2.181   4.751 -1.4589  3.0827  2.3090
  148TIP3    H2  409   1.136   2.121   4.872  1.4767 -2.0050 -1.4322
  149TIP3   OH2  410   5.115   4.782   1.692  0.3255  0.2379 -0.0795
  149TIP3    H1  411   5.105   4.745   1.604 -0.4972 -0.5482  0.3334
  149TIP3    H2  412   5.080   4.871   1.684  0.8106  0.3807 -0.6873
  150TIP3   OH2  413   4.397   4.974   0.883 -0.0099  0.1110 -0.1962
  150TIP3    H1  414   4.431   5.053   0.843  0.3194  0.3876  0.6082
  150TIP3    H2  415   4.450   4.903   0.846  0.4617  0.3870 -0.0570
  151TIP3   OH2  416   3.921   2.774   2.031 -0.2513  0.0989  0.1005
  151TIP3    H1  417   3.830   2.771   2.060 -0.1252  2.7085  0.9847
  151TIP3    H2  418   3.937   2.866   2.012  2.2492 -0.2830  0.0508
  152TIP3   OH2  419   2.019   2.381   1.820 -0.3426 -0.0211  0.2515
  152TIP3    H1  420   1.964   2.304   1.805  1.3757 -1.4617  0.9793
  152TIP3    H2  421   1.986   2.419   1.900 -1.1912 -0.0118 -0.0943
  153TIP3   OH2  422   0.122   3.472   4.268  0.1789  0.6982  0.6381
  153TIP3    H1  423   0.153   3.458   4.358 -0.5906 -0.7362  0.7053
  153TIP3    H2  424   0.101   3.385   4.236 -0.0561  1.2460 -0.7726
  154TIP3   OH2  425   3.990   5.295   2.050 -0.0972 -0.0085  0.2630
  154TIP3    H1  426   3.921   5.329   1.993  0.3128 -1.6611 -1.3053
  154TIP3    H2  427   3.955   5.304   2.139 -0.3056  3.7237 -0.0380
  155TIP3   OH2  428   2.200   2.033   0.357  0.6571 -0.7242 -0.7434
  155TIP3    H1  429   2.226   1.965   0.294 -0.7608 -0.8653 -1.2184
  155TIP3    H2  430   2.184   1.985   0.438 -1.7637 -1.2597 -1.4485
  156TIP3   OH2  431   0.663   0.272   0.317  0.3093  0.5261 -0.6277
  156TIP3    H1  432   0.631   0.327   0.389 -1.8219  0.0781 -1.1423
  156TIP3    H2  433   0.727   0.213   0.358 -0.7577  0.3592  0.9030
  157TIP3   OH2  434   1.087   2.416   0.782  0.0476  0.1625  0.7184
  157TIP3    H1  435   1.051   2.488   0.731  1.4405  0.2178 -0.2342
  157TIP3    H2  436   1.011   2.377   0.825 -1.1384  0.3291 -1.1228
  158TIP3   OH2  437   0.065   4.927   3.862 -0.2913  0.4974  0.3210
  158TIP3    H1  438   0.139   4.921   3.801  0.6638  2.5164  1.1838
  158TIP3    H2  439   0.093   4.876   3.938 -1.2406 -1.5230 -0.5846
  159TIP3   OH2  440   6.553   1.915   0.272  0.3307 -0.1724  0.4621
  159TIP3    H1  441   6.487   1.975   0.305 -0.1552 -0.5535  0.1949
  159TIP3    H2  442   6.503   1.847   0.226  0.7963 -1.2932  1.5628
  160TIP3   OH2  443   0.897   3.675   4.325  0.2285  0.0479 -0.2700
  160TIP3    H1  444   0.939   3.591   4.310 -0.6934 -0.5942  0.5832
  160TIP3    H2  445   0.872   3.706   4.237  0.3788 -0.6736 -0.5701
  161TIP3   OH2  446   0.499   5.883   2.640 -0.1866  0.1970 -0.0199
  161TIP3    H1  447   0.568   5.863   2.704  0.6168  1.0043 -0.5984
  161TIP3    H2  448   0.419   5.851   2.680  0.4756 -0.4287  0.8446
  162TIP3   OH2  449   5.737   0.938   2.087  0.1707  0.1781 -0.2890
  162TIP3    H1  450   5.728   0.846   2.062 -1.8899  1.0000 -3.1020
  162TIP3    H2  451   5.770   0.935   2.177 -1.4803 -3.3321  0.3939
  163TIP3   OH2  452   0.850   6.587   2.670  0.1173 -0.1730  0.0831
  163TIP3    H1  453   0.836   6.674   2.708  0.1470 -1.1379  2.5045
  163TIP3    H2  454   0.911   6.601   2.598 -2.1083  2.1706 -1.5228
  164TIP3   OH2  455   6.833   3.625   5.889  0.5376  0.5203 -0.3059
  164TIP3    H1  456   6.908   3.567   5.874  0.9394  1.0700 -0.4349
  164TIP3    H2  457   6.858   3.708   5.849  0.2007  0.9652  0.3882
  165TIP3   OH2  458   4.191   0.117   5.362 -0.5986  0.2390 -0.1361
  165TIP3    H1  459   4.141   0.087   5.437 -2.4666 -0.5881 -1.6318
  165TIP3    H2  460   4.169   0.210   5.353  0.3565  0.5786  0.8414
  166TIP3   OH2  461   4.120   2.698   3.744  0.1020  0.4792 -0.4773
  166TIP3    H1  462   4.115   2.651   3.827  1.8580  1.7650  0.4198
  166TIP3    H2  463   4.064   2.648   3.685 -1.3969 -0.3422  1.5233
  167TIP3   OH2  464   1.204   1.061   1.989  0.1003 -0.1911  0.1522
  167TIP3    H1  465   1.215   1.142   2.039 -0.1090  0.6669 -1.1262
  167TIP3    H2  466   1.279   1.058   1.931 -2.2292  1.8096 -3.3630
  168TIP3   OH2  467   2.234   0.953   4.964  0.0090 -0.2868  0.3047
  168TIP3    H1  468   2.310   1.000   4.998  0.5564 -2.3933  2.1828
  168TIP3    H2  469   2.222   0.880   5.024 -1.3438 -2.0478 -1.9763
  169TIP3   OH2  470   2.989   2.180   3.281  0.5670  0.6921  0.0940
  169TIP3    H1  471   2.926   2.221   3.342 -0.9630  0.8394 -1.4958
  169TIP3    H2  472   2.965   2.088   3.279  1.0280  0.5673  0.1925
  170TIP3   OH2  473   1.644   1.861   1.928 -0.0613 -0.3902 -0.3401
  170TIP3    H1  474   1.645   1.833   1.837  1.1256 -0.2356 -0.3977
  170TIP3    H2  475   1.707   1.933   1.932 -0.3575 -0.1625  0.5332
  171TIP3   OH2  476   3.971   1.931   5.150 -0.5090  0.6241 -0.1020
  171TIP3    H1  477   3.990   1.956   5.059 -0.1640  2.2710  0.3893
  171TIP3    H2  478   4.026   1.989   5.203  0.9525 -1.7555  1.1665
  172TIP3   OH2  479   4.904   1.332   3.054  0.6368 -0.0541 -0.0462
  172TIP3    H1  480   4.922   1.260   2.994  1.5050  0.3275 -0.2514
  172TIP3    H2  481   4.815   1.361   3.031  0.0572 -1.3931  0.3994
  173TIP3   OH2  482   0.266   1.503   4.691 -0.1442 -0.4705 -0.1969
  173TIP3    H1  483   0.312   1.494   4.608  1.4598  2.1630  0.2639
  173TIP3    H2  484   0.247   1.597   4.697 -1.6185 -0.8353  1.7123
  174TIP3   OH2  485   4.945   3.731   0.973  0.4851  0.4625 -0.5560
  174TIP3    H1  486   4.999   3.729   0.894  1.7650  1.6719  0.2546
  174TIP3    H2  487   4.875   3.793   0.953  0.0007 -0.2832 -1.2182
  175TIP3   OH2  488   4.532   0.737   3.122 -0.1017 -0.2263  0.3212
  175TIP3    H1  489   4.448   0.691   3.121  0.2739 -1.0048 -2.3297
  175TIP3    H2  490   4.598   0.668   3.121  0.5276  0.3638 -0.2080
  176TIP3   OH2  491   4.492   4.018   1.497 -0.7441  0.1841  0.0293
  176TIP3    H1  492   4.585   4.039   1.490 -0.3766 -1.1276  0.5951
  176TIP3    H2  493   4.447   4.090   1.453  0.4515  1.6578  1.1041
  177TIP3   OH2  494   6.079   5.776   2.892 -0.0725  0.4633 -0.1358
  177TIP3    H1  495   6.050   5.764   2.801  2.4182 -0.2062 -0.9308
  177TIP3    H2  496   6.122   5.861   2.892 -1.1539  1.0451  0.7970
  178TIP3   OH2  497   5.245   2.339   1.091 -0.4533  0.0076  0.1085
  178TIP3    H1  498   5.303   2.412   1.067 -0.9369  0.8478  1.3567
  178TIP3    H2  499   5.305   2.268   1.114  0.1677  1.0399  1.9158
  179TIP3   OH2  500   5.578   0.667   4.988  0.4791 -0.7200 -0.0316
  179TIP3    H1  501   5.620   0.610   4.923  0.6371 -0.4850 -0.1366
  179TIP3    H2  502   5.649   0.698   5.043  0.4421 -0.3544 -0.1843
  180TIP3   OH2  503   4.694   1.945   0.306  0.6278  0.1071  0.4212
  180TIP3    H1  504   4.646   1.948   0.389 -0.0583  1.6489  0.0083
  180TIP3    H2  505   4.778   1.986   0.324  0.7372 -0.1515  0.5037
  181TIP3   OH2  506   2.129   1.052   1.665 -0.2132  0.0492  0.1243
  181TIP3    H1  507   2.048   1.045   1.615 -1.1189 -0.0595  1.5593
  181TIP3    H2  508   2.110   1.009   1.749  1.5688 -0.6808  0.2077
  182TIP3   OH2  509   0.643   6.414   2.733  1.0451 -0.2887 -0.1784
  182TIP3    H1  510   0.729   6.455   2.723  1.1889 -0.5536 -0.0465
  182TIP3    H2  511   0.642   6.344   2.667  0.8219 -0.1068 -0.3680
  183TIP3   OH2  512   4.705   2.367   5.057 -0.1698  0.3685 -1.0026
  183TIP3    H1  513   4.632   2.422   5.029 -0.7848 -0.1091 -0.3772
  183TIP3    H2  514   4.727   2.401   5.144 -1.1529 -0.9215 -0.2135
  184TIP3   OH2  515   2.502   5.252   2.501  0.1917 -0.3421  0.2548
  184TIP3    H1  516   2.414   5.279   2.525  0.8054  3.1531 -0.7974
  184TIP3    H2  517   2.558   5.284   2.572  0.8230 -0.4574 -0.1761
  185TIP3   OH2  518   4.982   1.930   1.017 -0.3131 -0.2750  0.0699
  185TIP3    H1  519   5.034   2.006   0.991 -0.1966 -0.4744 -0.2948
  185TIP3    H2  520   4.958   1.947   1.108 -0.4932  0.3077 -0.0855
  186TIP3   OH2  521   5.282   3.439   4.574 -0.0639 -0.3502  0.6448
  186TIP3    H1  522   5.299   3.455   4.481 -0.1426  0.0494  0.6941
  186TIP3    H2  523   5.204   3.383   4.575  0.0693 -0.5402  0.4654
  187TIP3   OH2  524   3.691   3.877   3.772  0.0096 -0.0031  0.0529
  187TIP3    H1  525   3.666   3.969   3.777  0.0946  0.0145  0.1737
  187TIP3    H2  526   3.784   3.878   3.747  0.8415  0.0478  2.7544
  188TIP3   OH2  527   3.408   2.977   2.353 -0.1155 -0.4077  0.2068
  188TIP3    H1  528   3.441   3.057   2.394 -0.5152  0.8538 -1.7954
  188TIP3    H2  529   3.405   2.913   2.424  0.6143  1.2243  1.7821
  189TIP3   OH2  530   1.380   1.753   1.762  0.3639 -0.1602  0.6291
  189TIP3    H1  531   1.468   1.717   1.756  0.5815  0.1860  1.4850
  189TIP3    H2  532   1.385   1.836   1.714  0.1954 -0.6747 -0.2854
  190TIP3   OH2  533   2.653   4.527   4.379 -0.2000 -0.5849  0.3281
  190TIP3    H1  534   2.574   4.514   4.328 -0.0243  0.0425 -0.1211
  190TIP3    H2  535   2.633   4.490   4.465 -0.3819 -1.9699 -0.2857
  191TIP3   OH2  536   4.922   5.293   5.249  0.3384  0.4868 -0.5977
  191TIP3    H1  537   4.925   5.283   5.153 -0.3175  0.9557 -0.6759
  191TIP3    H2  538   4.871   5.218   5.279 -1.0634  1.3240 -0.8025
  192TIP3   OH2  539   3.061   4.781   3.616  0.0909  0.2390  0.1817
  192TIP3    H1  540   3.142   4.789   3.565 -0.1168  0.7395 -0.0770
  192TIP3    H2  541   2.993   4.767   3.550 -0.0822  0.1813  0.3721
  193TIP3   OH2  542   3.079   5.725   1.335 -0.3901 -0.2530 -0.0995
  193TIP3    H1  543   3.064   5.818   1.317 -0.0656 -0.2746 -0.5052
  193TIP3    H2  544   2.993   5.690   1.356 -0.5936  0.0390 -0.4314
  194TIP3   OH2  545   5.513   1.845   0.698 -0.1378 -0.2201  0.2993
  194TIP3    H1  546   5.520   1.753   0.726  0.6335 -0.0928  0.5327
  194TIP3    H2  547   5.424   1.870   0.724 -0.7546 -1.2044 -0.7224
  195TIP3   OH2  548   1.843   4.435   3.654 -0.5790  0.0973 -0.5442
  195TIP3    H1  549   1.897   4.513   3.639 -0.0226 -0.3396 -0.8772
  195TIP3    H2  550   1.814   4.409   3.567  0.3456 -0.8256 -0.6027
  196TIP3   OH2  551   4.692   5.782   0.729 -0.0949  0.0470  0.1138
  196TIP3    H1  552   4.707   5.720   0.800  0.3947  1.3272  1.1437
  196TIP3    H2  553   4.620   5.837   0.759  0.4190  0.8917 -0.1636
  197TIP3   OH2  554   3.800   6.674   4.301 -0.0348  0.4556 -0.0780
  197TIP3    H1  555   3.752   6.756   4.300  0.4583  0.7798 -1.9834
  197TIP3    H2  556   3.765   6.624   4.227  1.1275 -0.1429 -0.2571
  198TIP3   OH2  557   3.461   3.603   1.793 -0.3611 -0.0763 -0.8910
  198TIP3    H1  558   3.484   3.535   1.731  1.2807 -2.0469  1.6964
  198TIP3    H2  559   3.525   3.673   1.778 -0.0909 -0.4493 -1.5028
  199TIP3   OH2  560   4.679   1.144   2.697  0.1115  0.0506  0.2860
  199TIP3    H1  561   4.695   1.109   2.609  1.1164 -0.9396  0.8321
  199TIP3    H2  562   4.622   1.079   2.738 -0.4334  0.5612  0.3490
  200TIP3   OH2  563   0.723   4.584   4.987 -0.3777 -0.3272  0.4771
  200TIP3    H1  564   0.705   4.607   5.078  0.4298  0.3346  0.4896
  200TIP3    H2  565   0.727   4.489   4.986 -0.3198 -0.3350  1.1566
  201TIP3   OH2  566   2.403   2.027   5.096 -0.2003 -0.4633  0.3246
  201TIP3    H1  567   2.435   1.985   5.176  2.0983  0.5050  0.0034
  201TIP3    H2  568   2.355   1.958   5.050 -1.7757 -0.9844  2.5739
  202TIP3   OH2  569   5.454   6.302   5.037 -0.0094  0.1212 -0.1503
  202TIP3    H1  570   5.542   6.297   5.075 -0.5096  0.3361  1.0867
  202TIP3    H2  571   5.441   6.217   4.995  0.0650 -0.6485  1.3296
  203TIP3   OH2  572   5.151   1.389   0.769 -0.1192  0.5544  0.2290
  203TIP3    H1  573   5.227   1.349   0.728  0.0871 -0.0185  1.1332
  203TIP3    H2  574   5.097   1.315   0.797  0.6050  0.8410  2.5661
  204TIP3   OH2  575   3.904   2.082   4.186  0.0190  0.0020  0.2978
  204TIP3    H1  576   3.941   2.153   4.237 -0.7748  0.7858 -0.1873
  204TIP3    H2  577   3.834   2.123   4.135  0.4548 -0.8443 -1.0415
  205TIP3   OH2  578   1.407   0.860   4.956 -0.0164  0.3779 -0.3607
  205TIP3    H1  579   1.487   0.844   4.906  0.6413  0.9184  0.5095
  205TIP3    H2  580   1.340   0.875   4.888  0.7834  0.7406 -1.0914
  206TIP3   OH2  581   1.409   1.852   3.372 -0.1652  0.1728  0.4425
  206TIP3    H1  582   1.330   1.890   3.333  0.4437 -0.0146 -1.0509
  206TIP3    H2  583   1.378   1.808   3.451 -1.5538  0.1590 -0.0826
  207TIP3   OH2  584   4.948   5.279   0.705  0.3838 -0.5152 -0.0907
  207TIP3    H1  585   4.896   5.303   0.627  0.8160  0.1448 -0.1836
  207TIP3    H2  586   4.978   5.190   0.687 -1.8203 -1.4503  0.5530
  208TIP3   OH2  587   0.646   4.774   2.359 -0.1252  0.0533  0.4968
  208TIP3    H1  588   0.591   4.795   2.283 -1.2010  0.3116  1.3247
  208TIP3    H2  589   0.735   4.781   2.326 -0.5738 -0.8704 -1.0260
  209TIP3   OH2  590   5.965   6.099   1.799 -0.6522  0.2420 -0.1267
  209TIP3    H1  591   5.892   6.129   1.745 -0.1934 -0.4605 -1.1869
  209TIP3    H2  592   5.938   6.013   1.830 -0.4224  0.1353 -0.2221
  210TIP3   OH2  593   1.770   5.405   4.231  0.0664  0.1896 -0.5531
  210TIP3    H1  594   1.789   5.356   4.311 -0.4405 -1.3205 -1.3098
  210TIP3    H2  595   1.793   5.495   4.251  0.6143 -0.2850  1.0555
  211TIP3   OH2  596   4.921   0.666   2.367 -0.4925 -0.1807 -0.2599
  211TIP3    H1  597   4.945   0.573   2.366  0.5191  0.0266  1.1590
  211TIP3    H2  598   4.990   0.708   2.315 -1.4810 -0.2897 -1.7331
  212TIP3   OH2  599   5.372   1.007   4.496 -0.2787 -0.0082  0.0098
  212TIP3    H1  600   5.305   0.955   4.451 -1.1414  0.2523  0.9393
  212TIP3    H2  601   5.324   1.052   4.566  0.7345  0.8210  0.1938
  213TIP3   OH2  602   0.140   2.226   3.654  0.5270 -0.2634  0.2178
  213TIP3    H1  603   0.142   2.202   3.746  0.5765  1.1068  0.6019
  213TIP3    H2  604   0.214   2.179   3.615  0.1929 -1.2504  0.7528
  214TIP3   OH2  605   0.047   4.650   5.909  0.0049  0.3701 -0.4118
  214TIP3    H1  606   0.128   4.690   5.878 -0.1916  0.2352 -1.1130
  214TIP3    H2  607  -0.017   4.668   5.841  0.1575 -1.9789 -1.2484
  215TIP3   OH2  608   3.500   0.934   0.561  0.1115  0.3254  0.2047
  215TIP3    H1  609   3.475   1.023   0.536 -2.5908  0.1076  1.7526
  215TIP3    H2  610   3.520   0.940   0.654  2.0030 -0.3445 -0.1277
  216TIP3   OH2  611   4.184   3.915   3.508 -0.0871  0.4694 -0.3433
  216TIP3    H1  612   4.138   3.968   3.574  1.2998 -0.2280  1.2836
  216TIP3    H2  613   4.243   3.977   3.465 -0.2640  0.7294 -0.2193
  217TIP3   OH2  614   2.472   0.834   0.299  0.4213 -0.0345  0.8706
  217TIP3    H1  615   2.455   0.853   0.392  2.2826  1.4687  0.9748
  217TIP3    H2  616   2.438   0.910   0.253 -0.0435 -0.5496  0.3623
  218TIP3   OH2  617   3.779   5.878   4.465  0.0258  0.1226 -0.6800
  218TIP3    H1  618   3.686   5.873   4.444 -0.3769  0.4979  0.9092
  218TIP3    H2  619   3.811   5.788   4.456 -0.7809 -0.2411 -0.0076
  219TIP3   OH2  620   5.538   3.330   0.171 -0.4045 -0.3754 -0.0835
  219TIP3    H1  621   5.486   3.305   0.248  1.1345 -1.6988  0.5989
  219TIP3    H2  622   5.479   3.318   0.097 -1.3107 -1.0935  0.7186
  220TIP3   OH2  623   1.024   3.600   1.002  0.2753  0.3924  0.2585
  220TIP3    H1  624   1.091   3.582   0.936  1.9813  0.9323  1.7767
  220TIP3    H2  625   0.949   3.547   0.974  1.1715  0.0477 -1.6909
  221TIP3   OH2  626   3.952   5.490   1.749 -0.1968  0.2288  0.1721
  221TIP3    H1  627   3.983   5.487   1.659 -2.0614  0.4582 -0.5187
  221TIP3    H2  628   3.890   5.418   1.756 -0.8864  0.8747  0.9352
  222TIP3   OH2  629   0.804   4.703   1.170 -0.1591  0.4713  0.0544
  222TIP3    H1  630   0.887   4.726   1.128  0.3908  1.0633  1.3976
  222TIP3    H2  631   0.767   4.636   1.113  2.0403 -1.0600  0.2786
  223TIP3   OH2  632   5.840   0.140   3.852 -0.0232 -0.2201  0.0865
  223TIP3    H1  633   5.776   0.210   3.837  2.1232  1.9446  0.2328
  223TIP3    H2  634   5.873   0.157   3.940  0.7709 -1.2202 -0.0034
  224TIP3   OH2  635   0.386   5.636   3.665 -0.0222  0.5163 -0.3205
  224TIP3    H1  636   0.370   5.714   3.719  1.3554  1.2682 -0.9475
  224TIP3    H2  637   0.396   5.565   3.729 -0.9355  0.9110  0.2793
  225TIP3   OH2  638   2.140   6.752   4.405  0.1586 -0.3205 -0.3584
  225TIP3    H1  639   2.055   6.720   4.375 -0.2643 -0.7429  1.2211
  225TIP3    H2  640   2.173   6.803   4.331 -0.9358 -1.1067 -1.4335
  226TIP3   OH2  641   3.581   6.340   3.157 -0.0336  0.5397 -0.1155
  226TIP3    H1  642   3.532   6.264   3.129  0.8092  0.4193 -1.3467
  226TIP3    H2  643   3.666   6.331   3.114  0.2797  1.8745  0.1726
  227TIP3   OH2  644   0.894   2.285   0.931 -0.0846 -0.2110  0.2164
  227TIP3    H1  645   0.803   2.314   0.934 -0.3546 -1.0789  0.8873
  227TIP3    H2  646   0.912   2.253   1.020  0.9188  0.0911  0.1331
  228TIP3   OH2  647   5.068   4.674   4.851  0.5274 -0.4139  0.8922
  228TIP3    H1  648   5.006   4.625   4.799  0.2224  0.0288  0.8289
  228TIP3    H2  649   5.024   4.757   4.869  0.8469 -0.3447  1.3840
  229TIP3   OH2  650   2.419   3.725   2.182 -0.1636 -0.4071 -0.4605
  229TIP3    H1  651   2.409   3.793   2.116 -0.6315 -0.3848 -0.3667
  229TIP3    H2  652   2.512   3.701   2.177 -0.0265  0.1248 -0.6036
  230TIP3   OH2  653   2.567   4.566   1.224  0.8806 -0.2377  0.1392
  230TIP3    H1  654   2.533   4.633   1.164 -0.7181 -1.7335 -0.7229
  230TIP3    H2  655   2.660   4.559   1.202  0.7107  0.5328 -0.9004
  231TIP3   OH2  656   2.422   1.406   2.608  0.0920 -0.0614  0.2119
  231TIP3    H1  657   2.468   1.421   2.690 -1.9696  0.0737  1.4038
  231TIP3    H2  658   2.451   1.477   2.551 -0.3538  1.3754  1.6990
  232TIP3   OH2  659   4.701   1.281   4.053 -0.2533  0.0819 -0.4875
  232TIP3    H1  660   4.617   1.247   4.023 -0.6222  1.3228 -0.9439
  232TIP3    H2  661   4.682   1.372   4.078  0.9211  0.3390 -0.4696
  233TIP3   OH2  662   5.400   5.702   4.068 -0.3892  0.7358  0.3712
  233TIP3    H1  663   5.477   5.680   4.017  0.4268  0.7103  1.5769
  233TIP3    H2  664   5.340   5.628   4.056  0.0423  0.4553 -0.0412
  234TIP3   OH2  665   6.370   5.276   3.056  0.6251  0.1530  0.2762
  234TIP3    H1  666   6.391   5.238   2.970  1.9925  0.9629  0.2247
  234TIP3    H2  667   6.355   5.368   3.038  2.1310  0.5791  1.0563
  235TIP3   OH2  668   6.193   1.700   3.398 -0.6006 -0.5182 -0.6504
  235TIP3    H1  669   6.211   1.608   3.416 -1.5988 -0.5929  0.0481
  235TIP3    H2  670   6.211   1.745   3.480  1.2151  0.1442 -1.3559
  236TIP3   OH2  671   3.231   0.039   4.320 -0.4316  0.1799 -0.5625
  236TIP3    H1  672   3.155  -0.015   4.300 -0.8973  1.0078 -1.0943
  236TIP3    H2  673   3.197   0.128   4.323  0.6320  0.6531 -1.5706
  237TIP3   OH2  674   1.981   2.023   2.891 -0.2364 -0.2369 -0.0759
  237TIP3    H1  675   1.982   1.960   2.819 -1.3691 -0.9200  0.4762
  237TIP3    H2  676   2.072   2.025   2.922 -0.2212 -1.8226  0.0688
  238TIP3   OH2  677   0.808   0.118   1.884  0.0783 -0.6241 -0.3659
  238TIP3    H1  678   0.873   0.085   1.946  0.5320 -0.8204 -0.9383
  238TIP3    H2  679   0.822   0.065   1.805  0.4569  0.5698 -1.1201
  239TIP3   OH2  680   3.631   3.401   3.545  0.3847 -0.0599  0.2817
  239TIP3    H1  681   3.679   3.325   3.579 -2.1798 -0.8395  2.5040
  239TIP3    H2  682   3.639   3.467   3.614 -1.3477 -0.0846  0.5470
  240TIP3   OH2  683   4.897   1.082   1.128  0.1065  0.3188 -0.2175
  240TIP3    H1  684   4.947   1.081   1.210 -0.5848 -0.8981  0.2122
  240TIP3    H2  685   4.807   1.068   1.155 -0.1172 -0.2037 -1.2004
  241TIP3   OH2  686   1.585   5.405   3.322 -0.1418  0.5100 -0.1897
  241TIP3    H1  687   1.623   5.490   3.344  0.6333  0.2290 -0.3706
  241TIP3    H2  688   1.652   5.342   3.351  0.7959  0.1065 -2.9678
  242TIP3   OH2  689   3.154   3.330   0.959 -0.3725 -0.1292 -0.0707
  242TIP3    H1  690   3.063   3.323   0.931  0.2938 -2.5790 -1.9333
  242TIP3    H2  691   3.170   3.251   1.010  0.2556  1.1945  1.9115
  243TIP3   OH2  692   3.663   5.317   4.053 -0.2023 -0.1232  0.5978
  243TIP3    H1  693   3.606   5.251   4.093 -0.9102 -0.0868 -0.3218
  243TIP3    H2  694   3.752   5.284   4.069 -0.5444 -1.9433 -0.8272
  244TIP3   OH2  695   4.504   5.500   0.453  0.1956  0.0879  0.0025
  244TIP3    H1  696   4.494   5.417   0.500 -1.5259 -0.0217 -0.5155
  244TIP3    H2  697   4.474   5.482   0.365 -1.1943  1.5153  0.1483
  245TIP3   OH2  698   2.335   5.833   1.640  0.1139  0.1482  0.2370
  245TIP3    H1  699   2.394   5.901   1.673 -0.2187  0.4655  0.1930
  245TIP3    H2  700   2.362   5.819   1.549 -0.7788  1.3399 -0.2560
  246TIP3   OH2  701   6.823   2.598   1.109  0.1478  0.2312  0.7753
  246TIP3    H1  702   6.905   2.630   1.148  1.8403 -2.4212 -0.3603
  246TIP3    H2  703   6.766   2.581   1.184  0.0581  3.2367  1.5426
  247TIP3   OH2  704   5.280   5.553   1.553  0.3847  0.3878  0.1269
  247TIP3    H1  705   5.293   5.517   1.465  1.0324 -1.0378  0.7749
  247TIP3    H2  706   5.237   5.482   1.602 -0.1351  1.2289  0.9143
  248TIP3   OH2  707   2.270   1.546   5.133 -0.3603 -0.3314  0.4434
  248TIP3    H1  708   2.335   1.602   5.176  0.6519 -0.0292 -1.3771
  248TIP3    H2  709   2.214   1.607   5.085  0.2845 -0.8059 -0.9445
  249TIP3   OH2  710   1.760   3.211   0.370 -0.3774 -0.2307 -0.4972
  249TIP3    H1  711   1.740   3.305   0.363  0.8794  0.1353  0.4033
  249TIP3    H2  712   1.856   3.207   0.364 -0.5243 -1.7592 -3.3378
  250TIP3   OH2  713   5.677   5.644   0.403 -0.0524 -0.2632  0.0647
  250TIP3    H1  714   5.639   5.712   0.459  1.1467  0.0371  0.5465
  250TIP3    H2  715   5.683   5.567   0.459  1.5315  0.1514  0.5268
  251TIP3   OH2  716   5.295   0.852   1.268  0.2835  0.5047  0.3462
  251TIP3    H1  717   5.291   0.807   1.184  1.2647  0.6304  0.2253
  251TIP3    H2  718   5.290   0.782   1.333  0.0626  0.3629  0.1780
  252TIP3   OH2  719   0.408   3.585   4.905  0.0405 -0.5904 -0.1268
  252TIP3    H1  720   0.434   3.534   4.982  0.0306 -0.4628 -0.0395
  252TIP3    H2  721   0.491   3.609   4.863  0.3422  2.8312  2.0473
  253TIP3   OH2  722   5.129   6.637   2.070  0.0058  0.1990  0.5907
  253TIP3    H1  723   5.053   6.617   2.125  0.5141 -0.3435  1.1091
  253TIP3    H2  724   5.142   6.731   2.080  0.0520  0.1185  1.3494
  254TIP3   OH2  725   6.881   3.661   4.391  0.0843 -0.5370  0.1243
  254TIP3    H1  726   6.825   3.680   4.467  1.4190  1.3274  0.7206
  254TIP3    H2  727   6.941   3.735   4.387  0.9066 -1.2486 -1.9943
  255TIP3   OH2  728   6.615   0.252   1.445  0.5895 -0.0028 -0.1461
  255TIP3    H1  729   6.667   0.332   1.439  1.1975 -0.3451  0.4681
  255TIP3    H2  730   6.553   0.268   1.516  1.7165 -0.6337  0.9986
  256TIP3   OH2  731   4.341   5.736   1.295  0.4801  0.0174 -0.4838
  256TIP3    H1  732   4.414   5.675   1.288  0.8884  0.2374  1.2685
  256TIP3    H2  733   4.380   5.822   1.277  0.7807  0.1853  0.8703
  257TIP3   OH2  734   2.669   1.729   5.383  0.0690 -0.0676 -0.5161
  257TIP3    H1  735   2.691   1.698   5.295  0.8458 -0.1536 -0.2959
  257TIP3    H2  736   2.754   1.738   5.427 -0.3826 -2.1611  0.9580
  258TIP3   OH2  737   1.578   4.790   2.091 -0.1972 -0.1398  0.4577
  258TIP3    H1  738   1.616   4.837   2.166  1.8272  0.7284 -1.0217
  258TIP3    H2  739   1.630   4.710   2.084 -0.6545 -0.4195  0.2384
  259TIP3   OH2  740   7.160   2.736   5.373  0.0686  0.0954  0.0283
  259TIP3    H1  741   7.097   2.676   5.333  0.4127  1.5852 -3.0725
  259TIP3    H2  742   7.106   2.808   5.407 -0.2689 -1.4114  2.9265
  260TIP3   OH2  743   0.745   3.321   3.183 -0.1018 -0.2826  0.3729
  260TIP3    H1  744   0.781   3.379   3.251 -1.6241  0.5698  0.4928
  260TIP3    H2  745   0.788   3.349   3.102  0.0260  0.2434  0.6182
  261TIP3   OH2  746   0.880   6.509   4.562 -0.1447 -0.3059  0.3587
  261TIP3    H1  747   0.970   6.501   4.530 -0.4544 -3.7840 -0.0918
  261TIP3    H2  748   0.835   6.434   4.524 -3.1974  1.1267  0.8635
  262TIP3   OH2  749   5.184   6.009   1.362  1.0681  0.1627  0.0908
  262TIP3    H1  750   5.233   5.927   1.363  1.1394  0.1952  1.7297
  262TIP3    H2  751   5.124   6.002   1.437  1.3214  1.7302  0.4671
  263TIP3   OH2  752   2.098   3.436   4.779 -0.5894 -0.7501  0.0734
  263TIP3    H1  753   2.172   3.396   4.825 -0.8891 -1.3708  0.0320
  263TIP3    H2  754   2.113   3.530   4.787  0.5824 -0.8617 -0.5468
  264TIP3   OH2  755   1.853   2.302   5.086  0.0151 -0.5398 -0.5337
  264TIP3    H1  756   1.788   2.297   5.016  1.0282 -1.3337 -1.4591
  264TIP3    H2  757   1.921   2.361   5.052  0.0151 -0.0921  0.2207
  265TIP3   OH2  758   6.041   4.342   1.410 -1.0363  0.2943 -0.1577
  265TIP3    H1  759   5.949   4.319   1.422 -0.7637 -0.5142  0.4234
  265TIP3    H2  760   6.039   4.432   1.377 -2.1599 -0.6490 -2.9590
  266TIP3   OH2  761   4.738   0.311   2.352  0.1748  0.5776  0.0666
  266TIP3    H1  762   4.746   0.385   2.291  2.3722 -0.3064 -0.8043
  266TIP3    H2  763   4.683   0.248   2.306  2.0703 -0.2158 -1.2340
  267TIP3   OH2  764   4.426   0.537   3.988 -0.2061 -0.5634  0.2887
  267TIP3    H1  765   4.334   0.526   3.966 -0.7627  0.5167  1.9334
  267TIP3    H2  766   4.451   0.621   3.950 -0.4578  0.0634  1.4589
  268TIP3   OH2  767   6.606   3.188   0.457 -0.0321  0.0954  0.4670
  268TIP3    H1  768   6.606   3.187   0.553  0.7143  1.4587  0.5159
  268TIP3    H2  769   6.530   3.241   0.434 -0.1822 -0.1904  0.3023
  269TIP3   OH2  770   0.151   5.998   2.558 -0.3885  0.0525  0.0186
  269TIP3    H1  771   0.218   6.057   2.591 -0.0232 -0.1272 -0.3977
  269TIP3    H2  772   0.111   6.046   2.485 -0.5086  0.0378  0.0747
  270TIP3   OH2  773   5.745   2.558   1.786 -0.0049 -0.4035 -0.0130
  270TIP3    H1  774   5.818   2.497   1.792  0.8952  0.6465 -0.0719
  270TIP3    H2  775   5.767   2.616   1.713 -0.7071  0.1567  0.2033
  271TIP3   OH2  776   3.150   6.247   5.769 -0.5566 -0.0129 -0.3073
  271TIP3    H1  777   3.086   6.177   5.780  0.1521 -0.4508  1.2203
  271TIP3    H2  778   3.104   6.326   5.796 -0.2403 -0.4439  1.6339
  272TIP3   OH2  779   0.582   4.654   2.823  0.2470  0.0448  0.2482
  272TIP3    H1  780   0.633   4.681   2.747 -1.3797  0.0793 -0.8879
  272TIP3    H2  781   0.566   4.561   2.809 -0.6660  0.2076  0.1639
  273TIP3   OH2  782   1.176   5.241   1.269  0.5475  0.2370 -0.6281
  273TIP3    H1  783   1.232   5.166   1.248  1.6107  0.7274  0.3135
  273TIP3    H2  784   1.090   5.203   1.286  0.3243 -0.4467 -2.9541
  274TIP3   OH2  785   1.250   0.662   5.088  0.1124  0.4430 -0.3747
  274TIP3    H1  786   1.241   0.584   5.033 -1.1465  0.7200 -0.5922
  274TIP3    H2  787   1.313   0.717   5.041  2.5508 -1.2310  0.7594
  275TIP3   OH2  788   3.146   6.369   3.808 -0.2013 -0.7257  0.1793
  275TIP3    H1  789   3.102   6.395   3.888  0.2657  2.9069 -0.5626
  275TIP3    H2  790   3.238   6.386   3.824 -0.0503 -0.3597 -0.9646
  276TIP3   OH2  791   0.776   5.510   2.501  0.0158  0.2628  0.0723
  276TIP3    H1  792   0.844   5.442   2.497  0.6202  0.6931  1.8492
  276TIP3    H2  793   0.699   5.469   2.463  0.5027 -1.2577  0.6262
  277TIP3   OH2  794   5.804   0.980   5.767  0.0836 -0.6989 -0.2599
  277TIP3    H1  795   5.849   0.914   5.820 -0.1267 -1.4717 -1.0378
  277TIP3    H2  796   5.791   0.938   5.682  0.5027  0.5541 -0.9699
  278TIP3   OH2  797   0.774   5.119   1.640  0.5571 -0.5229  0.2737
  278TIP3    H1  798   0.866   5.143   1.645  0.4832 -0.1435 -0.1154
  278TIP3    H2  799   0.732   5.194   1.598  0.0918 -0.7460  0.3319
  279TIP3   OH2  800   6.308   5.237   5.448  0.1797  0.1948  0.1716
  279TIP3    H1  801   6.296   5.148   5.416 -0.5319  0.0423  0.8263
  279TIP3    H2  802   6.399   5.258   5.428  0.3583 -0.6836  0.0252
  280TIP3   OH2  803   4.325   1.697   0.133 -0.6971  0.1649 -0.8607
  280TIP3    H1  804   4.395   1.710   0.069 -1.7031 -0.3643 -2.1039
  280TIP3    H2  805   4.296   1.786   0.156  1.1361  0.4503  0.5909
  281TIP3   OH2  806   4.175   2.324   4.721  0.0290  0.6640  0.0798
  281TIP3    H1  807   4.176   2.239   4.677  1.3207  1.2677 -1.1061
  281TIP3    H2  808   4.082   2.342   4.735 -0.2871 -0.7081 -0.0844
  282TIP3   OH2  809   6.782   0.005   3.917  0.2274  0.1803  0.2251
  282TIP3    H1  810   6.784   0.059   3.996  0.4844 -1.6629  1.5574
  282TIP3    H2  811   6.779   0.068   3.845 -0.6239  1.9376  1.6979
  283TIP3   OH2  812   5.597   6.308   5.328 -0.0412 -0.0832  0.4925
  283TIP3    H1  813   5.578   6.291   5.420 -1.5722  0.4328  0.3151
  283TIP3    H2  814   5.521   6.359   5.297  1.7261  2.2444 -0.3369
  284TIP3   OH2  815   2.913   4.329   5.844  0.5225  0.0344 -0.4012
  284TIP3    H1  816   2.970   4.263   5.883 -0.5852 -0.7461 -0.0755
  284TIP3    H2  817   2.929   4.323   5.750 -0.3281 -1.4520 -0.4773
  285TIP3   OH2  818   6.952   6.423   5.656  0.2520 -0.4741  0.0434
  285TIP3    H1  819   6.902   6.383   5.727  1.1795 -1.8761 -0.0548
  285TIP3    H2  820   6.992   6.348   5.610  3.2742  0.5873  0.7244
  286TIP3   OH2  821   2.748   1.923   4.197 -0.3443  0.0427  0.2770
  286TIP3    H1  822   2.675   1.976   4.231  0.2690  0.0699  1.5940
  286TIP3    H2  823   2.799   1.984   4.144 -0.7176  0.2803  0.1857
  287TIP3   OH2  824   6.149   4.367   3.701  0.1196  0.3357  0.3420
  287TIP3    H1  825   6.130   4.393   3.791 -3.0428  2.1729 -0.6892
  287TIP3    H2  826   6.085   4.299   3.681  0.1543  0.6054 -0.7666
  288TIP3   OH2  827   1.773   1.459   0.536 -0.3914  0.2388  0.1542
  288TIP3    H1  828   1.687   1.451   0.495 -0.8242  1.6335  0.7418
  288TIP3    H2  829   1.793   1.371   0.567 -1.6900 -0.0704  0.1707
  289TIP3   OH2  830   5.937   1.844   1.203  0.7236  0.0400 -0.7074
  289TIP3    H1  831   5.932   1.766   1.147  1.6142 -0.1379 -0.5566
  289TIP3    H2  832   5.879   1.825   1.276  0.8506 -0.4326 -0.7291
  290TIP3   OH2  833   6.809   2.244   0.716  0.3047 -0.3669 -0.5601
  290TIP3    H1  834   6.737   2.263   0.776 -0.2823 -0.1234 -1.3283
  290TIP3    H2  835   6.793   2.155   0.686 -0.1755 -0.0046 -1.4056
  291TIP3   OH2  836   2.268   2.261   0.479  0.2479  0.3014 -0.8929
  291TIP3    H1  837   2.289   2.319   0.406  1.3665  1.1445  0.0594
  291TIP3    H2  838   2.234   2.182   0.437  0.5512  0.8808 -2.3061
  292TIP3   OH2  839   1.250   4.834   5.218  0.0851  0.1133 -0.7804
  292TIP3    H1  840   1.282   4.768   5.279  0.3637 -0.2676 -1.3262
  292TIP3    H2  841   1.221   4.906   5.273  0.2855 -0.2457 -0.1995
  293TIP3   OH2  842   5.312   5.216   2.573  0.0512 -0.2763  0.1885
  293TIP3    H1  843   5.229   5.171   2.584 -0.1100 -1.3086 -3.8281
  293TIP3    H2  844   5.360   5.198   2.654 -3.0144 -0.8269  2.0327
  294TIP3   OH2  845   2.947   4.927   0.548 -0.5349  0.6090 -0.0147
  294TIP3    H1  846   3.013   4.869   0.587 -0.7362  0.7610  0.5630
  294TIP3    H2  847   2.984   5.015   0.559 -0.6297  0.6584 -0.0984
  295TIP3   OH2  848   2.694   0.719   2.803  0.5325 -0.4089  0.2468
  295TIP3    H1  849   2.626   0.722   2.870  0.3162 -0.9811  0.0520
  295TIP3    H2  850   2.763   0.776   2.837 -0.8830  1.9039 -0.4973
  296TIP3   OH2  851   6.954   2.912   5.020  0.4566 -0.4155  0.1468
  296TIP3    H1  852   7.036   2.887   5.062  0.8972 -0.5725 -0.7796
  296TIP3    H2  853   6.922   2.832   4.980 -0.1222 -0.3400  0.4524
  297TIP3   OH2  854   7.124   6.770   3.159  0.3077 -0.2891  0.9619
  297TIP3    H1  855   7.109   6.793   3.251  0.9371 -0.1119  1.0257
  297TIP3    H2  856   7.216   6.791   3.144 -0.2633  1.5897 -0.2778
  298TIP3   OH2  857   6.167   6.718   5.892  0.2560  0.3816  0.3719
  298TIP3    H1  858   6.076   6.705   5.919  0.6894 -0.2109  1.6262
  298TIP3    H2  859   6.162   6.734   5.798 -1.0625 -0.6200  0.2411
  299TIP3   OH2  860   5.379   2.355   0.627  0.3342 -0.2886 -0.1060
  299TIP3    H1  861   5.409   2.318   0.545  0.3504 -0.0250 -0.2196
  299TIP3    H2  862   5.450   2.337   0.689 -0.0855 -1.3328  0.0916
  300TIP3   OH2  863   0.959   4.758   5.523 -0.0446 -0.7099  0.7399
  300TIP3    H1  864   0.937   4.761   5.617 -1.2826  0.1845  0.4508
  300TIP3    H2  865   1.041   4.806   5.517 -1.6789  2.3822  0.9825
  301TIP3   OH2  866   0.606   0.770   5.708 -0.7547 -0.1367  0.5619
  301TIP3    H1  867   0.680   0.759   5.648 -0.4023  1.1586  0.7380
  301TIP3    H2  868   0.618   0.701   5.773 -0.6622 -1.0184 -0.3608
  302TIP3   OH2  869   1.725   6.229   3.986  0.0156 -0.1275  0.5258
  302TIP3    H1  870   1.636   6.230   4.022 -0.0837  0.5044  0.2832
  302TIP3    H2  871   1.718   6.282   3.906  0.4266 -0.7773  0.0536
  303TIP3   OH2  872   7.148   1.550   4.770  0.0014 -0.2362  0.5153
  303TIP3    H1  873   7.203   1.493   4.823 -1.0799 -2.0017 -0.1602
  303TIP3    H2  874   7.186   1.547   4.682  1.0309  1.6491  0.8374
  304TIP3   OH2  875   5.690   3.479   5.780 -0.4196  0.3141  0.6822
  304TIP3    H1  876   5.756   3.410   5.781  0.7481  1.3758 -0.0533
  304TIP3    H2  877   5.624   3.448   5.718 -1.5744 -1.5370  2.6710
  305TIP3   OH2  878   1.144   0.685   3.634  0.3711 -0.3048  0.0054
  305TIP3    H1  879   1.074   0.749   3.620  0.1259 -0.5609  0.0556
  305TIP3    H2  880   1.215   0.736   3.674  0.8712  0.3107 -1.5996
  306TIP3   OH2  881   5.499   0.823   5.794  0.3576  0.1205  0.3452
  306TIP3    H1  882   5.591   0.801   5.802 -0.0521 -1.4413  1.0788
  306TIP3    H2  883   5.460   0.799   5.878 -0.9129 -0.3110 -0.3270
  307TIP3   OH2  884   3.521   5.170   1.903 -0.3750 -0.5788  0.1073
  307TIP3    H1  885   3.511   5.083   1.943  1.2797 -0.6203  0.5187
  307TIP3    H2  886   3.452   5.174   1.836  0.3317 -2.7733 -0.8586
  308TIP3   OH2  887   0.666   5.338   1.537 -0.0311 -0.1604  0.0615
  308TIP3    H1  888   0.699   5.418   1.498 -0.1352 -0.7036 -1.1770
  308TIP3    H2  889   0.574   5.334   1.512 -0.4745  0.1719  1.5473
  309TIP3   OH2  890   2.564   6.388   1.324 -0.4174  0.4057 -0.2736
  309TIP3    H1  891   2.595   6.469   1.365  2.6628 -1.6853  2.0095
  309TIP3    H2  892   2.588   6.397   1.232 -1.4085  2.5851 -0.3755
  310TIP3   OH2  893   6.016   1.498   2.511  0.0023  0.1455  0.4013
  310TIP3    H1  894   6.047   1.466   2.426 -0.0608 -0.2329  0.5166
  310TIP3    H2  895   6.093   1.493   2.568 -0.0829 -0.0823  0.4957
  311TIP3   OH2  896   5.767   4.606   3.493 -0.1165  0.4037 -0.5516
  311TIP3    H1  897   5.797   4.682   3.444  0.3542  1.2976  1.0553
  311TIP3    H2  898   5.768   4.634   3.584 -0.0779 -1.4958  0.0774
  312TIP3   OH2  899   6.620   4.871   4.921  0.2461  0.8088 -0.3895
  312TIP3    H1  900   6.550   4.875   4.856 -0.5705  0.1488  0.4179
  312TIP3    H2  901   6.691   4.922   4.883 -0.2242  0.4833 -1.7719
  313TIP3   OH2  902   2.322   3.476   1.190  0.1276 -0.2351  0.5223
  313TIP3    H1  903   2.282   3.469   1.103 -0.4021  2.4187  0.4789
  313TIP3    H2  904   2.404   3.523   1.175 -0.6582  1.5651  1.5771
  314TIP3   OH2  905   2.194   2.263   2.159  0.1138 -0.2066 -0.1066
  314TIP3    H1  906   2.168   2.172   2.146  0.7976 -0.1750 -2.0342
  314TIP3    H2  907   2.117   2.314   2.133  0.3635 -0.2098 -0.8680
  315TIP3   OH2  908   0.420   0.714   4.603 -0.3210  0.2423 -0.2279
  315TIP3    H1  909   0.512   0.696   4.584 -0.6169 -0.0839 -1.5002
  315TIP3    H2  910   0.404   0.800   4.565  0.1277  1.5936  2.4640
  316TIP3   OH2  911   0.651   4.867   5.747 -0.1533 -0.0274  0.2401
  316TIP3    H1  912   0.608   4.789   5.782 -1.6198  0.0977 -1.1630
  316TIP3    H2  913   0.606   4.940   5.791 -0.9910  0.0890 -0.7847
  317TIP3   OH2  914   3.700   5.105   4.312  0.3502 -0.3420  0.4534
  317TIP3    H1  915   3.709   5.025   4.365  1.1075  0.0274  0.9007
  317TIP3    H2  916   3.759   5.168   4.353  0.3883  0.1945 -0.3937
  318TIP3   OH2  917   1.230   0.945   2.800  0.6449 -0.7116  0.3118
  318TIP3    H1  918   1.290   0.979   2.735  1.9292 -1.4177  1.0790
  318TIP3    H2  919   1.208   1.020   2.855  2.1257 -0.7326  0.9827
  319TIP3   OH2  920   6.226   1.577   1.025  0.1294 -0.2657  0.0993
  319TIP3    H1  921   6.252   1.656   1.072 -0.0428 -0.8360  1.2154
  319TIP3    H2  922   6.292   1.565   0.958  0.2512  0.7284  0.0346
  320TIP3   OH2  923   1.502   0.367   0.076 -0.1488 -0.2630  0.2439
  320TIP3    H1  924   1.541   0.444   0.119 -0.9898 -0.4204  1.3400
  320TIP3    H2  925   1.410   0.390   0.066  0.1835  0.1876 -2.5032
  321TIP3   OH2  926   5.063   0.680   2.656  0.1368 -0.6190 -0.1746
  321TIP3    H1  927   5.073   0.751   2.593 -0.9574 -0.8131 -0.5879
  321TIP3    H2  928   5.145   0.679   2.704  0.2969  0.7076 -0.3888
  322TIP3   OH2  929   0.066   1.205   1.344  0.2573  0.5461 -0.4717
  322TIP3    H1  930   0.086   1.121   1.385  0.7262  0.6319 -0.5178
  322TIP3    H2  931   0.093   1.270   1.408  4.2859  0.8157 -2.1525
  323TIP3   OH2  932   1.401   1.901   4.589 -0.1813 -0.1554 -0.0486
  323TIP3    H1  933   1.473   1.839   4.606  0.3262  0.6482  0.8724
  323TIP3    H2  934   1.405   1.918   4.495  1.0906  0.1601  0.0445
  324TIP3   OH2  935   6.750   0.843   1.467 -0.3659  0.3852  0.0558
  324TIP3    H1  936   6.833   0.888   1.480  0.0466 -0.3820  0.0920
  324TIP3    H2  937   6.740   0.837   1.372  0.1010 -0.4034  0.0550
  325TIP3   OH2  938   4.956   3.221   5.721  0.3040 -0.5168 -0.2847
  325TIP3    H1  939   4.967   3.275   5.799  2.4098 -0.2560 -0.7005
  325TIP3    H2  940   4.956   3.131   5.754 -0.4287 -0.3606  0.1532
  326TIP3   OH2  941   3.180   2.163   2.226 -0.0044 -0.5479  0.3485
  326TIP3    H1  942   3.129   2.099   2.277 -2.1963 -0.5219 -1.6634
  326TIP3    H2  943   3.121   2.191   2.157  2.4190  0.3385 -1.4983
  327TIP3   OH2  944   5.831   5.436   3.887 -0.0591 -0.2790 -0.5072
  327TIP3    H1  945   5.802   5.345   3.880 -0.9914  0.0155 -0.6486
  327TIP3    H2  946   5.909   5.432   3.942  0.6347 -1.2987 -1.5264
  328TIP3   OH2  947   4.268   2.826   0.581 -0.3289 -0.3126  0.1476
  328TIP3    H1  948   4.282   2.732   0.589  0.2568 -0.2137  0.3365
  328TIP3    H2  949   4.321   2.852   0.505 -0.4326 -0.1267  0.1391
  329TIP3   OH2  950   4.566   3.607   2.188 -0.3561  0.1856 -0.0164
  329TIP3    H1  951   4.563   3.543   2.117 -2.0766 -1.4358  1.4014
  329TIP3    H2  952   4.596   3.688   2.147 -0.7454 -0.8267 -2.4376
  330TIP3   OH2  953   4.077   5.038   0.138 -0.2465  0.1260 -0.3181
  330TIP3    H1  954   4.130   5.095   0.082 -0.7381  0.4965 -0.4048
  330TIP3    H2  955   4.107   4.949   0.116  0.4851  0.3406 -0.2175
  331TIP3   OH2  956   4.593   4.307   0.460  0.1283  0.0976 -0.2056
  331TIP3    H1  957   4.551   4.385   0.496  2.6332  2.1479 -1.4345
  331TIP3    H2  958   4.525   4.239   0.464 -1.6140  1.8236  2.5093
  332TIP3   OH2  959   3.564   2.296   4.055  0.0662 -0.1355  0.0727
  332TIP3    H1  960   3.533   2.267   3.969  0.0475  0.5009 -0.1396
  332TIP3    H2  961   3.612   2.220   4.090  0.5239 -0.2217 -0.7141
  333TIP3   OH2  962   3.127   5.235   2.558  0.3275 -0.4311 -0.5309
  333TIP3    H1  963   3.200   5.228   2.496  1.1819 -1.2422  0.5333
  333TIP3    H2  964   3.150   5.175   2.629 -0.2043  1.1107  1.0081
  334TIP3   OH2  965   1.400   1.566   3.116 -0.2728 -0.4022  0.2921
  334TIP3    H1  966   1.450   1.485   3.131  0.1738  0.0332  1.1932
  334TIP3    H2  967   1.310   1.536   3.102 -0.1056 -1.0638  0.5936
  335TIP3   OH2  968   2.178   0.703   0.046 -0.0229 -0.0523 -0.1131
  335TIP3    H1  969   2.098   0.655   0.025  0.7028 -0.4958 -2.0976
  335TIP3    H2  970   2.148   0.791   0.069 -1.1595 -0.6213  0.6909
  336TIP3   OH2  971   6.741   4.230   2.290  0.0661 -0.6006 -0.2391
  336TIP3    H1  972   6.727   4.137   2.304 -1.0550 -0.4789 -0.4180
  336TIP3    H2  973   6.677   4.254   2.223  1.5344 -0.0450 -1.5057
  337TIP3   OH2  974   2.235   2.888   3.467  0.1958  0.3158 -0.0235
  337TIP3    H1  975   2.328   2.904   3.484  0.3738  0.1645 -0.8087
  337TIP3    H2  976   2.222   2.796   3.490 -0.0747  0.6739  1.3476
  338TIP3   OH2  977   3.151   1.958   3.108  0.1120  0.0366  0.1423
  338TIP3    H1  978   3.066   1.965   3.153  0.0084 -1.3702  0.1916
  338TIP3    H2  979   3.198   2.037   3.135 -2.2473  2.5360 -2.2478
  339TIP3   OH2  980   4.745   4.164   2.284 -0.4719  0.0894  0.1391
  339TIP3    H1  981   4.742   4.163   2.188  0.2715  0.9172  0.1000
  339TIP3    H2  982   4.832   4.132   2.305 -0.9589 -1.0090  0.5851
  340TIP3   OH2  983   3.227   5.034   3.791  0.6332 -0.5236  0.4032
  340TIP3    H1  984   3.316   5.028   3.758  0.2587  1.7951 -1.3201
  340TIP3    H2  985   3.177   4.974   3.735  0.9436 -1.0746  0.7138
  341TIP3   OH2  986   6.044   0.921   3.859  0.4173  0.1350  0.1686
  341TIP3    H1  987   6.083   0.952   3.941  1.5667 -0.1822 -0.2336
  341TIP3    H2  988   6.104   0.852   3.829 -0.9491 -1.0371 -0.0153
  342TIP3   OH2  989   1.313   2.309   5.015 -0.3882  0.4796 -0.0665
  342TIP3    H1  990   1.317   2.358   4.933  1.0043  2.1606  0.9315
  342TIP3    H2  991   1.311   2.376   5.083 -1.2718 -0.8710  1.3168
  343TIP3   OH2  992   5.191   4.605   2.341  0.2980 -0.2661  0.7716
  343TIP3    H1  993   5.152   4.560   2.266  0.3953 -0.7474  1.0060
  343TIP3    H2  994   5.126   4.671   2.365 -0.6009 -1.3444  1.4253
  344TIP3   OH2  995   5.940   6.235   3.606 -0.1259 -0.2961  0.2634
  344TIP3    H1  996   5.891   6.298   3.552  2.3240 -0.1860 -2.0757
  344TIP3    H2  997   5.889   6.154   3.600 -1.5337  0.5424  0.4119
  345TIP3   OH2  998   3.433   3.537   2.565  0.3539  0.0142  0.5044
  345TIP3    H1  999   3.385   3.454   2.567  0.8480 -0.2721  0.4412
  345TIP3    H2 1000   3.380   3.594   2.508 -0.1773 -0.1328  0.8450
  346TIP3   OH2 1001   6.952   5.948   5.191  0.1789 -0.2365 -0.1522
  346TIP3    H1 1002   6.964   6.036   5.155 -1.9073 -0.6457 -2.0748
  346TIP3    H2 1003   6.981   5.955   5.282 -1.6473  2.9594  0.3370
  347TIP3   OH2 1004   4.473   3.728   2.441  0.1969  0.3552  0.2348
  347TIP3    H1 1005   4.389   3.718   2.397 -0.3115  2.4683  0.6185
  347TIP3    H2 1006   4.537   3.728   2.370 -0.1378 -0.9323 -0.0877
  348TIP3   OH2 1007   5.461   6.005   4.705  0.9117  0.6623 -0.1226
  348TIP3    H1 1008   5.458   6.034   4.613 -0.6017  0.8561 -0.0364
  348TIP3    H2 1009   5.431   5.914   4.702  3.4533 -0.2648 -0.1082
  349TIP3   OH2 1010   7.094   0.403   5.750 -0.5868 -0.4134 -0.4607
  349TIP3    H1 1011   7.189   0.396   5.752 -0.4020  1.5683 -0.3936
  349TIP3    H2 1012   7.075   0.458   5.673 -1.5255  0.7317  0.5460
  350TIP3   OH2 1013   3.277   2.543   2.303  0.2052  0.6426 -0.1321
  350TIP3    H1 1014   3.237   2.617   2.258  0.9890  0.7765 -0.6321
  350TIP3    H2 1015   3.323   2.581   2.378  0.9059  0.7291 -0.5872
  351TIP3   OH2 1016   3.381   2.284   3.522 -0.6234  0.1018 -0.2032
  351TIP3    H1 1017   3.352   2.319   3.438 -1.4817  0.4307  0.2090
  351TIP3    H2 1018   3.361   2.354   3.585  2.4995  1.0176 -0.0430
  352TIP3   OH2 1019   0.843   6.018   4.548 -0.2094  0.5504 -0.0655
  352TIP3    H1 1020   0.787   6.058   4.614 -1.0772 -0.7280  0.0025
  352TIP3    H2 1021   0.915   5.979   4.598 -0.4300  0.2942  0.0545
  353TIP3   OH2 1022   2.646   4.077   5.056  0.1308 -0.4774 -0.2358
  353TIP3    H1 1023   2.679   4.166   5.045  3.4899 -1.6075 -0.4573
  353TIP3    H2 1024   2.678   4.030   4.979 -0.4315 -2.1792  0.5187
  354TIP3   OH2 1025   0.858   3.143   0.849  0.6340  0.0678 -0.1677
  354TIP3    H1 1026   0.848   3.102   0.763 -1.2935  0.6086 -0.2479
  354TIP3    H2 1027   0.819   3.080   0.910  1.1680  0.0952  0.2072
  355TIP3   OH2 1028   4.229   4.866   1.903 -0.1811  0.2356  0.2752
  355TIP3    H1 1029   4.156   4.927   1.910  0.0995  0.7394 -0.8499
  355TIP3    H2 1030   4.207   4.793   1.961 -0.5119  1.4102  1.6547
  356TIP3   OH2 1031   6.225   2.698   2.255 -0.0240  0.2061  0.3925
  356TIP3    H1 1032   6.193   2.623   2.204 -0.4569  1.0008 -0.5396
  356TIP3    H2 1033   6.317   2.706   2.231 -0.3066  0.7790 -0.5504
  357TIP3   OH2 1034   0.641   4.523   2.545  0.4629 -0.3324 -0.3519
  357TIP3    H1 1035   0.586   4.500   2.471  0.3445  0.8305 -0.6537
  357TIP3    H2 1036   0.663   4.616   2.531 -0.3131  0.1881  1.5165
  358TIP3   OH2 1037   3.189   5.571   3.664  0.1137  0.0288 -0.0725
  358TIP3    H1 1038   3.279   5.571   3.697  0.5613 -0.3145 -1.2263
  358TIP3    H2 1039   3.155   5.485   3.687  0.5849 -0.3891 -0.8781
  359TIP3   OH2 1040   0.429   4.492   5.531  0.6124 -0.7421  0.3976
  359TIP3    H1 1041   0.511   4.446   5.513  2.1258  1.5524  1.0052
  359TIP3    H2 1042   0.455   4.583   5.546 -1.8821 -0.2136  2.1428
  360TIP3   OH2 1043   4.179   6.472   3.510 -0.2922 -0.0183  0.2118
  360TIP3    H1 1044   4.093   6.431   3.513 -1.7143  2.7669  1.2432
  360TIP3    H2 1045   4.222   6.444   3.591  0.5833 -2.7947 -1.0885
  361TIP3   OH2 1046   3.399   0.976   4.964  0.2204 -0.0138 -0.1153
  361TIP3    H1 1047   3.326   0.960   5.024 -0.6567 -0.7095 -1.3188
  361TIP3    H2 1048   3.445   0.892   4.960  0.9661  0.3562  0.4522
  362TIP3   OH2 1049   3.624   0.467   1.874 -0.3813 -0.2878 -0.4942
  362TIP3    H1 1050   3.691   0.420   1.923  0.2347  1.1257  0.0608
  362TIP3    H2 1051   3.670   0.506   1.800 -0.9132 -0.6505 -1.0307
  363TIP3   OH2 1052   0.904   3.910   5.599  0.0383  0.2016 -0.7703
  363TIP3    H1 1053   0.934   3.860   5.523  0.0397  1.8384 -1.9231
  363TIP3    H2 1054   0.811   3.889   5.606 -0.0298  0.2498 -1.4307
  364TIP3   OH2 1055   5.351   5.306   3.876 -0.1006  0.1090 -0.1140
  364TIP3    H1 1056   5.282   5.244   3.898 -0.5053  0.1703 -1.1339
  364TIP3    H2 1057   5.306   5.381   3.837  0.4929  0.3945 -0.2760
  365TIP3   OH2 1058   4.544   5.032   0.177 -0.0371  0.0876  0.3109
  365TIP3    H1 1059   4.593   5.092   0.233  0.4539  1.1835 -1.2296
  365TIP3    H2 1060   4.489   5.089   0.123 -1.3919 -1.0079  0.4859
  366TIP3   OH2 1061   1.477   3.879   2.297 -0.0876 -0.2643  0.3060
  366TIP3    H1 1062   1.477   3.966   2.337  0.0935 -0.2959  0.3751
  366TIP3    H2 1063   1.569   3.859   2.283 -0.1747  0.0317 -0.7533
  367TIP3   OH2 1064   4.190   2.323   3.461  0.0113 -0.5775 -0.4588
  367TIP3    H1 1065   4.194   2.292   3.552  0.6163 -0.8987 -0.5819
  367TIP3    H2 1066   4.138   2.403   3.465 -0.1217 -0.6847  0.1450
  368TIP3   OH2 1067   1.259   4.623   0.314 -0.3714  0.1577 -0.0308
  368TIP3    H1 1068   1.243   4.692   0.378 -2.0573 -0.9047  0.7784
  368TIP3    H2 1069   1.213   4.652   0.235  0.3407  0.7180 -0.2480
  369TIP3   OH2 1070   6.825   2.992   3.240  0.1508 -0.0097 -0.7721
  369TIP3    H1 1071   6.833   3.082   3.209  0.5282  0.2073 -0.0590
  369TIP3    H2 1072   6.902   2.947   3.203  0.3054  0.1159 -0.6046
  370TIP3   OH2 1073   5.206   5.543   3.976 -0.6103 -0.2773  0.0596
  370TIP3    H1 1074   5.171   5.523   3.889 -0.3646  1.0026 -0.3624
  370TIP3    H2 1075   5.158   5.621   4.004  0.4582  0.3127  0.3279
  371TIP3   OH2 1076   5.688   2.700   2.011 -0.3840 -0.4631 -0.2832
  371TIP3    H1 1077   5.707   2.641   1.938  0.9871  1.4274 -1.5644
  371TIP3    H2 1078   5.605   2.741   1.987 -0.2482 -0.3104 -0.5074
  372TIP3   OH2 1079   1.577   6.358   4.251  0.0456 -0.6574  0.5494
  372TIP3    H1 1080   1.543   6.413   4.181  0.6029  1.2783  1.7154
  372TIP3    H2 1081   1.500   6.324   4.296 -0.3186 -0.2279  0.2453
  373TIP3   OH2 1082   0.293   1.997   1.249  0.5393 -0.1931  0.3727
  373TIP3    H1 1083   0.276   1.986   1.156  0.0767  0.8044  0.3237
  373TIP3    H2 1084   0.349   1.923   1.272  1.0929 -0.1665 -0.8127
  374TIP3   OH2 1085   7.029   5.046   1.240 -0.0067  0.3392  0.2914
  374TIP3    H1 1086   6.944   5.004   1.251  0.0751  0.6227  2.4245
  374TIP3    H2 1087   7.081   5.015   1.314  0.9348  2.0865  0.4112
  375TIP3   OH2 1088   6.574   3.440   0.066 -0.4303  0.1896 -0.3388
  375TIP3    H1 1089   6.525   3.519   0.041 -0.0707  0.5232 -0.0091
  375TIP3    H2 1090   6.519   3.398   0.132 -0.8088 -0.0503 -0.7973
  376TIP3   OH2 1091   0.527   5.053   2.671 -0.2301  0.1962  0.3210
  376TIP3    H1 1092   0.540   4.992   2.743  0.9221 -0.7272 -0.6137
  376TIP3    H2 1093   0.433   5.068   2.668 -0.3273 -0.0448  1.7623
  377TIP3   OH2 1094   6.150   3.492   4.060 -0.0647 -0.4043 -0.5490
  377TIP3    H1 1095   6.156   3.413   4.113 -1.1024  0.5703  1.1023
  377TIP3    H2 1096   6.159   3.461   3.970  0.1432 -2.3103  0.0836
  378TIP3   OH2 1097   1.717   2.441   1.945  0.0430 -0.1288  0.3015
  378TIP3    H1 1098   1.748   2.490   2.021 -0.5213  0.3861  0.2048
  378TIP3    H2 1099   1.643   2.390   1.978 -0.2951  0.2086  0.0590
  379TIP3   OH2 1100   6.671   2.215   0.306  0.3593 -0.3604  0.2363
  379TIP3    H1 1101   6.614   2.209   0.383 -0.6209 -2.3479 -0.5806
  379TIP3    H2 1102   6.613   2.245   0.236  0.6381 -1.0710 -0.2999
  380TIP3   OH2 1103   5.941   2.345   5.588  0.7395  0.3606  0.2712
  380TIP3    H1 1104   6.036   2.345   5.574  0.4688 -0.3162 -1.9925
  380TIP3    H2 1105   5.904   2.347   5.500 -1.3547 -1.8609  0.9980
  381TIP3   OH2 1106   5.791   1.111   1.455  0.9888  0.5025  0.0645
  381TIP3    H1 1107   5.780   1.206   1.449 -0.3220  0.2763 -2.1948
  381TIP3    H2 1108   5.868   1.092   1.401  1.8650  0.3299  1.3205
  382TIP3   OH2 1109   3.317   5.865   1.160 -0.0314 -0.0306  0.3811
  382TIP3    H1 1110   3.273   5.888   1.079 -1.1228  3.3672  1.7617
  382TIP3    H2 1111   3.276   5.783   1.187 -2.3749  0.7435 -0.6113
  383TIP3   OH2 1112   0.674   4.899   1.778  0.4779 -0.4117 -0.5791
  383TIP3    H1 1113   0.733   4.823   1.782  2.0208  0.7604 -0.4692
  383TIP3    H2 1114   0.729   4.971   1.748 -0.5446  1.0892  0.9835
  384TIP3   OH2 1115   5.464   0.163   5.033 -0.4308 -0.2002  0.1209
  384TIP3    H1 1116   5.373   0.187   5.052 -0.4070  1.1285 -1.2745
  384TIP3    H2 1117   5.510   0.247   5.027  0.3416 -0.7148 -1.6964
  385TIP3   OH2 1118   1.106   0.408   1.420  0.0472  0.6042 -0.0740
  385TIP3    H1 1119   1.056   0.379   1.496  0.6666  1.4352  0.6624
  385TIP3    H2 1120   1.053   0.379   1.345 -1.6994  1.6879  0.6678
  386TIP3   OH2 1121   4.490   0.265   1.991 -0.5271 -0.3538  0.0298
  386TIP3    H1 1122   4.417   0.236   1.936  0.9541 -0.7175 -1.8863
  386TIP3    H2 1123   4.466   0.354   2.017 -0.5669  0.5694 -2.7843
  387TIP3   OH2 1124   1.519   0.524   2.132  0.2037  0.0337  0.4066
  387TIP3    H1 1125   1.429   0.505   2.161  0.1621 -0.1781  0.1408
  387TIP3    H2 1126   1.561   0.438   2.128 -0.0070 -0.0349 -0.8740
  388TIP3   OH2 1127   5.111   6.387   0.918 -0.3694  0.3537  0.5554
  388TIP3    H1 1128   5.031   6.336   0.915  0.5525 -1.1998 -2.6688
  388TIP3    H2 1129   5.084   6.476   0.897 -1.2900 -0.1888 -0.6852
  389TIP3   OH2 1130   0.125   2.011   4.155 -0.6816 -0.1346  0.4702
  389TIP3    H1 1131   0.056   1.985   4.094 -1.1560 -0.1648  1.0120
  389TIP3    H2 1132   0.080   2.064   4.221 -0.1819 -0.1382  0.8204
  390TIP3   OH2 1133   6.542   5.898   5.390 -0.0442  0.2360  0.8858
  390TIP3    H1 1134   6.499   5.921   5.472 -2.1438 -0.9924  0.2072
  390TIP3    H2 1135   6.571   5.807   5.403 -2.4865 -0.8293 -0.4206
  391TIP3   OH2 1136   6.766   4.691   4.598 -0.3595  0.3447  0.1219
  391TIP3    H1 1137   6.712   4.769   4.585  1.7029  1.7850 -0.2284
  391TIP3    H2 1138   6.853   4.717   4.571  1.0157 -1.2114  2.6348
  392TIP3   OH2 1139   3.680   2.889   5.130 -0.1754  0.3751 -0.8470
  392TIP3    H1 1140   3.708   2.929   5.048  0.2576  1.8730 -0.0032
  392TIP3    H2 1141   3.612   2.948   5.164  0.6072  0.5426  0.5289
  393TIP3   OH2 1142   3.017   3.307   4.377 -0.3274 -0.1704  0.0622
  393TIP3    H1 1143   3.029   3.387   4.325  0.5877 -0.7004 -0.5697
  393TIP3    H2 1144   2.937   3.267   4.341 -0.7612  0.4149  0.3481
  394TIP3   OH2 1145   1.711   5.327   5.155 -0.3666 -0.0855 -0.0703
  394TIP3    H1 1146   1.689   5.314   5.248 -1.5127 -0.6914 -0.4123
  394TIP3    H2 1147   1.802   5.358   5.157  0.2940 -1.8923  1.1611
  395TIP3   OH2 1148   4.349   1.282   2.710 -0.1300  0.8085 -0.7962
  395TIP3    H1 1149   4.403   1.341   2.657 -0.1802  0.7717 -0.8891
  395TIP3    H2 1150   4.399   1.269   2.791  0.3455  0.1946 -1.1781
  396TIP3   OH2 1151   4.806   3.485   0.993  0.0289 -0.2339 -0.4905
  396TIP3    H1 1152   4.872   3.555   0.999  1.0012 -1.1210 -0.5273
  396TIP3    H2 1153   4.769   3.495   0.906  0.6731 -0.1983 -0.7673
  397TIP3   OH2 1154   4.856   0.980   0.094 -0.7010 -0.3359  0.1056
  397TIP3    H1 1155   4.947   0.969   0.120 -1.3547 -2.0143  1.9812
  397TIP3    H2 1156   4.846   1.074   0.079  1.4109 -0.1764 -0.5561
  398TIP3   OH2 1157   3.772   2.616   0.106  0.2751  0.4194  0.2119
  398TIP3    H1 1158   3.699   2.607   0.045  1.0382  0.0807 -0.6693
  398TIP3    H2 1159   3.797   2.526   0.128  1.0584  0.5111 -0.2708
  399TIP3   OH2 1160   1.517   0.471   2.767  0.0264  0.2293 -0.4000
  399TIP3    H1 1161   1.522   0.560   2.731 -0.5562  0.1894 -0.5908
  399TIP3    H2 1162   1.424   0.448   2.760 -0.1627  0.3211  1.3847
  400TIP3   OH2 1163   5.003   6.569   1.813 -0.1607  0.5305 -0.1936
  400TIP3    H1 1164   4.919   6.599   1.848  0.5439  1.5914  0.6614
  400TIP3    H2 1165   5.067   6.593   1.880  0.7044 -1.3432 -0.2700
  401TIP3   OH2 1166   4.216   0.053   2.998 -0.1572  0.1659 -0.7215
  401TIP3    H1 1167   4.228   0.108   2.921 -0.4322  0.0461 -0.8521
  401TIP3    H2 1168   4.280   0.086   3.061 -0.1406  0.4620 -0.8906
  402TIP3   OH2 1169   5.324   0.670   0.314 -0.1998 -0.2988  0.0545
  402TIP3    H1 1170   5.323   0.579   0.284  0.3297 -0.0024 -0.8649
  402TIP3    H2 1171   5.368   0.718   0.245  1.5823  0.3133  1.5356
  403TIP3   OH2 1172   2.894   1.687   0.404  0.3199  0.2307 -0.3827
  403TIP3    H1 1173   2.957   1.676   0.332  2.2843  0.9438  1.1256
  403TIP3    H2 1174   2.868   1.779   0.399  2.6658  1.0951  1.4018
  404TIP3   OH2 1175   3.481   1.526   5.457  0.3687  0.0787  0.3088
  404TIP3    H1 1176   3.531   1.445   5.468  1.3208  0.7498  1.0798
  404TIP3    H2 1177   3.545   1.596   5.472 -0.6870  0.9714  0.7953
  405TIP3   OH2 1178   4.206   5.995   3.006  0.0049 -0.3738 -0.3390
  405TIP3    H1 1179   4.294   6.029   2.992 -0.2401  1.0742  1.3769
  405TIP3    H2 1180   4.220   5.906   3.041  0.8030 -0.0399  0.2169
  406TIP3   OH2 1181   0.330   1.464   4.440 -0.2899 -0.0755  0.0586
  406TIP3    H1 1182   0.274   1.410   4.384  0.6883  0.2251 -1.2624
  406TIP3    H2 1183   0.314   1.554   4.413 -0.8030  0.2060  1.2233
  407TIP3   OH2 1184   0.988   5.113   3.700  0.7712  0.2389 -0.1511
  407TIP3    H1 1185   1.045   5.133   3.774  0.7610 -2.4858  0.7351
  407TIP3    H2 1186   1.048   5.097   3.627  0.9313  0.7028 -0.1185
  408TIP3   OH2 1187   5.726   0.274   4.424 -0.2062 -0.1291  0.5795
  408TIP3    H1 1188   5.789   0.305   4.489  1.5200 -1.2574 -0.4629
  408TIP3    H2 1189   5.656   0.233   4.475  1.3493 -1.4593  1.7550
  409TIP3   OH2 1190   3.304   3.504   3.083 -0.2150  0.1183  0.1970
  409TIP3    H1 1191   3.326   3.591   3.050 -1.5223  0.2330 -0.4655
  409TIP3    H2 1192   3.275   3.456   3.005 -1.3345 -0.2967  0.8494
  410TIP3   OH2 1193   5.548   5.499   0.909 -1.2372 -0.0435 -0.2517
  410TIP3    H1 1194   5.576   5.455   0.989 -1.6435  0.6040  0.2602
  410TIP3    H2 1195   5.628   5.536   0.872 -1.1343  0.1665  0.1804
  411TIP3   OH2 1196   0.196   2.233   4.788 -0.2971  0.0167 -0.4847
  411TIP3    H1 1197   0.182   2.159   4.730 -0.1298  1.2825 -2.2232
  411TIP3    H2 1198   0.284   2.265   4.767  0.2386 -0.1628  1.2950
  412TIP3   OH2 1199   3.182   2.094   3.590  0.0931  0.1651  0.3510
  412TIP3    H1 1200   3.246   2.158   3.558  1.4458 -0.8517  0.9315
  412TIP3    H2 1201   3.191   2.019   3.530 -0.6516  0.0639  0.3634
  413TIP3   OH2 1202   4.308   1.413   1.598  0.2661  0.0953 -0.0220
  413TIP3    H1 1203   4.263   1.385   1.677  1.0538  1.0665  0.8033
  413TIP3    H2 1204   4.261   1.491   1.570  0.1654 -0.0828 -0.3571
  414TIP3   OH2 1205   5.744   3.956   2.886 -0.2259  0.0984 -0.3763
  414TIP3    H1 1206   5.692   4.034   2.904 -0.1643  0.3081 -1.0751
  414TIP3    H2 1207   5.829   3.973   2.927 -0.2793  0.3105 -0.3532
  415TIP3   OH2 1208   4.403   6.178   3.019  0.2163 -0.0798 -0.3369
  415TIP3    H1 1209   4.487   6.149   2.985  0.9676  1.0970  0.4272
  415TIP3    H2 1210   4.406   6.274   3.013  0.2192  0.1985  2.4767
  416TIP3   OH2 1211   6.189   5.842   2.000 -0.1113 -0.3669 -0.3327
  416TIP3    H1 1212   6.245   5.879   1.932 -2.0289  0.9571 -1.2909
  416TIP3    H2 1213   6.211   5.892   2.079  0.1920  0.0088 -0.6522
  417TIP3   OH2 1214   5.424   0.646   1.460 -0.2284 -0.1584 -0.3326
  417TIP3    H1 1215   5.331   0.623   1.463 -0.4172  0.5915  2.3816
  417TIP3    H2 1216   5.469   0.571   1.499  0.0254  0.4300  0.5475
  418TIP3   OH2 1217   6.381   3.598   5.343 -0.6097 -0.6431  0.5796
  418TIP3    H1 1218   6.459   3.591   5.397  1.2574  0.7082 -1.7562
  418TIP3    H2 1219   6.339   3.512   5.351  1.2267 -1.5061  1.7096
  419TIP3   OH2 1220   1.881   0.455   2.951 -0.2824 -0.0181 -0.0198
  419TIP3    H1 1221   1.864   0.366   2.979  1.4196  0.1703  1.8645
  419TIP3    H2 1222   1.809   0.507   2.987 -0.1047 -0.3262  0.7777
  420TIP3   OH2 1223   4.989   6.686   3.918  1.1217 -0.2654 -0.2933
  420TIP3    H1 1224   4.944   6.690   3.833  0.9364 -0.1340 -0.1879
  420TIP3    H2 1225   5.082   6.693   3.896  1.0751 -0.2604 -0.4893
  421TIP3   OH2 1226   3.520   0.046   1.369 -0.2310 -0.3083  0.3454
  421TIP3    H1 1227   3.454   0.104   1.407 -1.0770 -0.7963 -0.3239
  421TIP3    H2 1228   3.521   0.069   1.276  0.6800 -0.1936  0.3725
  422TIP3   OH2 1229   0.911   6.598   3.929 -0.2697 -0.2652  0.2140
  422TIP3    H1 1230   0.979   6.536   3.955 -0.5892 -0.8320 -0.2902
  422TIP3    H2 1231   0.845   6.545   3.885  0.2688  0.6347 -1.8380
  423TIP3   OH2 1232   6.168   5.792   5.677  0.4716  0.0712 -0.1372
  423TIP3    H1 1233   6.157   5.884   5.656  4.0980  1.5269  3.2097
  423TIP3    H2 1234   6.214   5.755   5.602  1.0431  1.5691 -0.5489
  424TIP3   OH2 1235   5.917   0.564   5.058 -0.6530  0.1237  0.4896
  424TIP3    H1 1236   5.983   0.511   5.013  0.3867  1.6915  0.0749
  424TIP3    H2 1237   5.870   0.609   4.988  0.1697  1.6550  0.8739
  425TIP3   OH2 1238   3.460   1.393   2.796 -0.3068  0.0170  0.0763
  425TIP3    H1 1239   3.502   1.315   2.760  0.2711 -0.3704  1.5152
  425TIP3    H2 1240   3.514   1.466   2.765 -1.7153  0.0623 -2.5541
  426TIP3   OH2 1241   1.220   5.967   2.066  0.3033  0.4638  0.1649
  426TIP3    H1 1242   1.179   5.883   2.047  1.2841  0.4717 -2.3031
  426TIP3    H2 1243   1.149   6.031   2.057 -0.5348 -0.0493  2.4266
  427TIP3   OH2 1244   4.757   4.915   4.228 -0.1914 -0.3845 -0.0002
  427TIP3    H1 1245   4.840   4.872   4.248  0.1296 -0.4047 -1.2911
  427TIP3    H2 1246   4.725   4.947   4.313  1.3819  0.0894  0.4461
  428TIP3   OH2 1247   3.081   4.178   1.931  0.1042 -0.3973  0.2094
  428TIP3    H1 1248   3.084   4.181   1.835  0.5241 -3.1624  0.0352
  428TIP3    H2 1249   3.137   4.250   1.959  0.5658  0.0195 -1.6527
  429TIP3   OH2 1250   3.419   1.448   1.347 -0.3195 -0.1040 -0.6574
  429TIP3    H1 1251   3.367   1.371   1.324  0.9257 -0.6816 -1.6837
  429TIP3    H2 1252   3.355   1.512   1.378 -1.2267 -2.2462  2.3527
  430TIP3   OH2 1253   2.599   2.602   4.724  0.1453  0.3587 -0.5966
  430TIP3    H1 1254   2.582   2.536   4.657  1.6584 -3.1543  2.1512
  430TIP3    H2 1255   2.694   2.597   4.740 -0.0235  1.7040  1.1744
  431TIP3   OH2 1256   3.825   5.894   2.460  0.1162 -0.5078 -0.4545
  431TIP3    H1 1257   3.880   5.838   2.406  0.1931 -1.5506  0.6416
  431TIP3    H2 1258   3.886   5.947   2.511  0.0762 -0.5086 -0.4049
  432TIP3   OH2 1259   2.869   5.731   0.578  0.3550 -0.0651 -0.1047
  432TIP3    H1 1260   2.911   5.697   0.657  0.3274  1.2767  0.5272
  432TIP3    H2 1261   2.801   5.668   0.558  0.4109 -0.4715  0.9158
  433TIP3   OH2 1262   3.260   3.944   0.110  0.3235 -0.0046  0.1701
  433TIP3    H1 1263   3.331   3.879   0.118 -0.3850 -0.8495 -0.2816
  433TIP3    H2 1264   3.195   3.916   0.173 -0.5143 -0.4277 -0.8625
  434TIP3   OH2 1265   1.554   5.764   1.202 -0.5715 -0.6477 -0.5333
  434TIP3    H1 1266   1.461   5.742   1.207 -0.3550 -2.0448 -1.9544
  434TIP3    H2 1267   1.600   5.685   1.231  0.1955  0.2433  0.7883
  435TIP3   OH2 1268   4.663   4.793   3.992  0.5179  0.5374 -0.0271
  435TIP3    H1 1269   4.699   4.838   4.068  3.8813 -1.4831 -0.2521
  435TIP3    H2 1270   4.704   4.836   3.917  0.5526 -0.2377 -0.4575
  436TIP3   OH2 1271   4.906   4.502   5.576 -0.0019 -0.3644 -0.0989
  436TIP3    H1 1272   4.865   4.507   5.662  3.7252 -0.6872  1.8693
  436TIP3    H2 1273   4.943   4.589   5.562  1.2346 -0.9134 -0.3496
  437TIP3   OH2 1274   5.278   3.298   2.859  0.4323  0.3198 -0.1088
  437TIP3    H1 1275   5.228   3.271   2.937 -1.4331  1.6188 -0.7878
  437TIP3    H2 1276   5.370   3.289   2.886 -0.1015 -1.8699  1.3002
  438TIP3   OH2 1277   2.635   3.381   5.251  0.1192  0.2425 -0.4409
  438TIP3    H1 1278   2.626   3.464   5.204  0.2356  0.6046  0.1624
  438TIP3    H2 1279   2.544   3.354   5.269  0.0097 -0.6263 -2.0892
  439TIP3   OH2 1280   6.750   6.031   2.133  0.0346 -0.1549  0.0272
  439TIP3    H1 1281   6.718   6.118   2.157 -1.0765  0.1480 -2.2518
  439TIP3    H2 1282   6.811   6.047   2.061 -0.2909 -1.2575 -0.5155
  440TIP3   OH2 1283   0.808   5.812   2.559 -0.4475 -0.1255 -0.3701
  440TIP3    H1 1284   0.779   5.817   2.650  0.1732 -0.3453 -0.1521
  440TIP3    H2 1285   0.804   5.719   2.538 -0.0329 -0.1476 -0.3717
  441TIP3   OH2 1286   5.362   6.635   1.132 -0.5555 -0.2414  0.3654
  441TIP3    H1 1287   5.281   6.583   1.136  0.2060 -1.5496 -0.5301
  441TIP3    H2 1288   5.336   6.722   1.163 -2.0962 -0.8778  0.9797
  442TIP3   OH2 1289   5.401   3.384   0.839  0.4613  0.2852  0.0305
  442TIP3    H1 1290   5.485   3.339   0.830  2.1012  3.3691 -2.1176
  442TIP3    H2 1291   5.350   3.355   0.764  0.6985  0.4256 -0.1871
  443TIP3   OH2 1292   1.994   0.287   4.438  0.0627 -0.3196  0.1398
  443TIP3    H1 1293   2.024   0.245   4.518  2.2767  0.4194 -0.2405
  443TIP3    H2 1294   1.994   0.216   4.373  0.2626 -0.4912  0.3251
  444TIP3   OH2 1295   1.247   4.973   4.054  0.0681  0.0737 -0.2966
  444TIP3    H1 1296   1.295   4.920   3.991  0.5638 -0.6580  0.6741
  444TIP3    H2 1297   1.176   4.916   4.085 -0.8333  0.7956 -0.9684
  445TIP3   OH2 1298   5.696   4.453   1.424  0.4522  0.0397 -0.5660
  445TIP3    H1 1299   5.732   4.376   1.382  2.1234  0.0057  0.8425
  445TIP3    H2 1300   5.604   4.431   1.440  0.4197 -0.8864 -1.8554
  446TIP3   OH2 1301   6.833   5.252   5.689  0.2909 -0.2754 -0.0533
  446TIP3    H1 1302   6.877   5.171   5.716  2.2469  0.3112 -1.2480
  446TIP3    H2 1303   6.740   5.229   5.687  0.8084 -2.6408 -0.7613
  447TIP3   OH2 1304   5.322   1.252   2.845  0.0206 -0.1079 -0.4190
  447TIP3    H1 1305   5.327   1.184   2.778  2.6793 -0.3500 -0.0743
  447TIP3    H2 1306   5.257   1.220   2.907 -0.5704 -1.1312 -1.5406
  448TIP3   OH2 1307   2.536   1.547   2.368 -0.4214  0.2808 -0.1139
  448TIP3    H1 1308   2.528   1.631   2.412 -0.8322  0.1579  0.0496
  448TIP3    H2 1309   2.502   1.563   2.280  0.7067  0.6107 -0.5065
  449TIP3   OH2 1310   4.692   0.920   5.253 -0.6733 -0.3646  0.6358
  449TIP3    H1 1311   4.769   0.920   5.309 -1.1176  0.0672  1.2548
  449TIP3    H2 1312   4.714   0.980   5.182  0.2615 -1.6358 -0.2077
  450TIP3   OH2 1313   4.284   5.411   3.192  0.0472 -0.2184  0.7471
  450TIP3    H1 1314   4.277   5.505   3.177  0.0376  0.1652  2.8301
  450TIP3    H2 1315   4.368   5.387   3.154 -0.3132  0.4549 -0.5280
  451TIP3   OH2 1316   3.382   4.004   4.800 -0.1386  0.0431  0.1468
  451TIP3    H1 1317   3.475   3.999   4.776  0.3115  0.5395  1.6850
  451TIP3    H2 1318   3.377   3.961   4.885 -2.0496 -3.5559 -1.5553
  452TIP3   OH2 1319   1.861   6.691   4.346 -0.0543 -0.4631 -0.2386
  452TIP3    H1 1320   1.828   6.619   4.293 -2.8655  0.3688  0.2564
  452TIP3    H2 1321   1.820   6.680   4.432  0.4103  1.0576  0.2279
  453TIP3   OH2 1322   3.426   1.687   3.590  0.4062 -0.3799  0.0323
  453TIP3    H1 1323   3.522   1.697   3.593  0.1987  1.8518  1.3627
  453TIP3    H2 1324   3.409   1.607   3.640  1.4842  0.4852  1.8994
  454TIP3   OH2 1325   5.364   4.373   5.124 -0.1222  0.0975  0.4544
  454TIP3    H1 1326   5.342   4.399   5.035  2.0164 -0.6746 -0.3671
  454TIP3    H2 1327   5.281   4.378   5.172 -1.2492  0.8683 -1.4741
  455TIP3   OH2 1328   6.783   4.382   1.125 -0.3180 -0.7945  0.1606
  455TIP3    H1 1329   6.763   4.355   1.215  0.4971 -3.1115 -0.2895
  455TIP3    H2 1330   6.869   4.343   1.107 -0.7597 -0.9437 -1.8394
  456TIP3   OH2 1331   3.283   4.338   5.763  0.0873  0.5268  0.4922
  456TIP3    H1 1332   3.255   4.398   5.693 -1.3103 -0.4680  0.1458
  456TIP3    H2 1333   3.376   4.356   5.774  0.4877  0.3960 -1.9819
  457TIP3   OH2 1334   4.565   5.060   5.825  0.6182  0.3054  0.2099
  457TIP3    H1 1335   4.632   5.110   5.778 -0.3284  0.4924 -1.0243
  457TIP3    H2 1336   4.483   5.086   5.783 -0.2614  0.2273  1.7972
  458TIP3   OH2 1337   3.558   6.285   4.090  0.1425 -0.1384  0.0956
  458TIP3    H1 1338   3.530   6.210   4.142  1.5386 -0.4550  0.4253
  458TIP3    H2 1339   3.539   6.361   4.145  1.1847 -0.4416  0.8960
  459TIP3   OH2 1340   2.380   2.260   3.986 -0.0034  0.1672 -1.0470
  459TIP3    H1 1341   2.367   2.240   3.893 -4.2806 -0.2087 -0.5645
  459TIP3    H2 1342   2.348   2.350   3.996  0.0597  0.0789  0.0823
  460TIP3   OH2 1343   1.894   5.040   5.130  0.1265 -0.0493  0.1048
  460TIP3    H1 1344   1.916   5.119   5.179  1.4667  1.4300 -2.6578
  460TIP3    H2 1345   1.899   5.067   5.038  2.1077 -3.6729 -1.0252
  461TIP3   OH2 1346   4.202   1.280   2.450  0.0601  0.0829  0.1819
  461TIP3    H1 1347   4.257   1.236   2.515 -0.8424 -0.9633  0.2536
  461TIP3    H2 1348   4.117   1.289   2.493  0.3988  2.6842  0.4943
  462TIP3   OH2 1349   0.936   1.351   3.662 -0.2865 -0.3265 -0.3444
  462TIP3    H1 1350   0.841   1.359   3.674 -0.3206 -0.6314 -0.4039
  462TIP3    H2 1351   0.957   1.414   3.594 -0.7164 -1.4695 -1.5788
  463TIP3   OH2 1352   1.594   5.726   4.332  0.5363 -0.4742  0.1932
  463TIP3    H1 1353   1.558   5.765   4.411 -0.1036 -1.6690  0.5128
  463TIP3    H2 1354   1.611   5.635   4.356  1.1750 -0.6244 -0.7807
  464TIP3   OH2 1355   2.787   1.991   5.191  0.2607 -0.3302 -0.3069
  464TIP3    H1 1356   2.835   2.073   5.197 -0.6153  0.2266 -0.7449
  464TIP3    H2 1357   2.718   1.999   5.258  0.8506 -1.1850  0.4310
  465TIP3   OH2 1358   4.115   4.120   3.229  0.0728  0.5640  0.0314
  465TIP3    H1 1359   4.044   4.066   3.264  0.6154 -0.1614  0.0457
  465TIP3    H2 1360   4.071   4.188   3.178 -0.5887 -1.1316 -1.7783
  466TIP3   OH2 1361   4.432   3.554   4.498 -0.0326 -0.3591  0.0494
  466TIP3    H1 1362   4.501   3.516   4.552 -0.1157 -2.2668 -1.0786
  466TIP3    H2 1363   4.468   3.553   4.409 -1.7762 -2.2273 -0.7129
  467TIP3   OH2 1364   5.002   6.453   4.058 -0.6651  0.1704  0.2442
  467TIP3    H1 1365   4.953   6.521   4.012  0.6900  1.9699  1.3404
  467TIP3    H2 1366   5.091   6.460   4.024 -0.5954 -1.4241  0.0186
  468TIP3   OH2 1367   2.056   1.503   1.079 -0.1201 -0.2395  0.1632
  468TIP3    H1 1368   2.038   1.581   1.027 -1.9020 -0.6293  0.1209
  468TIP3    H2 1369   2.148   1.483   1.062 -0.3463  0.2954 -1.9380
  469TIP3   OH2 1370   5.476   1.367   3.744 -0.0391  0.3073 -0.0901
  469TIP3    H1 1371   5.525   1.302   3.794  1.4202  0.1057 -1.6894
  469TIP3    H2 1372   5.408   1.316   3.699 -0.6614  0.3324  0.7949
  470TIP3   OH2 1373   0.114   4.746   4.112  0.2064  0.2860  0.1547
  470TIP3    H1 1374   0.161   4.689   4.052  1.3266  0.2822  0.9932
  470TIP3    H2 1375   0.174   4.758   4.186 -0.8640  0.8098  0.9755
  471TIP3   OH2 1376   1.519   6.447   3.988  0.1252 -0.0214 -0.2137
  471TIP3    H1 1377   1.575   6.489   3.924 -1.9312  2.6144 -0.4372
  471TIP3    H2 1378   1.465   6.385   3.937  0.5706 -0.1677 -0.5080
  472TIP3   OH2 1379   1.871   2.023   5.862  0.5905  0.5971 -0.0551
  472TIP3    H1 1380   1.796   2.018   5.920 -0.7763 -1.0263 -1.8322
  472TIP3    H2 1381   1.869   2.112   5.828 -1.3339  0.2594 -0.9907
  473TIP3   OH2 1382   4.584   3.813   3.468  0.1510 -0.3937 -0.1508
  473TIP3    H1 1383   4.651   3.866   3.512  0.2620 -1.2503  0.7512
  473TIP3    H2 1384   4.590   3.838   3.376  0.2004  1.1487  0.2395
  474TIP3   OH2 1385   0.284   0.667   2.070  0.4904  0.4593  0.0151
  474TIP3    H1 1386   0.305   0.578   2.097  1.5717  0.5134 -0.6067
  474TIP3    H2 1387   0.203   0.688   2.117 -0.8979 -1.5633 -1.3060
  475TIP3   OH2 1388   4.524   4.483   1.091 -0.1506 -0.4155  0.2431
  475TIP3    H1 1389   4.501   4.571   1.120  0.8910  0.3087 -1.0229
  475TIP3    H2 1390   4.525   4.489   0.995  1.4336 -1.3860  0.1596
  476TIP3   OH2 1391   0.848   5.478   4.173 -0.2286  0.2072 -0.6572
  476TIP3    H1 1392   0.914   5.547   4.173  1.0312 -0.9533 -0.2696
  476TIP3    H2 1393   0.783   5.507   4.109  1.6855  0.4415 -2.6079
  477TIP3   OH2 1394   4.049   0.916   0.464 -0.0237 -0.5998  0.0505
  477TIP3    H1 1395   4.069   0.998   0.509  2.7996 -1.3815  0.3655
  477TIP3    H2 1396   3.956   0.901   0.482 -0.4443  2.1300  0.5758
  478TIP3   OH2 1397   0.297   5.900   3.573  0.1402 -0.1859  0.0794
  478TIP3    H1 1398   0.271   5.871   3.485 -0.8413  0.1438  0.2533
  478TIP3    H2 1399   0.376   5.952   3.558  0.7306 -1.1973 -0.4613
  479TIP3   OH2 1400   1.707   0.125   5.461  0.0630 -0.3251 -0.2969
  479TIP3    H1 1401   1.634   0.174   5.423  0.4545 -0.0644 -0.7284
  479TIP3    H2 1402   1.681   0.108   5.551  0.2819  1.4432  0.1308
  480TIP3   OH2 1403   0.061   3.844   3.613 -0.6579  0.1378 -0.2159
  480TIP3    H1 1404   0.044   3.761   3.658  3.4873 -0.2472  1.0630
  480TIP3    H2 1405   0.029   3.911   3.674 -1.3761 -0.4657  0.0869
  481TIP3   OH2 1406   1.351   6.150   4.636  0.1909  0.2309  0.8003
  481TIP3    H1 1407   1.336   6.149   4.541 -0.3755  0.1360  0.8936
  481TIP3    H2 1408   1.437   6.193   4.645  0.5754 -0.3994  0.2065
  482TIP3   OH2 1409   2.999   0.782   4.542  0.1977 -0.5089  0.5214
  482TIP3    H1 1410   3.074   0.728   4.518  0.1510 -1.0661  1.5556
  482TIP3    H2 1411   3.036   0.853   4.595  0.2183  0.3072 -0.5641
  483TIP3   OH2 1412   3.835   2.013   4.569 -0.1844  0.1572  0.7451
  483TIP3    H1 1413   3.797   2.038   4.653 -2.8804 -0.3430 -0.2338
  483TIP3    H2 1414   3.779   2.056   4.504  0.1954 -1.6204 -0.8275
  484TIP3   OH2 1415   6.512   2.873   2.866  0.2600  0.6066 -0.1757
  484TIP3    H1 1416   6.465   2.837   2.940  1.4934  1.0513  0.8620
  484TIP3    H2 1417   6.600   2.891   2.899  0.6056  1.5926 -1.5109
  485TIP3   OH2 1418   5.988   0.245   2.177  0.2854  0.3165  0.1397
  485TIP3    H1 1419   6.004   0.318   2.117 -2.6398  1.2352  0.3295
  485TIP3    H2 1420   6.028   0.273   2.259 -0.1970  1.4298  0.0169
  486TIP3   OH2 1421   5.325   3.544   0.050  0.2627  0.3019 -0.1317
  486TIP3    H1 1422   5.248   3.489   0.063 -0.2729  0.6698 -1.5108
  486TIP3    H2 1423   5.394   3.484   0.022  0.5980 -0.0721  1.4123
  487TIP3   OH2 1424   4.902   0.133   1.724 -0.0179  0.2287  0.2852
  487TIP3    H1 1425   4.929   0.112   1.814  0.5673 -1.8367 -0.3043
  487TIP3    H2 1426   4.819   0.086   1.713 -0.4110  0.9975 -0.0570
  488TIP3   OH2 1427   6.569   6.550   3.418 -0.4574  0.1185 -0.9396
  488TIP3    H1 1428   6.626   6.596   3.480 -1.3389 -2.3632  1.9809
  488TIP3    H2 1429   6.489   6.602   3.416  0.2616  1.2385 -1.5543
  489TIP3   OH2 1430   1.090   3.194   4.179  0.2518 -0.0144  0.0226
  489TIP3    H1 1431   1.024   3.176   4.112  0.1081 -0.2657  0.2281
  489TIP3    H2 1432   1.168   3.216   4.130  0.2321 -0.4979 -0.2397
  490TIP3   OH2 1433   2.671   5.374   5.556 -0.0091 -0.1172 -0.2821
  490TIP3    H1 1434   2.716   5.375   5.640  1.7678 -1.4921 -1.1450
  490TIP3    H2 1435   2.608   5.302   5.563 -1.0525  0.8305  0.4033
  491TIP3   OH2 1436   3.787   6.741   1.979 -0.0522 -0.0520 -0.2671
  491TIP3    H1 1437   3.868   6.727   2.029 -1.4503 -1.8416  1.6405
  491TIP3    H2 1438   3.777   6.662   1.926 -0.8160 -0.0927 -0.0762
  492TIP3   OH2 1439   2.745   1.290   0.985 -0.1619 -0.5166 -0.2553
  492TIP3    H1 1440   2.733   1.254   1.073 -0.5455  2.0013  0.8342
  492TIP3    H2 1441   2.658   1.316   0.958  0.2150  0.5806 -0.4767
  493TIP3   OH2 1442   0.202   5.890   4.860 -0.0399 -0.2681 -0.2801
  493TIP3    H1 1443   0.260   5.928   4.794 -0.8053  1.4857  0.0063
  493TIP3    H2 1444   0.154   5.821   4.814  1.9504 -1.5340 -0.6135
  494TIP3   OH2 1445   5.588   5.344   0.184 -0.2822  0.4791  0.0749
  494TIP3    H1 1446   5.558   5.319   0.096 -3.1177  1.3789  0.7009
  494TIP3    H2 1447   5.654   5.279   0.206 -1.2261 -1.2112 -1.7735
  495TIP3   OH2 1448   0.779   6.342   2.493 -0.4140  0.4100  0.1633
  495TIP3    H1 1449   0.808   6.302   2.411  0.7768  0.5849  0.4889
  495TIP3    H2 1450   0.761   6.433   2.470 -0.1140  0.4513  0.0949
  496TIP3   OH2 1451   6.502   1.879   1.903  0.0749 -0.4557  0.1702
  496TIP3    H1 1452   6.526   1.821   1.831  0.8111  1.6527 -1.3682
  496TIP3    H2 1453   6.579   1.881   1.959 -0.7396 -2.6393  1.4754
  497TIP3   OH2 1454   1.733   2.278   0.200  0.3223 -0.0576  0.3072
  497TIP3    H1 1455   1.749   2.344   0.268 -2.7397  1.4160 -0.2196
  497TIP3    H2 1456   1.670   2.218   0.240  1.2066 -1.2703 -0.0741
  498TIP3   OH2 1457   6.567   6.762   4.405  0.1127 -0.2451 -0.0269
  498TIP3    H1 1458   6.495   6.708   4.438  0.2960 -0.2860  0.3045
  498TIP3    H2 1459   6.624   6.776   4.480  0.3492 -0.0422 -0.2399
  499TIP3   OH2 1460   5.773   0.651   2.055 -0.3670 -0.3537 -0.2981
  499TIP3    H1 1461   5.697   0.599   2.029 -0.8642  0.3358 -0.2451
  499TIP3    H2 1462   5.808   0.684   1.972 -1.8683  1.7265 -0.1810
  500TIP3   OH2 1463   3.751   2.870   2.546 -0.4150 -0.5011  0.2573
  500TIP3    H1 1464   3.801   2.933   2.495 -2.3280  1.3249  0.4897
  500TIP3    H2 1465   3.733   2.799   2.485  0.1046  0.1160 -0.6376
  501TIP3   OH2 1466   6.625   3.307   1.370 -0.3857  0.1762 -0.6191
  501TIP3    H1 1467   6.606   3.262   1.288 -0.9792 -0.6090 -0.0719
  501TIP3    H2 1468   6.550   3.287   1.426 -0.7455  1.9920 -0.3944
  502TIP3   OH2 1469   3.517   4.125   1.314  0.2428 -0.4535  0.1468
  502TIP3    H1 1470   3.521   4.161   1.226 -1.1126  0.5216  0.4577
  502TIP3    H2 1471   3.589   4.168   1.361 -0.3252  0.6213  0.0613
  503TIP3   OH2 1472   4.300   4.307   3.678  0.5202 -0.5365 -0.0537
  503TIP3    H1 1473   4.376   4.250   3.668  1.2856  0.6630 -1.5166
  503TIP3    H2 1474   4.279   4.334   3.588 -1.5916 -0.7595  0.3267
  504TIP3   OH2 1475   2.895   3.749   5.695 -0.0331  0.4255  0.1554
  504TIP3    H1 1476   2.971   3.754   5.752  1.0412  0.5828 -1.2545
  504TIP3    H2 1477   2.860   3.839   5.694  0.6738  0.6977 -0.4040
  505TIP3   OH2 1478   6.906   2.358   2.976 -0.0997 -0.7003 -0.6261
  505TIP3    H1 1479   6.928   2.384   3.066 -0.4767 -2.0887 -0.0969
  505TIP3    H2 1480   6.893   2.441   2.929  0.7732  0.0574  0.4203
  506TIP3   OH2 1481   2.607   0.254   4.896 -0.0172 -0.6413  0.1733
  506TIP3    H1 1482   2.532   0.207   4.859  0.2503 -1.0640  0.1603
  506TIP3    H2 1483   2.677   0.240   4.833 -0.3964  1.2481 -0.7123
  507TIP3   OH2 1484   1.212   1.865   1.468  0.0198 -0.3223 -0.0652
  507TIP3    H1 1485   1.217   1.769   1.477 -0.3894 -0.3422 -0.0379
  507TIP3    H2 1486   1.293   1.889   1.424 -0.3088 -0.7872 -0.9413
  508TIP3   OH2 1487   6.873   4.589   2.338  0.1925  0.1031  0.4244
  508TIP3    H1 1488   6.805   4.634   2.287 -0.3217 -0.9735  0.1439
  508TIP3    H2 1489   6.841   4.591   2.428  0.5116  0.9005  0.5352
  509TIP3   OH2 1490   0.136   1.305   1.079 -0.8711 -0.0699  0.2526
  509TIP3    H1 1491   0.134   1.249   1.156 -0.2105  0.0296  0.3495
  509TIP3    H2 1492   0.183   1.384   1.107 -1.0751  0.1854 -0.1060
  510TIP3   OH2 1493   3.405   3.937   1.770  0.4897  0.5416 -0.3936
  510TIP3    H1 1494   3.366   3.990   1.701 -1.3098  1.1741  1.0261
  510TIP3    H2 1495   3.331   3.898   1.815  1.5791  0.3351  1.3138
  511TIP3   OH2 1496   1.659   5.364   0.744  0.3233 -0.3975 -0.1253
  511TIP3    H1 1497   1.660   5.460   0.734 -1.3990 -0.2818  0.4799
  511TIP3    H2 1498   1.638   5.332   0.656 -1.0993 -0.0872  0.0723
  512TIP3   OH2 1499   4.328   5.299   5.028 -0.7713  0.1198 -0.3533
  512TIP3    H1 1500   4.257   5.242   5.057 -1.4440  0.3220 -1.5150
  512TIP3    H2 1501   4.308   5.317   4.936 -0.4849  2.0947 -0.0630
  513TIP3   OH2 1502   0.840   2.976   5.523  0.7298 -0.0706 -0.1699
  513TIP3    H1 1503   0.796   3.029   5.589 -1.4617 -1.5252 -0.3524
  513TIP3    H2 1504   0.919   2.944   5.567  0.2392  0.4469  1.1201
  514TIP3   OH2 1505   0.605   5.309   5.605  0.1920  0.1901  0.3341
  514TIP3    H1 1506   0.699   5.304   5.616  0.2655  2.0586  0.9918
  514TIP3    H2 1507   0.589   5.397   5.572 -1.2165 -0.6203 -1.3229
  515TIP3   OH2 1508   4.137   2.269   3.133  0.4963  1.0725  0.7272
  515TIP3    H1 1509   4.203   2.233   3.193  0.6243  0.6932  0.3571
  515TIP3    H2 1510   4.135   2.208   3.060  0.3931  1.5782  0.3057
  516TIP3   OH2 1511   6.178   4.415   4.216  0.0243  0.0642  0.6408
  516TIP3    H1 1512   6.115   4.409   4.287 -0.7858 -2.6265 -0.1713
  516TIP3    H2 1513   6.263   4.397   4.257 -0.3187 -0.5471  1.1002
  517TIP3   OH2 1514   6.456   6.079   2.200 -0.1663 -0.3804 -0.1222
  517TIP3    H1 1515   6.444   6.134   2.123 -0.5417 -0.5912 -0.2171
  517TIP3    H2 1516   6.368   6.050   2.224 -0.0115 -0.6587  0.1312
  518TIP3   OH2 1517   2.101   4.628   2.706  0.2597 -0.5007  0.1934
  518TIP3    H1 1518   2.168   4.691   2.732  0.0700 -0.6130  0.9797
  518TIP3    H2 1519   2.081   4.650   2.615  0.5585  0.2477  0.3061
  519TIP3   OH2 1520   5.163   2.574   3.232 -0.3502 -0.1156 -0.2148
  519TIP3    H1 1521   5.181   2.656   3.277 -0.3702 -1.1092  1.7188
  519TIP3    H2 1522   5.068   2.571   3.224 -0.6576 -1.2551  2.5426
  520TIP3   OH2 1523   6.218   4.627   4.471 -0.3463  0.2091 -0.4808
  520TIP3    H1 1524   6.305   4.594   4.497  0.0175  0.6588 -1.1010
  520TIP3    H2 1525   6.184   4.670   4.550  1.1225  2.3468 -0.9153
  521TIP3   OH2 1526   6.849   5.557   5.430 -0.2635 -0.0288  0.9711
  521TIP3    H1 1527   6.869   5.500   5.356 -2.1057 -0.0014  0.3928
  521TIP3    H2 1528   6.907   5.527   5.500  2.3223  0.6445 -0.7332
  522TIP3   OH2 1529   2.837   5.188   1.472  0.2446  0.6105  0.2139
  522TIP3    H1 1530   2.752   5.146   1.473 -0.0297  1.1563  0.1542
  522TIP3    H2 1531   2.895   5.126   1.516 -0.2857  0.4541  0.6978
  523TIP3   OH2 1532   5.983   1.167   2.713  0.0094  0.6000  0.0938
  523TIP3    H1 1533   5.974   1.093   2.773 -1.6138  0.1127 -0.6923
  523TIP3    H2 1534   6.074   1.195   2.723  0.8475 -1.8562  0.0059
  524TIP3   OH2 1535   6.823   0.444   2.211  0.1016 -0.1806 -1.1101
  524TIP3    H1 1536   6.801   0.464   2.302  2.6713  0.6730 -0.6229
  524TIP3    H2 1537   6.741   0.461   2.163 -0.5319  2.2034  0.6234
  525TIP3   OH2 1538   1.555   3.348   2.522  0.1254 -0.8910  0.7146
  525TIP3    H1 1539   1.555   3.350   2.617 -0.2599 -0.6262  0.7147
  525TIP3    H2 1540   1.565   3.256   2.499  0.9932 -0.8768  0.9990
  526TIP3   OH2 1541   6.746   1.182   3.753 -0.0765 -0.5477  0.2891
  526TIP3    H1 1542   6.742   1.117   3.683  0.9716  0.1460 -0.4418
  526TIP3    H2 1543   6.772   1.263   3.709 -1.2131  0.3501  1.2052
  527TIP3   OH2 1544   2.402   1.146   3.900  0.1929  0.6417  0.1160
  527TIP3    H1 1545   2.460   1.084   3.857  1.2216 -0.4573  2.8715
  527TIP3    H2 1546   2.317   1.134   3.857  0.8092 -1.3994 -0.6042
  528TIP3   OH2 1547   4.732   5.981   1.677  0.1609  0.0733  0.2985
  528TIP3    H1 1548   4.823   6.004   1.695 -0.1935  2.4042 -0.5792
  528TIP3    H2 1549   4.688   5.989   1.762  0.6172 -0.3286  0.5797
  529TIP3   OH2 1550   3.334   5.069   4.082  0.0102 -0.0743  0.3927
  529TIP3    H1 1551   3.292   5.003   4.027 -0.1524  0.5429 -0.2336
  529TIP3    H2 1552   3.262   5.119   4.119  0.1731  0.8828 -0.5522
  530TIP3   OH2 1553   3.291   3.121   2.686  0.0617 -0.1639  0.3089
  530TIP3    H1 1554   3.376   3.084   2.661 -0.3705 -1.5378  0.8032
  530TIP3    H2 1555   3.263   3.068   2.761 -2.6144 -1.7826 -1.6664
  531TIP3   OH2 1556   5.541   1.716   2.682 -0.2354 -0.3465  0.4708
  531TIP3    H1 1557   5.461   1.765   2.704  1.1362  1.5719  1.4331
  531TIP3    H2 1558   5.524   1.628   2.717 -2.8765 -0.7785 -1.5549
  532TIP3   OH2 1559   6.072   3.046   0.473 -0.3820  0.1251 -0.1139
  532TIP3    H1 1560   6.139   3.027   0.407 -0.0916 -0.1738  0.2614
  532TIP3    H2 1561   6.092   2.986   0.545 -2.0074 -1.1121 -0.6325
  533TIP3   OH2 1562   0.737   6.516   4.804  0.4074  0.6282 -0.4080
  533TIP3    H1 1563   0.799   6.517   4.731  0.4157 -1.8084 -0.5045
  533TIP3    H2 1564   0.653   6.539   4.765  0.4146 -0.6338 -1.2387
  534TIP3   OH2 1565   6.936   1.129   0.482 -0.1936 -0.0064  0.6075
  534TIP3    H1 1566   7.006   1.186   0.514  1.0757 -2.4279  2.4752
  534TIP3    H2 1567   6.959   1.112   0.390  0.8097  0.4455  0.7649
  535TIP3   OH2 1568   7.071   6.466   0.992  0.2716 -0.2632 -0.0090
  535TIP3    H1 1569   6.993   6.436   0.946 -0.5406 -0.2928  1.3667
  535TIP3    H2 1570   7.045   6.546   1.036  0.8058 -0.6512  1.0501
  536TIP3   OH2 1571   0.523   6.598   4.682 -0.0701  0.1838 -0.1650
  536TIP3    H1 1572   0.472   6.517   4.688  2.2314 -1.7969 -3.5275
  536TIP3    H2 1573   0.471   6.655   4.626 -0.7469  0.2227  0.4848
  537TIP3   OH2 1574   3.359   4.312   0.880  0.3073 -0.0355  0.3081
  537TIP3    H1 1575   3.288   4.274   0.829  0.2222 -0.7879  0.9730
  537TIP3    H2 1576   3.409   4.363   0.816 -1.3008  1.2271 -0.0109
  538TIP3   OH2 1577   5.887   3.304   5.711  0.7340 -0.1732  0.3104
  538TIP3    H1 1578   5.832   3.237   5.670  0.0469  0.1191  0.7462
  538TIP3    H2 1579   5.896   3.372   5.644 -0.3823  0.2996  0.6230
  539TIP3   OH2 1580   2.407   5.614   0.921 -0.3651  0.1895  0.0721
  539TIP3    H1 1581   2.412   5.704   0.889 -2.4167  0.5059  0.5020
  539TIP3    H2 1582   2.467   5.612   0.996 -0.3754  1.2332  0.1207
  540TIP3   OH2 1583   4.430   4.213   1.970  0.3475  0.5175 -0.4024
  540TIP3    H1 1584   4.427   4.220   2.065  0.8253 -0.3877 -0.3086
  540TIP3    H2 1585   4.468   4.296   1.940  1.1455  0.3952  0.2629
  541TIP3   OH2 1586   0.262   1.892   3.754  0.6228 -0.1290  0.2834
  541TIP3    H1 1587   0.174   1.863   3.780 -0.1063 -1.0587 -2.7843
  541TIP3    H2 1588   0.292   1.946   3.827 -1.4305 -1.8342  2.5545
  542TIP3   OH2 1589   5.320   2.318   5.422  0.2600  0.0877  0.2558
  542TIP3    H1 1590   5.376   2.240   5.423  0.8141  0.4836  0.2341
  542TIP3    H2 1591   5.376   2.388   5.390  0.6722  1.1854  3.1107
  543TIP3   OH2 1592   6.706   6.399   1.829 -0.0056 -0.1015  0.4901
  543TIP3    H1 1593   6.716   6.400   1.734  0.4136 -0.2855  0.5304
  543TIP3    H2 1594   6.676   6.311   1.850  0.5598 -0.2749  0.5893
  544TIP3   OH2 1595   5.329   3.770   3.948  0.0445 -0.3066  0.0731
  544TIP3    H1 1596   5.278   3.843   3.914 -0.7459 -0.2720  1.2292
  544TIP3    H2 1597   5.266   3.697   3.950 -0.2944 -0.0299  2.3864
  545TIP3   OH2 1598   4.520   0.314   4.423  0.3267 -0.3112 -0.4312
  545TIP3    H1 1599   4.551   0.382   4.363  2.7530 -0.2630  0.7871
  545TIP3    H2 1600   4.447   0.356   4.469 -1.7512 -0.4016 -3.3044
  546TIP3   OH2 1601   3.195   2.879   4.021  0.5688  0.0025 -0.0307
  546TIP3    H1 1602   3.200   2.811   4.088 -1.5634 -0.3277 -0.1586
  546TIP3    H2 1603   3.254   2.947   4.053 -0.1763 -0.2608  2.0711
  547TIP3   OH2 1604   4.359   2.396   5.601  0.7582  0.1281  0.5330
  547TIP3    H1 1605   4.344   2.346   5.521  0.0271  0.0665  0.7015
  547TIP3    H2 1606   4.449   2.428   5.593  0.9825 -0.6004  0.0883
  548TIP3   OH2 1607   5.111   2.019   5.533  0.1265  0.2175 -0.1329
  548TIP3    H1 1608   5.062   1.986   5.458  0.6811 -1.0194  0.0301
  548TIP3    H2 1609   5.184   1.959   5.543  0.6877  1.0108  0.7205
  549TIP3   OH2 1610   2.392   5.914   4.077 -0.3216 -0.0401  0.0060
  549TIP3    H1 1611   2.368   5.839   4.133 -0.2938  0.1633  0.2938
  549TIP3    H2 1612   2.309   5.959   4.061 -0.1650  0.5860  0.8885
  550TIP3   OH2 1613   4.810   2.152   2.153  0.1386  0.3147  0.1263
  550TIP3    H1 1614   4.846   2.133   2.240 -0.4871  0.1779  0.3628
  550TIP3    H2 1615   4.715   2.157   2.167 -0.1838 -1.8215 -0.8988
  551TIP3   OH2 1616   2.601   3.358   4.942  0.3924 -0.1590 -0.6023
  551TIP3    H1 1617   2.600   3.347   4.847  1.2942  1.3427 -0.8152
  551TIP3    H2 1618   2.685   3.320   4.969 -1.0140 -3.1434  0.0131
  552TIP3   OH2 1619   0.142   1.587   3.506 -0.0035 -0.2390  0.1690
  552TIP3    H1 1620   0.197   1.665   3.519 -0.9426  0.3269  0.8791
  552TIP3    H2 1621   0.203   1.514   3.509  0.7613  0.3987  0.5870
  553TIP3   OH2 1622   4.344   2.571   0.488 -0.4567  0.3230 -0.3036
  553TIP3    H1 1623   4.294   2.513   0.544 -0.8101  0.6085 -0.3246
  553TIP3    H2 1624   4.289   2.585   0.412  0.1452 -0.3063 -0.8749
  554TIP3   OH2 1625   1.393   3.374   4.188 -0.3134 -0.6527  0.0556
  554TIP3    H1 1626   1.426   3.307   4.249  1.5218 -0.2081 -0.3914
  554TIP3    H2 1627   1.449   3.450   4.204 -1.7582  0.4884 -0.1109
  555TIP3   OH2 1628   5.790   0.773   2.420  0.0769  0.2843 -0.3119
  555TIP3    H1 1629   5.765   0.802   2.508 -1.7508  0.2977 -0.7821
  555TIP3    H2 1630   5.710   0.732   2.386  0.9439 -0.2529 -1.7415
  556TIP3   OH2 1631   3.183   6.619   0.466  0.2799 -0.0095  0.1330
  556TIP3    H1 1632   3.123   6.549   0.440  0.6254  0.1354 -1.1344
  556TIP3    H2 1633   3.183   6.617   0.561  0.3230 -1.7739  0.1322
  557TIP3   OH2 1634   5.100   6.036   0.785 -0.1910  0.3625 -0.1943
  557TIP3    H1 1635   5.113   6.056   0.878 -3.1250  1.5422  0.0892
  557TIP3    H2 1636   5.107   6.121   0.742  0.6113 -0.1009 -1.0004
  558TIP3   OH2 1637   3.971   0.149   3.298 -1.3356 -0.2380  0.2741
  558TIP3    H1 1638   3.944   0.194   3.218 -0.2727  0.0640  0.0709
  558TIP3    H2 1639   3.975   0.057   3.273  0.2714 -0.0167 -0.4235
  559TIP3   OH2 1640   4.384   5.814   5.477 -0.3853 -0.2778  0.0962
  559TIP3    H1 1641   4.377   5.799   5.571 -1.0363  0.6332  0.2144
  559TIP3    H2 1642   4.385   5.910   5.469 -0.7613 -0.3458 -0.8501
  560TIP3   OH2 1643   0.502   0.456   1.099 -0.3655 -0.2623 -0.2426
  560TIP3    H1 1644   0.595   0.443   1.118 -0.4071 -2.3861 -1.3052
  560TIP3    H2 1645   0.501   0.521   1.028  0.2935 -0.0584 -0.0679
  561TIP3   OH2 1646   5.534   1.333   4.130 -0.0407  0.0500 -0.0907
  561TIP3    H1 1647   5.491   1.259   4.173 -0.1321 -0.1036 -0.4423
  561TIP3    H2 1648   5.626   1.306   4.122 -0.1157 -0.1140 -0.4081
  562TIP3   OH2 1649   3.380   1.242   4.382 -0.1232 -0.0994  0.2187
  562TIP3    H1 1650   3.418   1.167   4.336 -0.1589 -0.0173  0.0557
  562TIP3    H2 1651   3.383   1.313   4.318  0.1362  0.1033  0.4563
  563TIP3   OH2 1652   1.120   3.949   0.840  0.3706  0.0197  0.0342
  563TIP3    H1 1653   1.207   3.935   0.802 -0.4259 -0.0914 -1.8164
  563TIP3    H2 1654   1.064   3.972   0.766 -0.6767  2.6267  1.4674
  564TIP3   OH2 1655   2.533   2.168   1.253  0.0300 -0.3959  0.3921
  564TIP3    H1 1656   2.626   2.166   1.275 -0.4743 -0.4954  2.7725
  564TIP3    H2 1657   2.531   2.188   1.160  2.3957  1.3856  0.6225
  565TIP3   OH2 1658   0.953   1.793   1.653  0.4877  0.3171 -0.1182
  565TIP3    H1 1659   0.940   1.772   1.560 -0.0850 -0.6866  0.1718
  565TIP3    H2 1660   0.932   1.712   1.699  0.1171  0.9966  0.9451
  566TIP3   OH2 1661   5.873   3.198   1.314  0.5962 -0.6647 -0.3749
  566TIP3    H1 1662   5.841   3.276   1.359 -1.0218 -1.9967  0.8966
  566TIP3    H2 1663   5.826   3.198   1.231  0.4235 -0.4176 -0.2798
  567TIP3   OH2 1664   0.288   4.572   4.350 -0.6737 -0.2917 -0.7027
  567TIP3    H1 1665   0.346   4.515   4.401 -1.3086 -1.7483 -1.5154
  567TIP3    H2 1666   0.338   4.593   4.271 -0.5427  0.0464 -0.5300
  568TIP3   OH2 1667   6.009   3.211   4.083 -0.7429 -0.1649  0.6545
  568TIP3    H1 1668   5.951   3.199   4.158  0.6835 -1.9185  1.5559
  568TIP3    H2 1669   5.953   3.200   4.007 -2.4301  2.5484  1.3349
  569TIP3   OH2 1670   0.682   6.291   1.848  0.1148  0.1836  0.5923
  569TIP3    H1 1671   0.648   6.239   1.921  0.3099  0.0488  0.5871
  569TIP3    H2 1672   0.652   6.244   1.770  0.7298 -0.2130  0.5864
  570TIP3   OH2 1673   5.161   3.654   1.776 -0.0875 -0.1303 -0.6154
  570TIP3    H1 1674   5.188   3.651   1.684  1.5987  0.5408 -0.1899
  570TIP3    H2 1675   5.153   3.562   1.802  0.3100 -0.3321 -1.1875
  571TIP3   OH2 1676   2.591   0.202   0.207  0.0334  0.2431 -0.0134
  571TIP3    H1 1677   2.623   0.252   0.132  1.5819 -2.5159 -1.3676
  571TIP3    H2 1678   2.633   0.243   0.283  1.1505  1.0295 -1.0204
  572TIP3   OH2 1679   2.662   3.236   4.688 -0.1146 -0.3268 -0.0181
  572TIP3    H1 1680   2.693   3.194   4.608 -0.7908  0.5449 -0.7534
  572TIP3    H2 1681   2.681   3.173   4.757  0.4892 -1.0865 -0.8580
  573TIP3   OH2 1682   0.911   2.018   0.850  0.0370  0.2549 -0.0592
  573TIP3    H1 1683   0.892   2.100   0.897 -0.8879 -0.0075  0.0436
  573TIP3    H2 1684   0.881   1.949   0.910 -0.5657 -0.1023 -0.7606
  574TIP3   OH2 1685   1.359   5.795   4.132  0.2653 -0.4602  0.0498
  574TIP3    H1 1686   1.354   5.753   4.218 -1.1415  1.5410  1.0093
  574TIP3    H2 1687   1.399   5.728   4.076  0.1156 -2.2663  1.9544
  575TIP3   OH2 1688  -0.031   1.569   2.806 -0.2599  0.1702  0.4984
  575TIP3    H1 1689  -0.011   1.509   2.734 -1.1381  0.7672 -0.2568
  575TIP3    H2 1690   0.051   1.574   2.856  0.3851 -0.2007 -0.4925
  576TIP3   OH2 1691   2.184   1.146   5.403 -0.0886  0.2944  0.0576
  576TIP3    H1 1692   2.128   1.207   5.354  0.6213 -0.6308 -1.9857
  576TIP3    H2 1693   2.178   1.064   5.355  2.2803 -0.0912  0.3069
  577TIP3   OH2 1694   1.435   2.244   4.537  0.3025 -0.2402 -0.5834
  577TIP3    H1 1695   1.517   2.292   4.519  1.1000 -0.7390  1.4861
  577TIP3    H2 1696   1.449   2.158   4.497  0.0153  0.2773 -1.8405
  578TIP3   OH2 1697   4.348   4.694   3.344  0.3837  0.1688  0.3064
  578TIP3    H1 1698   4.380   4.777   3.310 -3.0249  2.2198  1.5600
  578TIP3    H2 1699   4.359   4.632   3.272  2.3909  1.8270 -0.9067
  579TIP3   OH2 1700   4.077   5.492   0.368 -0.6055 -0.1334  0.4330
  579TIP3    H1 1701   4.021   5.437   0.422  0.7352 -1.2704  0.7406
  579TIP3    H2 1702   4.141   5.529   0.429  0.0638 -0.2924 -0.1629
  580TIP3   OH2 1703   1.929   5.528   2.837  0.1646  0.3657 -0.6971
  580TIP3    H1 1704   1.977   5.597   2.791 -0.9895  1.1364 -0.7851
  580TIP3    H2 1705   1.868   5.575   2.893 -1.4894 -0.5499 -1.6612
  581TIP3   OH2 1706   0.988   3.004   0.344  0.4380 -0.6855  0.2294
  581TIP3    H1 1707   0.971   3.095   0.320 -1.3654 -1.0824 -0.1317
  581TIP3    H2 1708   1.052   3.010   0.415  2.7885  0.7020 -1.8152
  582TIP3   OH2 1709   1.863   4.447   1.624 -0.0793 -0.4451  0.4505
  582TIP3    H1 1710   1.915   4.368   1.612  0.8189 -0.1052  1.8127
  582TIP3    H2 1711   1.920   4.518   1.593 -0.6897 -0.2699 -0.3077
  583TIP3   OH2 1712   4.792   4.760   2.567 -0.3024  0.6455 -0.5729
  583TIP3    H1 1713   4.812   4.805   2.650 -2.8991  1.4885 -0.3228
  583TIP3    H2 1714   4.791   4.667   2.590  2.2163  0.5528 -0.4608
  584TIP3   OH2 1715   2.694   1.021   1.439  0.2874  0.2376 -0.5975
  584TIP3    H1 1716   2.726   1.048   1.525  0.2202 -2.1005  0.2242
  584TIP3    H2 1717   2.637   0.946   1.457  0.1939 -0.2451 -2.6879
  585TIP3   OH2 1718   4.618   2.887   0.058 -0.3042  0.0826 -0.9376
  585TIP3    H1 1719   4.711   2.886   0.082 -0.6940  0.0936  0.6797
  585TIP3    H2 1720   4.596   2.795   0.045 -0.6215 -0.1635  1.0794
  586TIP3   OH2 1721   4.854   0.565   0.338  0.5424 -0.4106 -0.3574
  586TIP3    H1 1722   4.889   0.654   0.343 -0.6469  0.2485 -2.4629
  586TIP3    H2 1723   4.784   0.564   0.404  1.0436 -0.0416  0.1924
  587TIP3   OH2 1724   0.287   0.930   4.988  0.1072  0.4698 -1.1550
  587TIP3    H1 1725   0.286   0.836   4.970 -1.4762  0.2034  0.0568
  587TIP3    H2 1726   0.371   0.947   5.030  0.4709 -0.3814 -1.5414
  588TIP3   OH2 1727   1.299   5.653   1.078 -0.0152  0.5388 -0.0926
  588TIP3    H1 1728   1.312   5.615   0.991 -2.0281 -1.2879  0.3149
  588TIP3    H2 1729   1.253   5.735   1.062 -0.6781  0.0465 -0.7334
  589TIP3   OH2 1730   3.272   3.639   4.861  0.2015 -0.0124  0.3518
  589TIP3    H1 1731   3.204   3.631   4.793  1.7174  0.9032 -1.3601
  589TIP3    H2 1732   3.246   3.715   4.912  0.0076  0.4260 -0.3894
  590TIP3   OH2 1733   5.193   2.156   3.841 -0.3733  0.3187 -0.0311
  590TIP3    H1 1734   5.201   2.242   3.882 -1.0671  0.1410  0.4824
  590TIP3    H2 1735   5.135   2.171   3.766  2.0040  0.9487 -1.8884
  591TIP3   OH2 1736   4.850   4.545   4.706 -0.3453  0.4835  0.4270
  591TIP3    H1 1737   4.805   4.598   4.772  0.0153  1.1078  0.1826
  591TIP3    H2 1738   4.809   4.570   4.623  1.9074  2.7774 -0.1183
  592TIP3   OH2 1739   3.166   1.279   5.733 -0.2541  0.2279  0.2902
  592TIP3    H1 1740   3.169   1.354   5.674  0.8015  0.1332  0.2088
  592TIP3    H2 1741   3.221   1.213   5.690  0.4162  0.1082  1.3138
  593TIP3   OH2 1742   2.459   3.787   5.439  0.0581 -0.2252  0.1703
  593TIP3    H1 1743   2.441   3.707   5.390  2.3852  0.3581 -1.8413
  593TIP3    H2 1744   2.374   3.817   5.469 -1.5613 -0.7182 -3.4778
  594TIP3   OH2 1745   7.082   3.347   3.454  0.3524 -0.2308 -0.0197
  594TIP3    H1 1746   7.170   3.381   3.437  1.6982 -3.3035  0.1987
  594TIP3    H2 1747   7.035   3.360   3.371  0.9112  1.5940 -0.0870
  595TIP3   OH2 1748   3.798   1.631   4.294  0.0046 -0.9878  0.7451
  595TIP3    H1 1749   3.742   1.668   4.363 -0.5112 -1.3821  0.5372
  595TIP3    H2 1750   3.811   1.703   4.233 -2.2000 -1.5074 -0.4254
  596TIP3   OH2 1751   1.281   2.644   0.844  0.0310  0.5848 -0.7074
  596TIP3    H1 1752   1.356   2.594   0.812 -0.7287 -0.3224 -1.0971
  596TIP3    H2 1753   1.209   2.581   0.847 -0.1639  0.7963  1.9884
  597TIP3   OH2 1754   3.575   3.201   3.902  0.6328  0.6179  0.2208
  597TIP3    H1 1755   3.555   3.289   3.870  2.1129  2.3506  3.5739
  597TIP3    H2 1756   3.669   3.191   3.889  0.7599  0.2417  1.2873
  598TIP3   OH2 1757   2.734   5.869   5.191  0.2760 -0.5748 -0.0450
  598TIP3    H1 1758   2.682   5.825   5.124  0.6712 -2.1306  0.6457
  598TIP3    H2 1759   2.721   5.818   5.270 -2.2928  2.6534  1.8797
  599TIP3   OH2 1760   2.028   5.559   3.868 -0.4535 -0.5685  0.2001
  599TIP3    H1 1761   2.113   5.590   3.898 -0.9048 -0.2844  1.2361
  599TIP3    H2 1762   2.045   5.471   3.834  0.2936 -0.4164  0.1596
  600TIP3   OH2 1763   1.395   6.498   1.372 -0.3321  0.0272  0.4616
  600TIP3    H1 1764   1.457   6.428   1.349  0.3190  0.3124  1.3227
  600TIP3    H2 1765   1.325   6.453   1.420  0.4377  0.0485  1.6394
  601TIP3   OH2 1766   5.806   3.843   5.602  0.1002  0.5268  0.4244
  601TIP3    H1 1767   5.759   3.924   5.622  0.9220  1.1160  0.0307
  601TIP3    H2 1768   5.741   3.787   5.560 -0.2382  1.3593 -0.1835
  602TIP3   OH2 1769   4.747   5.020   0.653 -0.3411 -0.0678 -0.2016
  602TIP3    H1 1770   4.810   4.975   0.709 -0.6960  1.5178  1.5910
  602TIP3    H2 1771   4.792   5.031   0.569  1.3606  0.1033  0.6979
  603TIP3   OH2 1772   7.016   5.275   3.888 -0.5334 -0.1263 -0.0625
  603TIP3    H1 1773   7.098   5.257   3.933 -0.5681  0.5782  0.2944
  603TIP3    H2 1774   7.002   5.198   3.832  0.1991 -0.3963  0.1120
  604TIP3   OH2 1775   3.102   4.928   1.035  0.7994 -0.0890  0.4060
  604TIP3    H1 1776   3.159   4.908   1.109  0.3309 -1.4548  0.4299
  604TIP3    H2 1777   3.117   4.856   0.974  0.5104  0.5520 -0.4426
  605TIP3   OH2 1778   4.235   2.827   1.108 -0.6043 -0.3373  0.6687
  605TIP3    H1 1779   4.168   2.895   1.107  0.7136  1.0250 -0.4256
  605TIP3    H2 1780   4.212   2.771   1.182 -1.0888  1.9958  2.3834
  606TIP3   OH2 1781   7.032   6.482   3.866  0.2874  0.0753 -0.5511
  606TIP3    H1 1782   7.050   6.474   3.772 -1.3758  0.5366 -0.9507
  606TIP3    H2 1783   7.118   6.481   3.908  0.9904 -2.0261 -1.9209
  607TIP3   OH2 1784   4.846   0.593   1.715 -0.3105  0.1321  0.1541
  607TIP3    H1 1785   4.812   0.595   1.625 -1.5026 -1.2400  0.5316
  607TIP3    H2 1786   4.800   0.520   1.756  2.5356 -1.3451  0.9577
  608TIP3   OH2 1787   6.917   0.666   5.404 -0.3345  0.5331  0.5896
  608TIP3    H1 1788   6.829   0.640   5.380 -0.8669  0.9161  1.9832
  608TIP3    H2 1789   6.922   0.759   5.379 -0.1952  0.4173  0.1823
  609TIP3   OH2 1790   0.658   3.549   5.575 -0.5301  0.2323 -0.0628
  609TIP3    H1 1791   0.721   3.477   5.567 -0.3396  0.1153  1.8983
  609TIP3    H2 1792   0.612   3.530   5.657 -1.5910  1.5006 -0.3433
  610TIP3   OH2 1793   5.197   0.223   1.819  0.3768 -0.3105  0.0069
  610TIP3    H1 1794   5.138   0.284   1.775 -0.2011 -0.7194  0.2030
  610TIP3    H2 1795   5.228   0.271   1.896 -0.5185 -0.4566  0.4713
  611TIP3   OH2 1796   1.431   6.413   2.568 -0.7292  0.9553 -0.2422
  611TIP3    H1 1797   1.464   6.436   2.481 -0.4098 -0.9234 -0.6580
  611TIP3    H2 1798   1.402   6.322   2.560 -1.6856  1.0706  1.3558
  612TIP3   OH2 1799   5.494   2.483   1.668  0.0708  0.0262  0.8048
  612TIP3    H1 1800   5.493   2.563   1.614  0.4231  0.1993  1.0488
  612TIP3    H2 1801   5.563   2.499   1.732  1.6967 -1.3346 -0.4889
  613TIP3   OH2 1802   0.608   6.705   1.123  0.4566 -0.4171  0.5016
  613TIP3    H1 1803   0.543   6.709   1.193  1.0438  2.9497  1.0505
  613TIP3    H2 1804   0.578   6.770   1.059  2.7643  0.6021  0.3699
  614TIP3   OH2 1805   4.845   1.862   0.784  0.5259  0.2682 -0.0211
  614TIP3    H1 1806   4.885   1.896   0.864  0.8693  1.0423 -0.5115
  614TIP3    H2 1807   4.835   1.768   0.801  0.7140  0.3944  0.8726
  615TIP3   OH2 1808   3.270   4.090   2.932 -0.1210  0.0701 -0.0502
  615TIP3    H1 1809   3.354   4.045   2.942  1.4581  2.4107 -1.7322
  615TIP3    H2 1810   3.224   4.041   2.864  0.2103 -0.7411  0.2930
  616TIP3   OH2 1811   5.041   2.055   0.396  0.0143 -0.4619  0.1616
  616TIP3    H1 1812   5.103   1.982   0.395  0.7622  0.1568 -0.2937
  616TIP3    H2 1813   5.077   2.115   0.461 -1.2788 -1.0393  1.4627
  617TIP3   OH2 1814   1.824   3.233   3.805 -0.5956 -1.1997  0.0297
  617TIP3    H1 1815   1.853   3.206   3.893 -2.3498  0.1033  1.0786
  617TIP3    H2 1816   1.768   3.308   3.821 -1.2772 -1.1719 -2.2130
  618TIP3   OH2 1817   0.563   4.530   4.412 -0.4006 -0.4830  0.4256
  618TIP3    H1 1818   0.604   4.599   4.465  0.7514  0.2054 -1.2542
  618TIP3    H2 1819   0.592   4.448   4.452 -0.5321 -0.0154  1.5370
  619TIP3   OH2 1820   5.025   1.739   5.833  0.1096 -0.1933 -0.1663
  619TIP3    H1 1821   4.931   1.725   5.839 -0.2810  2.0105 -0.5474
  619TIP3    H2 1822   5.038   1.831   5.856  2.1176 -0.3082 -0.6329
  620TIP3   OH2 1823   7.155   5.540   5.079 -1.1130  0.4431 -0.1452
  620TIP3    H1 1824   7.140   5.622   5.127 -2.5477  0.1589 -0.0563
  620TIP3    H2 1825   7.205   5.567   5.002 -1.2273  1.3531  0.0820
  621TIP3   OH2 1826   1.800   4.829   1.333 -0.1550  0.0541 -0.0281
  621TIP3    H1 1827   1.818   4.814   1.426 -1.4756 -0.9236  0.0900
  621TIP3    H2 1828   1.866   4.894   1.306 -0.3202  1.0521  1.8116
  622TIP3   OH2 1829   4.035   2.969   0.538  0.0990  0.5343 -0.4505
  622TIP3    H1 1830   4.105   2.906   0.553 -0.5387 -0.0922 -0.0005
  622TIP3    H2 1831   3.999   2.945   0.453  1.0145  1.4445 -1.1159
  623TIP3   OH2 1832   4.873   4.990   1.687 -0.0840  0.0855  0.0763
  623TIP3    H1 1833   4.859   4.950   1.772 -1.4037  1.8962  0.7848
  623TIP3    H2 1834   4.822   5.072   1.690  1.1186  0.9874 -1.8598
  624TIP3   OH2 1835   1.573   0.664   1.128 -0.1713  0.1666  0.0373
  624TIP3    H1 1836   1.662   0.692   1.148  0.4781 -0.3872 -1.8990
  624TIP3    H2 1837   1.519   0.742   1.143  1.0472  1.3616 -1.4947
  625TIP3   OH2 1838   2.740   3.642   3.548 -0.3634 -0.3007 -0.3673
  625TIP3    H1 1839   2.682   3.636   3.624 -0.7818 -1.4700 -0.7501
  625TIP3    H2 1840   2.771   3.552   3.535  1.4669  0.2633 -0.2418
  626TIP3   OH2 1841   2.555   0.829   0.986  0.3072  0.3040  0.0904
  626TIP3    H1 1842   2.600   0.876   0.916 -1.4263 -0.1670 -1.4226
  626TIP3    H2 1843   2.512   0.897   1.037 -0.6352  0.5329 -0.9585
  627TIP3   OH2 1844   1.389   1.062   1.778  0.3776 -0.0759 -0.6644
  627TIP3    H1 1845   1.403   0.974   1.743 -0.1349 -0.1444 -0.7034
  627TIP3    H2 1846   1.318   1.098   1.726  1.3144  0.7889 -1.3804
  628TIP3   OH2 1847   1.321   2.288   5.790 -0.1640  0.1547  0.1169
  628TIP3    H1 1848   1.256   2.264   5.857  0.4010  0.4109  0.7702
  628TIP3    H2 1849   1.400   2.308   5.840  0.7794 -1.2779 -0.7296
  629TIP3   OH2 1850   4.683   3.845   0.120  0.3950 -0.2649 -0.0826
  629TIP3    H1 1851   4.755   3.800   0.077 -0.6012 -4.0792  1.7700
  629TIP3    H2 1852   4.699   3.833   0.214 -1.2233  1.3032  0.4575
  630TIP3   OH2 1853   3.901   3.648   1.372 -0.4302  0.3716 -0.1370
  630TIP3    H1 1854   3.889   3.733   1.414 -2.8685  0.1201 -0.2118
  630TIP3    H2 1855   3.971   3.663   1.308  0.7812  1.6898  1.3935
  631TIP3   OH2 1856   6.790   4.312   4.850  0.0098 -0.5812  0.2374
  631TIP3    H1 1857   6.860   4.350   4.796 -0.0246 -0.3039  0.3854
  631TIP3    H2 1858   6.715   4.371   4.837  0.0842 -0.3561  0.8007
  632TIP3   OH2 1859   0.592   3.258   4.804  0.5801 -0.2860  0.3054
  632TIP3    H1 1860   0.588   3.163   4.797 -0.0331 -0.2591  0.1777
  632TIP3    H2 1861   0.668   3.275   4.859 -0.0015 -0.9116  1.3518
  633TIP3   OH2 1862   1.915   5.532   3.547  0.7035  0.3477 -0.4621
  633TIP3    H1 1863   1.926   5.463   3.613  3.7534  0.5537 -0.5890
  633TIP3    H2 1864   1.950   5.494   3.467  0.4278  1.3259 -1.0582
  634TIP3   OH2 1865   5.079   5.317   5.512  0.4356 -0.7370 -0.3160
  634TIP3    H1 1866   5.159   5.344   5.466 -0.4370  1.6453 -0.5947
  634TIP3    H2 1867   5.032   5.263   5.449  0.7030 -0.0870 -1.0930
  635TIP3   OH2 1868   3.390   5.982   1.489  0.4018 -0.0269  0.2938
  635TIP3    H1 1869   3.301   5.967   1.520  1.0621  0.4213  2.5613
  635TIP3    H2 1870   3.424   5.895   1.470 -0.1652 -0.2807  0.4106
  636TIP3   OH2 1871   6.263   1.197   4.244  0.0148  0.1066  0.0418
  636TIP3    H1 1872   6.207   1.246   4.303 -1.5702  0.2170 -1.4793
  636TIP3    H2 1873   6.299   1.127   4.298 -0.1009  1.1369  1.4994
  637TIP3   OH2 1874   1.352   0.532   4.867  0.7951 -0.0622  0.5065
  637TIP3    H1 1875   1.353   0.547   4.773  0.1800  1.3048  0.6971
  637TIP3    H2 1876   1.443   0.547   4.894  0.8873 -0.0545  0.1957
  638TIP3   OH2 1877   0.933   6.263   3.237  0.0658  0.0527  0.4573
  638TIP3    H1 1878   1.001   6.259   3.169 -0.9442  2.4231 -0.8594
  638TIP3    H2 1879   0.857   6.220   3.198  0.1135 -0.5313  0.9936
  639TIP3   OH2 1880   5.343   5.983   3.135 -0.4049 -0.2564 -0.3739
  639TIP3    H1 1881   5.288   5.974   3.213  1.8005 -1.0118  1.1926
  639TIP3    H2 1882   5.290   5.947   3.064 -2.6604  0.8649  0.6274
  640TIP3   OH2 1883   4.751   4.032   3.498  0.2277  0.3690  0.2625
  640TIP3    H1 1884   4.777   4.094   3.430  0.8733  0.2557  0.3963
  640TIP3    H2 1885   4.783   4.071   3.580 -0.9951  0.7619  0.5768
  641TIP3   OH2 1886   4.861   4.868   4.898  0.5740  0.1240 -0.4105
  641TIP3    H1 1887   4.784   4.816   4.921  0.0475  0.8629 -0.4628
  641TIP3    H2 1888   4.852   4.948   4.949  2.3705 -0.6047  1.1362
  642TIP3   OH2 1889   4.198   1.582   0.427 -0.1797 -0.2962 -0.1440
  642TIP3    H1 1890   4.176   1.561   0.336 -1.5819 -1.8661  0.5003
  642TIP3    H2 1891   4.266   1.520   0.451 -1.1538 -1.2007  0.4065
  643TIP3   OH2 1892   1.629   0.810   4.795  0.4792 -0.2989  0.1620
  643TIP3    H1 1893   1.635   0.738   4.732  0.3638  0.6673 -0.9919
  643TIP3    H2 1894   1.720   0.838   4.808  0.3641  0.7425 -1.0917
  644TIP3   OH2 1895   5.542   6.324   3.228  0.5989  0.4320 -0.3136
  644TIP3    H1 1896   5.579   6.409   3.206 -0.9186  0.5986 -2.6872
  644TIP3    H2 1897   5.562   6.269   3.152  1.3799 -1.2926  1.0888
  645TIP3   OH2 1898   0.922   6.041   5.233  0.6240 -0.1141  0.2256
  645TIP3    H1 1899   1.008   6.029   5.193  0.6178 -0.0270  0.1868
  645TIP3    H2 1900   0.897   6.131   5.211  0.0079 -0.5124 -0.7899
  646TIP3   OH2 1901   5.786   1.319   2.126  0.1578 -0.5900  0.2116
  646TIP3    H1 1902   5.811   1.380   2.057  0.7556 -2.2433 -1.1115
  646TIP3    H2 1903   5.726   1.369   2.182  0.9322  1.3071 -0.5501
  647TIP3   OH2 1904   5.421   2.023   3.763 -0.1532 -0.1074 -0.3668
  647TIP3    H1 1905   5.357   2.078   3.807 -0.7595  0.0408 -1.3964
  647TIP3    H2 1906   5.371   1.949   3.729  0.4743 -0.7393  0.0578
  648TIP3   OH2 1907   1.923   1.265   1.498 -0.3931  0.1849 -0.0003
  648TIP3    H1 1908   1.961   1.327   1.436 -0.1011 -0.7405 -0.7924
  648TIP3    H2 1909   1.973   1.277   1.579  1.4839 -0.8328 -0.9385
  649TIP3   OH2 1910   3.199   3.955   2.661  0.2633  0.1174 -0.0271
  649TIP3    H1 1911   3.131   3.907   2.614  1.5996 -0.9536 -0.9560
  649TIP3    H2 1912   3.254   3.887   2.699 -0.6740  0.9299  3.0813
  650TIP3   OH2 1913   3.939   1.221   3.103  0.4224 -0.3046 -0.0475
  650TIP3    H1 1914   3.911   1.133   3.075 -4.8254  0.2590  2.2077
  650TIP3    H2 1915   3.902   1.280   3.037 -4.3777  0.4455  2.8031
  651TIP3   OH2 1916   2.046   4.652   3.620  0.2646 -0.0080 -0.1904
  651TIP3    H1 1917   2.130   4.608   3.636  0.8593  1.0546 -0.3297
  651TIP3    H2 1918   2.037   4.655   3.525  1.0107  1.5790 -0.2378
  652TIP3   OH2 1919   0.293   3.354   3.174 -0.8280 -0.3590 -0.1376
  652TIP3    H1 1920   0.346   3.394   3.244 -0.9469 -2.4225  1.2089
  652TIP3    H2 1921   0.356   3.337   3.104 -0.2007 -0.4932  0.4439
  653TIP3   OH2 1922   7.181   5.840   0.767  0.8124 -0.3101 -0.6221
  653TIP3    H1 1923   7.263   5.890   0.770  1.9194 -2.0082 -0.7054
  653TIP3    H2 1924   7.152   5.846   0.676  3.0589 -2.8949 -1.6695
  654TIP3   OH2 1925   0.858   5.020   4.767 -0.8480  0.2397  0.0727
  654TIP3    H1 1926   0.878   5.107   4.802 -0.6213  0.4948 -0.6567
  654TIP3    H2 1927   0.867   4.961   4.841 -0.5503  0.7819  0.4777
  655TIP3   OH2 1928   2.973   3.110   4.590  0.5784 -0.1127 -0.4625
  655TIP3    H1 1929   2.938   3.147   4.509 -1.0322 -0.2356  0.1482
  655TIP3    H2 1930   2.986   3.186   4.647  1.0840 -0.0971 -0.5909
  656TIP3   OH2 1931   4.769   5.550   3.499  0.0988 -0.1265 -0.0159
  656TIP3    H1 1932   4.684   5.576   3.535  0.2253  0.0739  0.1442
  656TIP3    H2 1933   4.754   5.541   3.405  0.0374  0.4889 -0.0707
  657TIP3   OH2 1934   6.942   1.097   1.237  0.2162 -0.2732  0.1076
  657TIP3    H1 1935   6.853   1.119   1.264  0.5778 -1.4798  2.5742
  657TIP3    H2 1936   6.992   1.097   1.319  2.3147 -0.4658 -1.1048
  658TIP3   OH2 1937   1.956   6.615   0.509 -0.3435 -0.3159  0.5544
  658TIP3    H1 1938   2.030   6.584   0.561 -0.2762 -0.8556  0.1514
  658TIP3    H2 1939   1.994   6.638   0.425 -0.5262  0.0962  0.5839
  659TIP3   OH2 1940   0.673   3.563   2.799  0.1500 -0.5316 -0.2465
  659TIP3    H1 1941   0.655   3.632   2.736  1.2110 -0.6624 -0.7233
  659TIP3    H2 1942   0.740   3.599   2.857 -0.8862 -0.3714  0.9136
  660TIP3   OH2 1943   6.953   0.208   1.997  0.0396  0.2792  0.3228
  660TIP3    H1 1944   6.935   0.187   2.088 -0.5056 -0.4797  0.0483
  660TIP3    H2 1945   7.020   0.277   2.001  0.4491 -0.1576  1.2792
  661TIP3   OH2 1946   4.576   6.721   2.314 -0.4957 -0.0709  0.2970
  661TIP3    H1 1947   4.595   6.650   2.375 -0.4388  1.7542  2.5302
  661TIP3    H2 1948   4.557   6.677   2.231 -0.6572 -2.6651  1.6179
  662TIP3   OH2 1949   4.775   1.242   0.473 -0.1293 -0.1775 -0.1153
  662TIP3    H1 1950   4.862   1.275   0.497 -1.4693  1.9381  2.4192
  662TIP3    H2 1951   4.767   1.158   0.520  0.7783 -0.7550 -0.9675
  663TIP3   OH2 1952   6.465   0.082   0.951  0.1668 -0.1587 -0.3400
  663TIP3    H1 1953   6.453  -0.012   0.941 -0.6111 -0.0854 -0.1179
  663TIP3    H2 1954   6.483   0.095   1.044  1.2254 -0.1768 -0.5245
  664TIP3   OH2 1955   7.032   1.545   2.199 -0.3591 -0.0412  0.1947
  664TIP3    H1 1956   7.100   1.484   2.229 -0.3131 -0.2697 -0.3758
  664TIP3    H2 1957   6.978   1.560   2.277 -1.2680 -1.9949  0.0149
  665TIP3   OH2 1958   3.645   5.263   3.582 -0.0637  0.0692 -0.0616
  665TIP3    H1 1959   3.564   5.304   3.552  0.1789  2.0848  1.8075
  665TIP3    H2 1960   3.711   5.332   3.574  1.4463 -1.4059 -1.1566
  666TIP3   OH2 1961   5.918   5.599   1.824 -0.8780  0.2633 -0.4243
  666TIP3    H1 1962   5.845   5.566   1.877  0.2880  2.5392  2.9084
  666TIP3    H2 1963   5.996   5.567   1.869  0.2204  0.6597 -1.9682
  667TIP3   OH2 1964   4.827   2.401   3.523  0.1702 -0.2014 -0.3122
  667TIP3    H1 1965   4.909   2.450   3.528 -0.3530  0.5783  1.4529
  667TIP3    H2 1966   4.773   2.437   3.593 -0.1614 -3.4234  1.2784
  668TIP3   OH2 1967   5.939   4.858   5.439  0.1639 -0.0002 -0.5066
  668TIP3    H1 1968   5.994   4.912   5.495  0.1990  0.3788 -0.9055
  668TIP3    H2 1969   5.895   4.798   5.499  2.6056 -1.7697 -0.3361
  669TIP3   OH2 1970   0.688   1.925   3.993 -0.3401 -1.0488 -0.5784
  669TIP3    H1 1971   0.687   1.960   4.082 -0.5687 -2.0594 -0.1729
  669TIP3    H2 1972   0.634   1.986   3.943  1.3104  0.5899 -0.4660
  670TIP3   OH2 1973   1.695   4.171   3.725 -0.1068  0.0556  0.0566
  670TIP3    H1 1974   1.610   4.187   3.684  0.6266 -0.4867 -1.8086
  670TIP3    H2 1975   1.757   4.168   3.652  1.5817  0.7357  1.3828
  671TIP3   OH2 1976   3.734   0.189   5.709 -0.3066 -0.3797 -0.5449
  671TIP3    H1 1977   3.706   0.250   5.777 -0.1569  2.5365 -2.8764
  671TIP3    H2 1978   3.654   0.173   5.658  0.0127 -0.7007 -0.9504
  672TIP3   OH2 1979   1.384   5.003   2.076 -0.3178  0.1079 -0.6421
  672TIP3    H1 1980   1.448   4.932   2.086 -0.8304 -0.1532  1.2293
  672TIP3    H2 1981   1.437   5.079   2.054  0.5978 -0.2502  0.2157
  673TIP3   OH2 1982   5.774   0.802   3.966 -0.6778  0.5070 -0.2796
  673TIP3    H1 1983   5.818   0.844   4.040 -0.4825 -1.6685  0.9155
  673TIP3    H2 1984   5.843   0.795   3.899  0.1174 -0.4925  0.6010
  674TIP3   OH2 1985   4.144   1.488   2.763 -0.4168 -0.3801 -0.6437
  674TIP3    H1 1986   4.051   1.502   2.749 -0.3423 -0.2467 -1.0084
  674TIP3    H2 1987   4.167   1.414   2.707 -0.6973 -1.6915  0.8796
  675TIP3   OH2 1988   5.365   1.517   1.459  0.3729 -0.6010  0.1747
  675TIP3    H1 1989   5.280   1.552   1.435  0.3239  0.0289  1.1971
  675TIP3    H2 1990   5.404   1.585   1.515  1.6168 -0.8008 -0.4002
  676TIP3   OH2 1991   2.776   1.606   3.008  0.0783  0.4273  0.1020
  676TIP3    H1 1992   2.782   1.614   3.103 -0.1436  0.5647  0.1030
  676TIP3    H2 1993   2.781   1.695   2.976 -0.4563  0.4253  0.0167
  677TIP3   OH2 1994   0.186   4.384   3.388 -0.5999 -0.4658  0.0264
  677TIP3    H1 1995   0.187   4.402   3.482 -2.7037 -0.0728  0.0170
  677TIP3    H2 1996   0.278   4.380   3.363  0.0093  1.6846  1.6713
  678TIP3   OH2 1997   0.497   0.026   0.188  0.4293  0.2227 -0.1706
  678TIP3    H1 1998   0.446   0.100   0.155  0.3374  0.2879  0.1186
  678TIP3    H2 1999   0.501   0.040   0.282 -1.5992 -1.3627  0.2372
  679TIP3   OH2 2000   6.628   3.786   3.007 -0.3242 -0.3570  0.0428
  679TIP3    H1 2001   6.555   3.736   3.043 -0.5836  0.0107  0.0306
  679TIP3    H2 2002   6.703   3.761   3.060 -1.0432  1.6041  2.0992
  680TIP3   OH2 2003   5.612   6.082   1.202  0.0048  0.6021 -0.3462
  680TIP3    H1 2004   5.657   6.163   1.178 -0.2156  0.3303 -1.7730
  680TIP3    H2 2005   5.538   6.077   1.142 -0.5298 -0.1857  0.3547
  681TIP3   OH2 2006   3.775   2.874   4.370 -0.2471  0.1317 -0.2635
  681TIP3    H1 2007   3.863   2.878   4.406  0.2015 -1.1547 -1.1304
  681TIP3    H2 2008   3.724   2.827   4.436  0.1982 -0.8436 -0.5954
  682TIP3   OH2 2009   6.681   5.855   4.485 -0.5079  0.0682  0.0712
  682TIP3    H1 2010   6.616   5.796   4.523 -0.2700  0.2278  0.7475
  682TIP3    H2 2011   6.733   5.799   4.428 -0.7683 -0.2184  0.1128
  683TIP3   OH2 2012   7.079   3.853   4.323 -0.4465 -0.2436  0.1718
  683TIP3    H1 2013   7.113   3.794   4.256 -0.7492  1.2233 -1.3231
  683TIP3    H2 2014   7.152   3.911   4.343 -1.1356  1.0625 -0.9320
  684TIP3   OH2 2015   2.574   0.663   4.424 -0.1276 -0.1260  0.1014
  684TIP3    H1 2016   2.631   0.727   4.382 -0.2410 -1.0070 -1.5108
  684TIP3    H2 2017   2.633   0.597   4.460 -0.0626  0.0417  0.3010
  685TIP3   OH2 2018   1.731   5.342   2.412 -0.1398 -0.4462  0.2085
  685TIP3    H1 2019   1.770   5.394   2.342 -0.7723  0.4649  0.5204
  685TIP3    H2 2020   1.801   5.282   2.439 -0.0126 -1.1306 -1.4836
  686TIP3   OH2 2021   6.151   3.703   2.039  0.1840  0.2655 -0.1893
  686TIP3    H1 2022   6.113   3.671   2.120 -3.0326 -0.5703 -1.8510
  686TIP3    H2 2023   6.128   3.637   1.973 -1.0626  2.8141 -2.5339
  687TIP3   OH2 2024   0.462   0.128   3.610 -0.6299 -0.2567 -0.0067
  687TIP3    H1 2025   0.508   0.111   3.528 -2.2510  1.0634 -1.2884
  687TIP3    H2 2026   0.517   0.191   3.656 -0.3466  0.0379 -0.7283
  688TIP3   OH2 2027   5.503   3.693   1.633 -0.7219 -0.1420 -0.1712
  688TIP3    H1 2028   5.512   3.598   1.637  0.3175 -0.1424 -1.4848
  688TIP3    H2 2029   5.541   3.724   1.716  1.0231 -0.8002 -0.6603
  689TIP3   OH2 2030   4.674   1.780   2.438 -0.0372  0.6157  0.0065
  689TIP3    H1 2031   4.579   1.777   2.436 -0.0878  1.6704  0.1073
  689TIP3    H2 2032   4.699   1.813   2.351  0.0810  2.8652  0.8346
  690TIP3   OH2 2033   4.131   4.116   4.029 -0.3242  0.6378 -0.7333
  690TIP3    H1 2034   4.226   4.103   4.035 -0.4293  0.1800  0.2496
  690TIP3    H2 2035   4.121   4.206   3.998  0.4402  0.9774 -0.0452
  691TIP3   OH2 2036   0.591   2.981   4.790 -0.1265 -0.2605  0.1992
  691TIP3    H1 2037   0.665   2.951   4.842 -0.4969 -1.0369  0.2835
  691TIP3    H2 2038   0.548   2.901   4.759  0.6176  0.1402 -2.1021
  692TIP3   OH2 2039   3.133   2.793   2.324  0.4460  0.4641  0.2278
  692TIP3    H1 2040   3.188   2.870   2.342  1.2269 -0.3599  1.5861
  692TIP3    H2 2041   3.092   2.773   2.408  0.3504 -0.6763 -0.0774
  693TIP3   OH2 2042   1.026   4.532   1.411  0.5151 -0.5109 -0.1273
  693TIP3    H1 2043   1.081   4.597   1.455  0.7089 -2.9234  3.6638
  693TIP3    H2 2044   0.965   4.502   1.478 -3.2698 -0.4620 -3.2099
  694TIP3   OH2 2045   2.584   4.280   3.299 -0.3612  0.4034  0.0541
  694TIP3    H1 2046   2.514   4.217   3.314  1.3976 -1.1934  2.3462
  694TIP3    H2 2047   2.559   4.356   3.352 -0.2850 -0.2747  1.1069
  695TIP3   OH2 2048   2.757   2.917   0.926 -0.1522 -0.3879 -0.2976
  695TIP3    H1 2049   2.664   2.925   0.950  0.1679  0.8481  0.5791
  695TIP3    H2 2050   2.785   2.836   0.969 -0.3753  0.1889  0.9893
  696TIP3   OH2 2051   4.855   6.445   0.693  0.2391 -0.2654  0.1773
  696TIP3    H1 2052   4.820   6.394   0.766  0.8649 -1.1561 -0.1277
  696TIP3    H2 2053   4.883   6.380   0.629  1.9490  0.4090  0.1762
  697TIP3   OH2 2054   1.196   4.193   2.780 -0.2099  0.8873  0.1883
  697TIP3    H1 2055   1.130   4.185   2.711  0.0414  2.2384 -0.2517
  697TIP3    H2 2056   1.156   4.152   2.856 -0.2425 -1.2045 -0.8934
  698TIP3   OH2 2057   4.039   4.073   0.805 -0.2030  0.2642  0.3934
  698TIP3    H1 2058   4.130   4.044   0.813 -0.5298 -1.3276 -1.0504
  698TIP3    H2 2059   4.003   4.066   0.893  0.8144 -0.0314  0.7971
  699TIP3   OH2 2060   0.294   5.728   2.742 -0.3377 -0.3698  0.0051
  699TIP3    H1 2061   0.329   5.640   2.733 -0.2218 -0.1282 -2.3324
  699TIP3    H2 2062   0.203   5.721   2.713 -0.5903  0.1195  0.6587
  700TIP3   OH2 2063   1.792   0.450   4.359 -0.3377  0.0380 -0.1767
  700TIP3    H1 2064   1.869   0.399   4.383 -1.3106 -1.2510  0.3005
  700TIP3    H2 2065   1.722   0.386   4.351 -1.4894  1.2401 -0.0881
  701TIP3   OH2 2066   0.589   1.909   2.926 -0.7828  0.3007 -0.3950
  701TIP3    H1 2067   0.546   1.993   2.939 -0.9497  0.1011  0.3789
  701TIP3    H2 2068   0.677   1.931   2.896 -0.5367  0.7708  0.6457
  702TIP3   OH2 2069   3.328   2.333   5.747  0.1843 -0.3488 -0.0477
  702TIP3    H1 2070   3.282   2.417   5.750 -3.0194 -1.8130 -1.8920
  702TIP3    H2 2071   3.420   2.356   5.736 -0.7160  2.9999 -2.2216
  703TIP3   OH2 2072   4.017   6.194   0.057 -0.4135 -0.4707 -0.4782
  703TIP3    H1 2073   4.038   6.168   0.146 -1.0794  1.4683  0.3161
  703TIP3    H2 2074   3.922   6.206   0.058 -0.3916 -0.1530 -1.3570
  704TIP3   OH2 2075   0.765   0.750   1.181 -0.3516 -0.3660  0.0387
  704TIP3    H1 2076   0.812   0.799   1.248 -0.4876 -1.0041  0.6043
  704TIP3    H2 2077   0.697   0.810   1.150 -0.5636 -0.2264  0.7741
  705TIP3   OH2 2078   5.516   3.991   3.268 -0.2549 -0.5534  0.2506
  705TIP3    H1 2079   5.528   4.048   3.192 -0.3136 -0.3474  0.3957
  705TIP3    H2 2080   5.569   4.031   3.337 -1.2227 -0.0010  0.7061
  706TIP3   OH2 2081   5.703   6.664   1.417 -0.0863 -0.1606  0.0950
  706TIP3    H1 2082   5.793   6.644   1.442 -0.1447 -0.0673  0.3877
  706TIP3    H2 2083   5.685   6.607   1.342  0.9447  1.3687 -1.3920
  707TIP3   OH2 2084   4.530   2.661   2.189 -0.6673  0.1157  0.0792
  707TIP3    H1 2085   4.487   2.583   2.155  0.3077 -0.0050 -0.9254
  707TIP3    H2 2086   4.477   2.687   2.265 -0.4059 -2.1716  1.1328
  708TIP3   OH2 2087   2.052   1.809   5.881 -0.2467  0.4075  0.4472
  708TIP3    H1 2088   2.098   1.800   5.798 -0.3458  0.5399  0.3775
  708TIP3    H2 2089   1.992   1.882   5.867 -0.9627 -0.1943  0.3175
  709TIP3   OH2 2090   4.154   0.807   2.237 -0.1711 -0.7230 -0.3793
  709TIP3    H1 2091   4.225   0.867   2.261 -0.0167 -0.6734 -0.9422
  709TIP3    H2 2092   4.167   0.731   2.293 -0.8622  0.1029  0.9413
  710TIP3   OH2 2093   4.823   6.707   5.759 -0.4526 -0.1603 -0.1038
  710TIP3    H1 2094   4.733   6.709   5.725 -0.1556  0.2895 -0.9009
  710TIP3    H2 2095   4.865   6.783   5.718  0.1997 -0.1769  0.5215
  711TIP3   OH2 2096   2.563   4.395   2.410 -0.3113 -0.4221 -0.1673
  711TIP3    H1 2097   2.604   4.398   2.324  0.1199 -0.2701  0.0385
  711TIP3    H2 2098   2.543   4.302   2.424  2.0286 -0.8907  0.6574
  712TIP3   OH2 2099   5.146   6.749   3.252 -0.8491  0.3044 -0.1380
  712TIP3    H1 2100   5.154   6.733   3.158 -1.7361  0.3872 -0.2384
  712TIP3    H2 2101   5.052   6.765   3.265 -0.4749  2.2009  0.4554
  713TIP3   OH2 2102   4.404   1.516   4.134 -0.4872  0.2898  0.1946
  713TIP3    H1 2103   4.492   1.534   4.100  0.8471 -0.0136  3.2240
  713TIP3    H2 2104   4.356   1.481   4.059  2.2793 -0.5481 -1.3126
  714TIP3   OH2 2105   1.508   5.016   3.706  0.5638 -0.1204 -0.0523
  714TIP3    H1 2106   1.477   4.958   3.776 -1.1534  0.4602 -0.2774
  714TIP3    H2 2107   1.432   5.071   3.686  0.6192 -0.9826 -3.0922
  715TIP3   OH2 2108   3.559   1.962   1.045 -0.1700 -0.3233  0.0853
  715TIP3    H1 2109   3.561   1.875   1.005 -0.5105 -0.2865 -0.0152
  715TIP3    H2 2110   3.543   2.022   0.971  0.0062 -0.1793  0.1614
  716TIP3   OH2 2111   4.352   2.669   4.756 -0.5817 -0.4398  0.6448
  716TIP3    H1 2112   4.408   2.596   4.783 -0.0189 -1.0622 -1.9211
  716TIP3    H2 2113   4.414   2.738   4.732 -1.0113 -0.2322  0.1328
  717TIP3   OH2 2114   2.942   5.320   5.117 -0.2547  0.1553  0.4594
  717TIP3    H1 2115   2.875   5.300   5.051  1.3456 -0.3349 -1.1141
  717TIP3    H2 2116   2.944   5.415   5.122 -1.0893  0.1734  0.5658
  718TIP3   OH2 2117   1.869   4.150   1.041  0.6402  0.6243 -0.1922
  718TIP3    H1 2118   1.825   4.083   1.093 -0.3173  1.7355  0.4811
  718TIP3    H2 2119   1.798   4.203   1.004  1.3602  1.1891 -0.8211
  719TIP3   OH2 2120   3.553   2.443   1.381  0.0642 -0.4428 -0.2435
  719TIP3    H1 2121   3.544   2.438   1.476  0.1957 -1.5872 -0.2816
  719TIP3    H2 2122   3.609   2.519   1.366  1.4457 -1.2450  0.6879
  720TIP3   OH2 2123   5.397   3.077   0.763  0.0535  0.2641 -0.1409
  720TIP3    H1 2124   5.346   3.104   0.686  1.3231  0.1354 -1.0569
  720TIP3    H2 2125   5.343   3.009   0.804  0.1404 -0.9845 -1.9542
  721TIP3   OH2 2126   6.126   3.796   2.835 -0.5608 -0.1923  0.5036
  721TIP3    H1 2127   6.186   3.725   2.858  0.4038  0.8666  1.3718
  721TIP3    H2 2128   6.038   3.758   2.844 -0.0692 -1.8506 -1.0632
  722TIP3   OH2 2129   3.385   1.552   3.994  0.7658 -0.0749 -0.0128
  722TIP3    H1 2130   3.377   1.493   3.919  2.2944 -0.3669  0.0065
  722TIP3    H2 2131   3.388   1.640   3.955 -0.4245 -0.0672 -0.1229
  723TIP3   OH2 2132   6.934   4.293   3.445 -0.1987  0.3509  0.2285
  723TIP3    H1 2133   6.984   4.346   3.507 -2.1720  0.6978  1.6349
  723TIP3    H2 2134   6.859   4.348   3.421 -0.1458 -0.2763 -1.4860
  724TIP3   OH2 2135   1.051   4.699   1.009 -0.3260  0.4147  0.5730
  724TIP3    H1 2136   1.116   4.633   1.035  0.2882  0.3623 -0.9770
  724TIP3    H2 2137   0.994   4.654   0.946  0.3949  1.4332 -0.8931
  725TIP3   OH2 2138   3.655   2.034   2.991  0.0787  0.3426 -0.2132
  725TIP3    H1 2139   3.588   1.968   3.009  1.1663 -0.4473  1.1619
  725TIP3    H2 2140   3.640   2.101   3.058  2.0117 -0.9442  1.6282
  726TIP3   OH2 2141   2.302   5.037   2.027  0.8851 -0.1363 -0.4964
  726TIP3    H1 2142   2.269   5.067   2.112  0.1423  0.5659 -1.0158
  726TIP3    H2 2143   2.383   5.088   2.014  2.0555 -1.6133  0.6211
  727TIP3   OH2 2144   3.966   4.990   3.921 -0.1707 -0.5737  0.6037
  727TIP3    H1 2145   4.052   4.958   3.894 -0.1626  0.0984 -0.1914
  727TIP3    H2 2146   3.929   5.030   3.843 -1.5522 -1.5461  0.7080
  728TIP3   OH2 2147   4.954   1.671   4.085  0.3428 -0.0058 -0.5324
  728TIP3    H1 2148   4.940   1.711   4.171 -1.9523 -1.3478 -0.1957
  728TIP3    H2 2149   4.980   1.744   4.029 -0.1208  1.2791  0.8468
  729TIP3   OH2 2150   2.911   0.824   2.598 -0.0083 -0.1331 -0.1472
  729TIP3    H1 2151   2.816   0.821   2.611  0.1735 -2.3844  1.3061
  729TIP3    H2 2152   2.940   0.899   2.649 -1.0806  1.1654 -1.3931
  730TIP3   OH2 2153   6.688   6.200   3.800  0.1549  0.2666 -0.8779
  730TIP3    H1 2154   6.698   6.293   3.818  0.5949 -0.0888  0.9368
  730TIP3    H2 2155   6.697   6.158   3.886 -1.2482 -1.3536 -1.4635
  731TIP3   OH2 2156   2.050   6.080   4.324 -0.5943 -0.2246  0.1006
  731TIP3    H1 2157   2.078   6.121   4.406 -0.4737 -0.2446  0.0700
  731TIP3    H2 2158   2.093   6.132   4.256 -0.7947 -0.1298  0.0446
  732TIP3   OH2 2159   2.853   4.795   5.404 -0.0633  0.1913 -0.1959
  732TIP3    H1 2160   2.812   4.795   5.490 -3.5843  1.4555 -1.6977
  732TIP3    H2 2161   2.827   4.879   5.365  0.5356 -0.7562 -2.8506
  733TIP3   OH2 2162   3.723   3.272   1.212  0.2244  0.2462  0.1382
  733TIP3    H1 2163   3.641   3.241   1.174 -0.1956 -0.7114  1.7223
  733TIP3    H2 2164   3.702   3.357   1.251  0.5788  1.0766 -1.3895
  734TIP3   OH2 2165   2.387   6.255   2.255 -0.4710  0.6355  0.2247
  734TIP3    H1 2166   2.425   6.171   2.229 -0.3953  0.9360 -0.6901
  734TIP3    H2 2167   2.442   6.285   2.327  1.0561  1.0431 -1.0423
  735TIP3   OH2 2168   3.618   0.722   3.113  0.2696 -0.2301 -0.1035
  735TIP3    H1 2169   3.650   0.656   3.051 -0.7918 -0.3830 -0.5027
  735TIP3    H2 2170   3.567   0.783   3.060 -1.4263 -0.8626  0.7018
  736TIP3   OH2 2171   1.749   0.636   0.782  0.4247  0.5387  0.2643
  736TIP3    H1 2172   1.654   0.644   0.795  0.1316  1.7473 -2.1284
  736TIP3    H2 2173   1.759   0.562   0.722  0.7614  1.7867 -1.2810
  737TIP3   OH2 2174   3.748   3.222   0.301  0.6986  0.1390 -0.2814
  737TIP3    H1 2175   3.813   3.157   0.326  0.2159 -0.4843 -0.6295
  737TIP3    H2 2176   3.669   3.172   0.282 -0.7780  1.0512  2.8320
  738TIP3   OH2 2177   7.108   1.341   0.435 -0.3987 -0.0076  0.0457
  738TIP3    H1 2178   7.164   1.393   0.377 -0.2799  0.6377  0.7296
  738TIP3    H2 2179   7.096   1.396   0.512 -0.3585 -0.9523  0.7410
  739TIP3   OH2 2180   1.416   2.477   4.086 -0.6954  0.2839 -0.5777
  739TIP3    H1 2181   1.501   2.518   4.097 -0.1009 -0.7994 -0.9895
  739TIP3    H2 2182   1.388   2.455   4.175 -0.2587  0.0916 -0.4862
  740TIP3   OH2 2183   1.708   1.403   5.502 -0.1694  0.2156  0.0768
  740TIP3    H1 2184   1.688   1.311   5.484 -1.5071  0.5702 -0.3865
  740TIP3    H2 2185   1.770   1.400   5.575 -0.5617 -1.0440  0.3935
  741TIP3   OH2 2186   1.630   1.918   1.145  0.2876  0.3296  0.0612
  741TIP3    H1 2187   1.561   1.861   1.113  0.6753  0.2527 -0.6551
  741TIP3    H2 2188   1.708   1.893   1.094  0.5585  1.1995  0.0332
  742TIP3   OH2 2189   5.776   4.210   4.519  0.1722 -0.5184  0.1339
  742TIP3    H1 2190   5.773   4.180   4.610 -0.0830 -0.2005  0.2309
  742TIP3    H2 2191   5.689   4.245   4.502  0.3647 -0.1395 -0.0849
  743TIP3   OH2 2192   2.315   1.098   4.230  0.4472 -0.4983 -0.0922
  743TIP3    H1 2193   2.338   1.045   4.306 -0.0083 -1.0568 -0.3372
  743TIP3    H2 2194   2.278   1.036   4.167  1.2754 -0.1197 -0.9775
  744TIP3   OH2 2195   0.606   5.955   2.219 -0.0703 -0.3872 -0.1573
  744TIP3    H1 2196   0.637   6.040   2.250 -0.4428 -0.4671  0.4474
  744TIP3    H2 2197   0.575   5.972   2.130 -2.2404  0.6219  0.7042
  745TIP3   OH2 2198   6.374   1.509   1.669  0.1851  0.1029  0.0687
  745TIP3    H1 2199   6.346   1.419   1.688  1.6328 -0.3203  0.3763
  745TIP3    H2 2200   6.381   1.512   1.574 -0.3835  0.0603  0.0217
  746TIP3   OH2 2201   7.148   4.953   5.198 -0.2216 -0.0174  0.2745
  746TIP3    H1 2202   7.108   4.891   5.138  0.3425 -1.6696  1.5363
  746TIP3    H2 2203   7.229   4.980   5.154 -0.7766  0.3505 -0.5552
  747TIP3   OH2 2204   6.653   6.072   4.820 -0.3115  0.8524  0.0452
  747TIP3    H1 2205   6.666   5.978   4.829 -0.9429  0.7126 -0.4091
  747TIP3    H2 2206   6.584   6.093   4.883 -1.1241  0.7646 -0.7897
  748TIP3   OH2 2207   5.014   3.750   3.023  0.4072 -0.5588  0.6936
  748TIP3    H1 2208   5.011   3.756   3.119 -0.1301  1.0516  0.6151
  748TIP3    H2 2209   5.090   3.802   2.998 -0.8184  1.1003  0.1736
  749TIP3   OH2 2210   1.514   5.657   1.532 -0.5497 -0.2044  0.0793
  749TIP3    H1 2211   1.441   5.595   1.534 -1.4307  0.8096  0.5597
  749TIP3    H2 2212   1.474   5.740   1.507  0.4871  0.3404  0.1632
  750TIP3   OH2 2213   4.974   6.653   1.280 -0.1588  0.0191  0.0412
  750TIP3    H1 2214   4.999   6.573   1.234 -1.3197  1.1867 -2.8181
  750TIP3    H2 2215   5.057   6.689   1.312  0.7983 -0.6412 -1.5649
  751TIP3   OH2 2216   3.629   6.248   4.839 -0.1218 -0.0954 -0.4803
  751TIP3    H1 2217   3.637   6.161   4.879  0.1776  0.1047 -0.1092
  751TIP3    H2 2218   3.538   6.273   4.856 -0.2332 -0.3702 -0.6600
  752TIP3   OH2 2219   2.589   1.827   2.130 -0.4104 -0.5346  0.3066
  752TIP3    H1 2220   2.569   1.754   2.072  1.0004  0.3053 -1.3353
  752TIP3    H2 2221   2.643   1.789   2.200  0.1884 -1.1009 -0.4509
  753TIP3   OH2 2222   1.386   5.394   3.559 -0.1552 -0.5464  0.4348
  753TIP3    H1 2223   1.441   5.439   3.624 -0.7410  0.1495  0.4620
  753TIP3    H2 2224   1.444   5.382   3.484  0.1545 -0.1655  0.6006
  754TIP3   OH2 2225   2.619   2.235   3.268 -0.2662 -0.2247  0.3438
  754TIP3    H1 2226   2.609   2.323   3.303 -0.2569  0.2295 -0.7581
  754TIP3    H2 2227   2.677   2.191   3.330  1.6296  1.2600 -0.2957
  755TIP3   OH2 2228   5.690   1.571   5.041 -0.3209 -0.2540  0.1453
  755TIP3    H1 2229   5.623   1.511   5.006 -0.8097  1.7497 -2.7627
  755TIP3    H2 2230   5.656   1.658   5.021  2.9213  0.8814 -1.0628
  756TIP3   OH2 2231   2.418   4.335   4.127 -0.0217 -0.1376  0.0646
  756TIP3    H1 2232   2.489   4.283   4.089  0.2273  0.9996 -1.1018
  756TIP3    H2 2233   2.450   4.425   4.122 -0.3367  0.1357  2.2645
  757TIP3   OH2 2234   5.623   4.099   2.484  0.6153 -0.2252 -0.1120
  757TIP3    H1 2235   5.708   4.123   2.520 -0.1182 -0.4724  1.8682
  757TIP3    H2 2236   5.625   4.003   2.479  0.6570 -0.2027 -0.6494
  758TIP3   OH2 2237   1.895   2.839   0.741  0.1817 -0.1901  0.3119
  758TIP3    H1 2238   1.903   2.898   0.816 -1.5510  0.6164 -0.0886
  758TIP3    H2 2239   1.885   2.752   0.780 -3.1132  0.4645  1.2066
  759TIP3   OH2 2240   5.691   4.610   0.619 -0.1671  0.3905 -0.1725
  759TIP3    H1 2241   5.683   4.519   0.589  2.8328 -0.4725  1.2358
  759TIP3    H2 2242   5.662   4.608   0.710  0.5330  0.6667  0.0633
  760TIP3   OH2 2243   3.339   0.079   2.975  0.2682 -0.0739 -0.5009
  760TIP3    H1 2244   3.325   0.058   2.883 -1.0617 -0.4758 -0.2250
  760TIP3    H2 2245   3.333   0.175   2.979 -1.7076 -0.1485 -0.5650
  761TIP3   OH2 2246   5.929   4.444   5.825 -0.0891 -0.3529  0.3776
  761TIP3    H1 2247   5.878   4.394   5.889  0.5633  0.9683  1.9781
  761TIP3    H2 2248   6.020   4.420   5.842  0.3518  2.1555  1.9806
  762TIP3   OH2 2249   3.705   6.541   0.701  0.4954  0.0675 -0.3099
  762TIP3    H1 2250   3.624   6.509   0.742  1.2053  1.3121  2.2849
  762TIP3    H2 2251   3.720   6.481   0.628 -2.2824 -0.7196 -0.3450
  763TIP3   OH2 2252   4.008   2.616   1.732 -0.1962  0.4865 -0.3428
  763TIP3    H1 2253   3.986   2.709   1.727 -0.0392  0.4945 -0.8616
  763TIP3    H2 2254   4.091   2.614   1.781  0.2506  0.6864 -1.0860
  764TIP3   OH2 2255   3.507   4.301   4.769 -0.3448  0.7046  0.2955
  764TIP3    H1 2256   3.464   4.231   4.720  1.4245 -0.5450  0.4814
  764TIP3    H2 2257   3.516   4.372   4.705 -0.1722 -0.0395 -0.5216
  765TIP3   OH2 2258   4.837   2.031   5.759 -0.2141 -0.4308  0.3969
  765TIP3    H1 2259   4.854   1.944   5.722 -0.0308 -0.1912 -0.0852
  765TIP3    H2 2260   4.920   2.057   5.798  0.1604  0.1532 -0.7541
  766TIP3   OH2 2261   1.523   5.135   0.156  0.2077 -0.0496  0.1120
  766TIP3    H1 2262   1.464   5.098   0.092 -0.3485  0.8496  0.0932
  766TIP3    H2 2263   1.589   5.182   0.105 -1.5907  2.7619  0.1523
  767TIP3   OH2 2264   6.347   5.166   1.102  0.4839 -0.0466 -0.3177
  767TIP3    H1 2265   6.286   5.237   1.120  2.0735  1.0284  1.0510
  767TIP3    H2 2266   6.304   5.114   1.034 -1.6014  1.0770  0.0750
  768TIP3   OH2 2267   2.186   0.479   3.633  0.0980 -0.9272 -0.0069
  768TIP3    H1 2268   2.234   0.541   3.579 -1.9994  0.1871 -0.7292
  768TIP3    H2 2269   2.232   0.396   3.621  1.2975 -0.1253 -1.3146
  769TIP3   OH2 2270   5.891   3.019   0.974  0.3469  0.0837  0.4328
  769TIP3    H1 2271   5.870   3.018   0.880  1.9690 -0.8399  0.0339
  769TIP3    H2 2272   5.808   2.999   1.017 -0.5215  0.9399 -0.7716
  770TIP3   OH2 2273   4.917   2.553   4.998  0.0639  0.7039 -0.2671
  770TIP3    H1 2274   4.967   2.549   4.917 -0.0003  2.5438 -0.4432
  770TIP3    H2 2275   4.848   2.487   4.987  2.3327 -1.8813 -0.0170
  771TIP3   OH2 2276   6.995   4.730   3.400 -0.4071  0.1690  0.4903
  771TIP3    H1 2277   7.044   4.652   3.374 -0.3419  0.1518  0.6619
  771TIP3    H2 2278   6.924   4.736   3.336  0.8089  1.1707 -0.7908
  772TIP3   OH2 2279   1.448   2.026   0.861 -0.1392 -0.2360 -0.4170
  772TIP3    H1 2280   1.543   2.029   0.868 -0.1612 -0.8060  0.1587
  772TIP3    H2 2281   1.430   2.036   0.767  0.3625  2.7048 -0.2875
  773TIP3   OH2 2282   1.468   5.500   5.273 -0.1043 -0.0869  0.2461
  773TIP3    H1 2283   1.486   5.591   5.296 -2.3454  0.2613  0.9301
  773TIP3    H2 2284   1.522   5.482   5.196 -0.6809  2.2938 -0.7825
  774TIP3   OH2 2285   6.189   3.208   0.103 -0.0003 -0.1685  0.1644
  774TIP3    H1 2286   6.210   3.242   0.016 -2.4532  1.6815  0.1761
  774TIP3    H2 2287   6.104   3.164   0.091  0.8982 -2.2751  1.1317
  775TIP3   OH2 2288   3.523   4.416   0.050  0.4756 -0.6684  0.6585
  775TIP3    H1 2289   3.448   4.367   0.083 -1.3473  0.5195 -1.4742
  775TIP3    H2 2290   3.532   4.491   0.109 -0.2299 -0.6389  0.7329
  776TIP3   OH2 2291   3.444   6.413   1.044  0.4254 -0.2408 -0.2016
  776TIP3    H1 2292   3.366   6.359   1.055  0.1020  0.2593  0.0208
  776TIP3    H2 2293   3.426   6.491   1.097  0.8995  0.0632 -0.4849
  777TIP3   OH2 2294   4.697   1.188   3.449  0.1517 -0.3148 -0.1976
  777TIP3    H1 2295   4.716   1.117   3.388 -1.5137 -0.3371 -0.7382
  777TIP3    H2 2296   4.749   1.167   3.527 -1.3625 -2.9205  0.1967
  778TIP3   OH2 2297   6.936   1.470   3.158 -0.1838 -0.0400  0.7243
  778TIP3    H1 2298   7.006   1.529   3.187 -1.2128  2.2841 -1.1705
  778TIP3    H2 2299   6.889   1.448   3.239  1.0213  0.6643  1.6561
  779TIP3   OH2 2300   5.974   1.610   2.147 -0.8268  0.6509 -0.3140
  779TIP3    H1 2301   6.016   1.690   2.179 -2.3352  1.0681  0.7205
  779TIP3    H2 2302   6.034   1.539   2.172 -0.4187  1.2781  0.5056
  780TIP3   OH2 2303   6.484   5.833   2.434 -0.0186  0.2037 -0.0504
  780TIP3    H1 2304   6.441   5.917   2.444  0.2284  0.4862 -1.2420
  780TIP3    H2 2305   6.459   5.783   2.512 -0.5519  1.2020  0.4223
  781TIP3   OH2 2306   3.285   1.176   0.093 -0.0092  0.4880 -0.0769
  781TIP3    H1 2307   3.372   1.216   0.093 -0.6183  1.8832 -1.0812
  781TIP3    H2 2308   3.301   1.084   0.113  1.6128  0.8665  0.5399
  782TIP3   OH2 2309   6.199   6.141   3.135  0.3590 -0.0999  0.5068
  782TIP3    H1 2310   6.131   6.207   3.139 -0.2203 -0.6242 -0.4539
  782TIP3    H2 2311   6.214   6.116   3.227 -1.4103 -0.6397  0.6775
  783TIP3   OH2 2312   2.057   0.744   1.434 -0.0969  0.4136 -0.0018
  783TIP3    H1 2313   2.021   0.828   1.462 -1.9807 -0.5373  0.5644
  783TIP3    H2 2314   2.058   0.750   1.338 -1.4881  0.6186 -0.0287
  784TIP3   OH2 2315   4.494   4.474   0.798 -0.3121  0.1366  0.1932
  784TIP3    H1 2316   4.494   4.529   0.720 -0.7808 -0.5969 -0.3304
  784TIP3    H2 2317   4.408   4.432   0.798 -0.2082 -0.0914  0.9456
  785TIP3   OH2 2318   6.124   1.425   4.401 -0.6773  0.2432 -0.6720
  785TIP3    H1 2319   6.060   1.496   4.414 -0.4539  0.9361 -2.8555
  785TIP3    H2 2320   6.092   1.354   4.457 -1.5568  1.6510  0.7127
  786TIP3   OH2 2321   1.225   2.221   0.586 -0.3283 -0.2153  0.0119
  786TIP3    H1 2322   1.151   2.262   0.631 -0.5728 -0.5853 -0.0505
  786TIP3    H2 2323   1.186   2.151   0.534  0.0802 -0.5054  0.0880
  787TIP3   OH2 2324   2.408   1.886   4.658  0.3182 -0.1663  0.3368
  787TIP3    H1 2325   2.368   1.849   4.580 -0.2889  0.1268  0.5018
  787TIP3    H2 2326   2.391   1.980   4.651  1.8726  0.1192 -0.1000
  788TIP3   OH2 2327   2.188   4.437   4.556  0.4311 -0.0648 -0.0081
  788TIP3    H1 2328   2.192   4.461   4.648  0.1284 -2.2796  0.6342
  788TIP3    H2 2329   2.263   4.481   4.516 -0.2715  2.1127  0.9584
  789TIP3   OH2 2330   5.026   4.244   3.539 -0.5734  0.1159 -0.6892
  789TIP3    H1 2331   5.012   4.339   3.546 -1.3445 -0.0401  0.0378
  789TIP3    H2 2332   5.010   4.211   3.627 -0.1454 -0.6786 -0.9002
  790TIP3   OH2 2333   2.151   0.054   5.123 -0.1929  0.7208  1.0207
  790TIP3    H1 2334   2.112  -0.025   5.162  1.3062 -0.3246  0.4867
  790TIP3    H2 2335   2.119   0.126   5.178 -2.3459 -0.1147  0.9759
  791TIP3   OH2 2336   6.483   2.697   5.275 -0.3422  0.2557  0.2425
  791TIP3    H1 2337   6.498   2.607   5.247 -1.4707 -0.7765  2.5979
  791TIP3    H2 2338   6.409   2.726   5.222  0.8516  0.3137 -1.4579
  792TIP3   OH2 2339   6.141   4.259   1.182  0.7202 -0.5027  0.1070
  792TIP3    H1 2340   6.200   4.186   1.198  0.5713 -0.7859 -0.6177
  792TIP3    H2 2341   6.110   4.284   1.269 -0.2150 -2.1349  0.2815
  793TIP3   OH2 2342   6.233   4.079   3.290  0.0554 -0.3726 -0.2163
  793TIP3    H1 2343   6.159   4.134   3.264 -0.7183 -1.1953  0.1729
  793TIP3    H2 2344   6.227   4.074   3.385 -1.2023 -2.8137 -0.3248
  794TIP3   OH2 2345   5.047   4.842   0.519 -0.1533  0.1422  0.5342
  794TIP3    H1 2346   5.067   4.812   0.430  1.0899  0.2445  0.7662
  794TIP3    H2 2347   4.994   4.771   0.556  0.6505 -0.6333  0.2397
  795TIP3   OH2 2348   4.573   2.228   1.524  0.5367  0.0099 -0.1777
  795TIP3    H1 2349   4.587   2.273   1.608  3.4216 -1.3515  0.1635
  795TIP3    H2 2350   4.546   2.140   1.549 -0.3008  0.0952 -0.7510
  796TIP3   OH2 2351   2.684   6.612   2.077  0.4434  0.5822 -0.1706
  796TIP3    H1 2352   2.612   6.597   2.138  0.7988  2.0687  0.6593
  796TIP3    H2 2353   2.756   6.643   2.133  1.0854  1.0390 -1.2231
  797TIP3   OH2 2354   1.919   6.004   3.136  0.4299  0.2609 -0.1536
  797TIP3    H1 2355   1.950   6.001   3.046  0.2230 -0.9221 -0.1957
  797TIP3    H2 2356   1.921   6.097   3.159  0.0307  0.6299 -1.5304
  798TIP3   OH2 2357   0.088   5.395   1.105  0.3713  0.8304  0.0179
  798TIP3    H1 2358   0.102   5.440   1.188 -1.1034  0.9937  0.1984
  798TIP3    H2 2359   0.085   5.465   1.040 -2.0516  1.0763  0.3147
  799TIP3   OH2 2360   3.051   4.606   2.715 -0.0788  0.0642 -0.2153
  799TIP3    H1 2361   3.078   4.556   2.792  1.3688  1.7927  0.4776
  799TIP3    H2 2362   3.062   4.546   2.642  1.2090 -0.7748  0.6148
  800TIP3   OH2 2363   3.454   3.960   3.616  0.0490 -0.4668 -0.3724
  800TIP3    H1 2364   3.439   4.054   3.606 -1.4802 -0.8708 -2.8154
  800TIP3    H2 2365   3.542   3.945   3.581 -0.8007 -0.2508 -2.7522
  801TIP3   OH2 2366   6.844   6.362   0.819 -0.2493  0.0202  0.3733
  801TIP3    H1 2367   6.752   6.376   0.843  0.1758  1.1178  1.4076
  801TIP3    H2 2368   6.840   6.295   0.750 -1.7784 -0.3627  0.7914
  802TIP3   OH2 2369   2.936   4.182   2.568 -0.2340 -0.2208  0.0462
  802TIP3    H1 2370   2.842   4.164   2.570  0.0474 -1.6804  1.0722
  802TIP3    H2 2371   2.964   4.176   2.659  0.7807  0.7282 -0.1821
  803TIP3   OH2 2372   3.952   5.775   0.078  0.2014  0.3366 -0.1812
  803TIP3    H1 2373   4.003   5.812   0.006 -1.3636 -0.1580 -1.6138
  803TIP3    H2 2374   3.905   5.850   0.115 -1.3141  0.2067 -1.6979
  804TIP3   OH2 2375   2.132   1.307   2.873  0.5718 -0.0965 -0.2268
  804TIP3    H1 2376   2.164   1.218   2.882  0.0659 -0.1752  0.9737
  804TIP3    H2 2377   2.100   1.330   2.960 -1.0584  0.5828 -0.9724
  805TIP3   OH2 2378   5.230   2.326   1.649 -0.4632  0.7239  0.0772
  805TIP3    H1 2379   5.318   2.351   1.677  0.6626 -1.4009 -1.2284
  805TIP3    H2 2380   5.172   2.374   1.707  1.5641  1.6595  1.4789
  806TIP3   OH2 2381   6.068   3.389   4.953  0.0824  0.0888 -0.4953
  806TIP3    H1 2382   6.066   3.378   4.858  1.3494  0.7654 -0.6244
  806TIP3    H2 2383   6.078   3.300   4.988  1.0613 -0.0324 -1.0700
  807TIP3   OH2 2384   7.067   3.969   5.266  0.1083 -0.1076 -0.3377
  807TIP3    H1 2385   7.136   3.902   5.273  1.2553  1.1191  0.9119
  807TIP3    H2 2386   7.112   4.045   5.230 -1.2622 -0.0839 -2.1043
  808TIP3   OH2 2387   2.119   0.200   4.715 -0.3690  0.4402 -0.2621
  808TIP3    H1 2388   2.147   0.138   4.783 -1.2272  0.9836  0.6190
  808TIP3    H2 2389   2.047   0.248   4.755 -1.1330  0.5473 -1.6990
  809TIP3   OH2 2390   3.471   2.245   0.925 -0.2608 -0.1610  0.0896
  809TIP3    H1 2391   3.437   2.204   0.846 -0.1620 -1.0392  0.4981
  809TIP3    H2 2392   3.566   2.240   0.915 -0.2486 -0.1503  0.2030
  810TIP3   OH2 2393   5.853   4.456   2.357  0.0754  0.3781  0.4741
  810TIP3    H1 2394   5.871   4.481   2.266  1.5786  0.5069  0.7767
  810TIP3    H2 2395   5.935   4.418   2.388 -0.0190  1.4405  2.1406
  811TIP3   OH2 2396   5.498   6.606   3.502  0.3273  0.1494  0.1743
  811TIP3    H1 2397   5.552   6.574   3.574  0.5511  0.6135  0.2209
  811TIP3    H2 2398   5.440   6.533   3.481 -0.0827  0.1835  1.1490
  812TIP3   OH2 2399   5.472   4.590   2.302  0.4747 -0.1384 -0.7894
  812TIP3    H1 2400   5.391   4.624   2.339 -0.3048  0.9805 -3.3570
  812TIP3    H2 2401   5.474   4.498   2.328 -0.1713  0.4604  1.6220
  813TIP3   OH2 2402   5.923   6.482   0.334 -0.5758  0.0861  0.3148
  813TIP3    H1 2403   5.854   6.490   0.268  0.4758 -0.3386 -0.8891
  813TIP3    H2 2404   6.003   6.471   0.283  0.5607  1.7227  1.6360
  814TIP3   OH2 2405   3.810   5.719   3.072 -0.2766  0.1125  0.5259
  814TIP3    H1 2406   3.761   5.651   3.118 -0.2934 -0.4139 -0.2482
  814TIP3    H2 2407   3.793   5.703   2.979  0.1407  0.8559  0.3098
  815TIP3   OH2 2408   3.516   4.586   0.285  0.0455  0.2918 -0.2490
  815TIP3    H1 2409   3.473   4.576   0.370  0.8566 -0.6288  0.0726
  815TIP3    H2 2410   3.607   4.608   0.306  0.2056  0.2669 -0.8843
  816TIP3   OH2 2411   1.861   2.535   5.354  0.2446  0.0982  0.1783
  816TIP3    H1 2412   1.840   2.572   5.269 -0.8432  0.2389  0.4884
  816TIP3    H2 2413   1.798   2.576   5.414 -0.5963 -1.7547  0.6445
  817TIP3   OH2 2414   2.962   0.277   3.883  0.6533  0.6616  0.4582
  817TIP3    H1 2415   2.879   0.244   3.849  1.9312  0.5447 -2.8664
  817TIP3    H2 2416   2.956   0.372   3.874  0.5933  0.7250  1.0731
  818TIP3   OH2 2417   4.214   2.242   2.269  0.3269 -0.1750 -0.2106
  818TIP3    H1 2418   4.184   2.327   2.301  2.1580  0.0333  1.1299
  818TIP3    H2 2419   4.306   2.255   2.246  0.1269 -1.3440 -1.8680
  819TIP3   OH2 2420   0.334   4.167   1.915 -0.6574  0.1477  0.0465
  819TIP3    H1 2421   0.327   4.187   1.822 -1.0734  0.5142  0.1506
  819TIP3    H2 2422   0.289   4.083   1.926  0.0147 -0.2483 -0.1945
  820TIP3   OH2 2423   0.849   6.774   5.581  0.4269 -0.1946 -0.0851
  820TIP3    H1 2424   0.825   6.747   5.492  1.0559  4.6940 -2.0599
  820TIP3    H2 2425   0.765   6.791   5.624  0.1267 -2.3327  0.2968
  821TIP3   OH2 2426   6.984   1.099   4.691 -0.3878  0.5060 -0.5527
  821TIP3    H1 2427   6.913   1.132   4.637 -0.9836 -0.4114 -0.3589
  821TIP3    H2 2428   7.034   1.042   4.632  0.3341  1.3308 -0.7524
  822TIP3   OH2 2429   3.900   3.905   3.191  0.3378  0.1566 -0.1975
  822TIP3    H1 2430   3.842   3.863   3.255 -0.8515  1.6140 -0.2616
  822TIP3    H2 2431   3.981   3.854   3.195 -0.6607 -1.4674  0.4699
  823TIP3   OH2 2432   0.104   4.729   3.145 -0.1213  0.0781 -0.1134
  823TIP3    H1 2433   0.144   4.782   3.076 -0.1921 -0.0442 -0.2485
  823TIP3    H2 2434   0.174   4.716   3.209  0.8433 -2.2684 -1.5211
  824TIP3   OH2 2435   5.008   4.559   2.605 -0.4411 -0.5089 -0.4504
  824TIP3    H1 2436   4.992   4.638   2.553 -1.4900 -0.5145 -0.1629
  824TIP3    H2 2437   5.020   4.489   2.541 -0.2858 -0.2621 -0.6916
  825TIP3   OH2 2438   2.371   2.930   0.295 -0.4742 -0.0860 -0.1242
  825TIP3    H1 2439   2.372   3.021   0.325  0.1911 -0.4394  0.9990
  825TIP3    H2 2440   2.316   2.931   0.217 -0.5669  1.2583 -0.0678
  826TIP3   OH2 2441   2.724   1.094   2.236  0.0275  0.4775  0.2714
  826TIP3    H1 2442   2.663   1.047   2.178  0.5075  0.1597  0.0151
  826TIP3    H2 2443   2.760   1.163   2.181 -0.9775  1.4219  0.7646
  827TIP3   OH2 2444   4.651   0.398   5.749 -0.2191  0.3748 -0.5721
  827TIP3    H1 2445   4.735   0.360   5.723 -0.2573  1.4385 -2.4442
  827TIP3    H2 2446   4.622   0.344   5.823  1.4678 -0.8450 -0.7373
  828TIP3   OH2 2447   2.786   4.050   4.826 -0.2710 -0.0087 -0.5953
  828TIP3    H1 2448   2.881   4.062   4.815 -0.4124 -0.4020 -2.8462
  828TIP3    H2 2449   2.771   3.959   4.798 -1.2536 -0.1475  0.3352
  829TIP3   OH2 2450   3.858   5.349   0.903  0.1648  0.5952  0.1956
  829TIP3    H1 2451   3.840   5.433   0.861  0.7579 -0.2403 -1.8849
  829TIP3    H2 2452   3.953   5.340   0.898 -0.0351 -1.8354 -3.3375
  830TIP3   OH2 2453   2.430   3.113   1.466  0.6684  0.7712 -0.7862
  830TIP3    H1 2454   2.393   3.101   1.554 -0.9163  0.5812 -1.4607
  830TIP3    H2 2455   2.405   3.202   1.441 -1.2666 -0.0620 -2.0883
  831TIP3   OH2 2456   6.096   4.523   0.859  0.1468 -0.1316 -1.0660
  831TIP3    H1 2457   6.109   4.429   0.869 -1.1525 -0.3540 -1.2557
  831TIP3    H2 2458   6.047   4.531   0.777  1.1109  0.7965 -1.5713
  832TIP3   OH2 2459   2.211   6.477   0.510 -0.4509 -0.1712 -0.7535
  832TIP3    H1 2460   2.305   6.487   0.521 -0.3359 -1.1501 -0.7554
  832TIP3    H2 2461   2.192   6.391   0.545 -1.7963  1.0850  1.8430
  833TIP3   OH2 2462   2.954   0.109   5.394 -0.3662 -0.1565  0.4891
  833TIP3    H1 2463   2.991   0.198   5.394 -1.0250  0.1256  0.3353
  833TIP3    H2 2464   2.944   0.087   5.486 -0.8220  0.2023  0.5310
  834TIP3   OH2 2465   4.621   0.701   5.087 -0.0516  0.1658  0.0994
  834TIP3    H1 2466   4.639   0.724   5.179  0.4988 -0.8168  0.2565
  834TIP3    H2 2467   4.700   0.728   5.040 -0.3762  0.7636 -0.1045
  835TIP3   OH2 2468   3.123   2.131   0.474 -0.2281  0.1288 -0.1885
  835TIP3    H1 2469   3.072   2.209   0.454  2.0294  1.4702 -1.0621
  835TIP3    H2 2470   3.196   2.163   0.526 -0.3818 -1.7737  1.3079
  836TIP3   OH2 2471   0.453   2.055   4.412 -0.4291 -0.5628 -0.0428
  836TIP3    H1 2472   0.374   2.105   4.435  0.6502  1.1288  0.1607
  836TIP3    H2 2473   0.484   2.020   4.496 -0.2348 -0.0946  0.0856
  837TIP3   OH2 2474   3.153   1.659   3.156 -0.2636  0.1274 -0.7428
  837TIP3    H1 2475   3.144   1.646   3.061  0.9005  2.6480 -1.2793
  837TIP3    H2 2476   3.245   1.680   3.169 -0.4217 -0.0801  0.9629
  838TIP3   OH2 2477   5.412   3.697   5.717 -0.1816 -0.5121 -0.6974
  838TIP3    H1 2478   5.436   3.767   5.656 -0.1588 -0.1709 -0.3012
  838TIP3    H2 2479   5.401   3.741   5.801 -0.6421 -0.9123 -0.5430
  839TIP3   OH2 2480   1.344   0.333   2.552 -0.3194 -0.0310 -0.5487
  839TIP3    H1 2481   1.325   0.426   2.539 -1.3745 -0.4004 -1.8498
  839TIP3    H2 2482   1.426   0.318   2.507  0.4472  0.4890  0.6336
  840TIP3   OH2 2483   6.943   5.812   5.485  0.0195 -0.2354 -0.0943
  840TIP3    H1 2484   6.924   5.724   5.451 -3.7488  0.1174  0.6637
  840TIP3    H2 2485   6.918   5.809   5.577 -0.3936  1.6585 -0.0930
  841TIP3   OH2 2486   2.048   2.537   5.726  0.3234 -0.5219  0.0420
  841TIP3    H1 2487   2.121   2.549   5.666  0.6310 -1.3854  0.2349
  841TIP3    H2 2488   2.074   2.464   5.782 -0.4362 -0.4588  0.4932
  842TIP3   OH2 2489   6.545   0.431   4.259 -0.0557  0.3218 -0.0816
  842TIP3    H1 2490   6.531   0.510   4.312  2.5182  1.3901 -0.8752
  842TIP3    H2 2491   6.618   0.386   4.301 -1.7758 -1.9975  0.6410
  843TIP3   OH2 2492   3.803   5.068   3.688 -0.4822 -0.1903  0.2104
  843TIP3    H1 2493   3.832   5.032   3.605  1.3579  0.6819  0.4171
  843TIP3    H2 2494   3.758   5.149   3.665 -1.0987 -0.5829  0.0049
  844TIP3   OH2 2495   5.540   0.179   4.653 -0.0920 -0.2459 -0.7680
  844TIP3    H1 2496   5.532   0.271   4.679  1.8284 -0.2058 -0.1979
  844TIP3    H2 2497   5.452   0.143   4.668 -0.4435  1.0741  0.6640
  845TIP3   OH2 2498   3.804   5.605   4.459  0.3299 -0.1482 -0.4780
  845TIP3    H1 2499   3.821   5.584   4.550  0.4897  0.8381 -0.2649
  845TIP3    H2 2500   3.889   5.592   4.415  0.5131  0.3728 -0.2847
  846TIP3   OH2 2501   4.210   2.681   4.131  0.1340 -0.0123  0.2827
  846TIP3    H1 2502   4.121   2.703   4.156 -0.5860  0.2571 -2.2522
  846TIP3    H2 2503   4.260   2.686   4.213 -2.1810 -0.4663  1.8207
  847TIP3   OH2 2504   5.343   3.559   5.312 -0.3109 -0.0003  0.1838
  847TIP3    H1 2505   5.255   3.554   5.349 -1.2855 -1.1344 -2.1340
  847TIP3    H2 2506   5.385   3.476   5.336 -0.1598  0.1847  0.5690
  848TIP3   OH2 2507   6.757   2.417   2.701  0.9982  0.1985 -0.0412
  848TIP3    H1 2508   6.829   2.354   2.693  0.2991 -0.4748 -1.3795
  848TIP3    H2 2509   6.751   2.457   2.615  1.1048  1.7838  0.6593
  849TIP3   OH2 2510   6.947   6.014   3.430 -0.0012  0.2880  0.2696
  849TIP3    H1 2511   6.927   6.056   3.513  0.4918 -1.0498  1.0887
  849TIP3    H2 2512   7.016   5.951   3.451  1.4442  1.1786 -1.4891
  850TIP3   OH2 2513   1.371   4.920   4.977  0.4013 -0.1627  0.4976
  850TIP3    H1 2514   1.306   4.919   4.907  3.0329 -0.9590 -2.1826
  850TIP3    H2 2515   1.325   4.889   5.054 -1.9535 -2.5467 -1.6701
  851TIP3   OH2 2516   0.534   3.686   1.170  0.1243 -0.2984 -0.3149
  851TIP3    H1 2517   0.528   3.764   1.225  1.3804  0.8813 -1.7492
  851TIP3    H2 2518   0.456   3.689   1.115  0.1597 -0.0654 -0.3510
  852TIP3   OH2 2519   5.331   6.052   2.107 -0.5980 -0.6680  0.4120
  852TIP3    H1 2520   5.398   6.032   2.173  1.0515  1.2540 -0.5757
  852TIP3    H2 2521   5.287   6.131   2.139  2.2483  2.1537 -1.9847
  853TIP3   OH2 2522   4.608   1.570   5.374 -0.2864 -0.2379 -0.1851
  853TIP3    H1 2523   4.527   1.588   5.326 -0.1953  0.8346  0.0358
  853TIP3    H2 2524   4.597   1.615   5.458  0.8214  0.5359 -0.4378
  854TIP3   OH2 2525   5.112   3.281   3.492 -0.0583 -0.1828  0.1374
  854TIP3    H1 2526   5.196   3.309   3.455 -0.6606  3.0107  0.8795
  854TIP3    H2 2527   5.133   3.249   3.580  0.3914  0.6640  0.3424
  855TIP3   OH2 2528   2.916   0.115   0.390  0.4125  0.5382 -0.0890
  855TIP3    H1 2529   2.926   0.160   0.474  0.6793  1.7963 -0.7684
  855TIP3    H2 2530   2.985   0.151   0.335 -0.4350  0.5381 -1.1834
  856TIP3   OH2 2531   0.807   2.373   1.649 -1.2283  0.7275 -0.0760
  856TIP3    H1 2532   0.894   2.346   1.677 -0.8318 -0.0880 -1.9341
  856TIP3    H2 2533   0.749   2.347   1.721 -0.1451 -0.1725  0.4997
  857TIP3   OH2 2534   1.543   6.396   5.390 -0.4229  0.5702 -0.0880
  857TIP3    H1 2535   1.487   6.473   5.399  0.8865  1.6965 -1.1457
  857TIP3    H2 2536   1.632   6.431   5.387  0.3942 -1.1643  1.6523
  858TIP3   OH2 2537   2.603   2.631   1.934 -0.1868  0.5829 -0.1482
  858TIP3    H1 2538   2.550   2.623   1.854  0.2726  0.5861 -0.4603
  858TIP3    H2 2539   2.682   2.582   1.914 -1.2216 -1.8622  1.3583
  859TIP3   OH2 2540   4.674   6.430   3.628 -0.6122 -0.2999  0.3927
  859TIP3    H1 2541   4.681   6.347   3.675  0.6036  0.2673  1.2591
  859TIP3    H2 2542   4.620   6.486   3.685  0.7095  0.3273  1.0756
  860TIP3   OH2 2543   5.665   4.841   4.502  0.0873  0.0515  0.4039
  860TIP3    H1 2544   5.617   4.896   4.440 -2.1324 -1.7832  0.3921
  860TIP3    H2 2545   5.661   4.890   4.584 -0.6546  0.5433  0.0932
  861TIP3   OH2 2546   6.240   5.890   0.872 -0.1574  0.0168  0.2744
  861TIP3    H1 2547   6.198   5.869   0.789  1.2541  0.1971 -0.5090
  861TIP3    H2 2548   6.247   5.806   0.918  1.3360 -0.5370 -0.8917
  862TIP3   OH2 2549   6.801   3.496   1.993 -0.0238 -0.2677  0.1123
  862TIP3    H1 2550   6.733   3.444   1.951  0.5676 -0.0989 -1.0870
  862TIP3    H2 2551   6.844   3.543   1.921 -0.1041  1.3768  1.0693
  863TIP3   OH2 2552   6.559   6.814   3.154 -0.6089  0.1170  0.5119
  863TIP3    H1 2553   6.473   6.775   3.174 -1.4010  1.2352 -0.5500
  863TIP3    H2 2554   6.606   6.743   3.110 -0.1664 -1.1829  2.8963
  864TIP3   OH2 2555   6.493   1.143   0.570 -0.3796 -0.1294  0.0277
  864TIP3    H1 2556   6.583   1.174   0.564 -0.0196 -0.5348  2.4220
  864TIP3    H2 2557   6.500   1.048   0.581 -1.1147 -0.1889  0.0833
  865TIP3   OH2 2558   0.902   5.141   2.279  0.0800 -0.3284  0.2732
  865TIP3    H1 2559   0.956   5.135   2.200 -0.5043  2.1772 -0.4093
  865TIP3    H2 2560   0.812   5.140   2.246 -0.1817  0.3042  0.9497
  866TIP3   OH2 2561   1.058   1.263   1.804  0.0380 -0.2682 -0.3705
  866TIP3    H1 2562   1.108   1.310   1.871  1.6357 -1.0828 -0.9157
  866TIP3    H2 2563   1.029   1.183   1.847 -2.9361  1.2315  0.6450
  867TIP3   OH2 2564   2.441   1.264   2.314 -0.2675 -0.3236  0.0626
  867TIP3    H1 2565   2.477   1.333   2.371 -0.4549 -0.0888 -0.1002
  867TIP3    H2 2566   2.490   1.272   2.232  0.5290 -1.1565  0.4409
  868TIP3   OH2 2567   3.741   0.623   1.043  0.0665  0.4095 -0.6385
  868TIP3    H1 2568   3.761   0.530   1.031 -1.3557 -0.3717  2.2136
  868TIP3    H2 2569   3.648   0.630   1.024  0.1835  1.2879 -0.9236
  869TIP3   OH2 2570   0.613   6.256   4.024  0.0554  0.2178  0.1755
  869TIP3    H1 2571   0.568   6.268   3.941  0.4270  1.3963  0.1131
  869TIP3    H2 2572   0.584   6.330   4.078  1.3673  0.6474  0.3519
  870TIP3   OH2 2573   6.798   0.896   5.691 -0.7279 -0.7322  0.0622
  870TIP3    H1 2574   6.827   0.955   5.761  0.7144 -0.6848 -0.5266
  870TIP3    H2 2575   6.708   0.923   5.672 -0.9592 -0.4062  1.5245
  871TIP3   OH2 2576   3.980   5.257   5.494  0.0228  0.1022  0.4972
  871TIP3    H1 2577   3.962   5.299   5.578  0.2986 -0.4176  0.8229
  871TIP3    H2 2578   4.072   5.276   5.476  0.1634 -0.3900  0.6708
  872TIP3   OH2 2579   6.782   3.745   2.131  0.5723  0.1555  0.1157
  872TIP3    H1 2580   6.780   3.656   2.096 -0.0876  0.0372  0.4334
  872TIP3    H2 2581   6.866   3.781   2.102  0.5476 -0.3365 -0.5811
  873TIP3   OH2 2582   1.335   3.104   5.144 -0.1995 -0.2704  0.3805
  873TIP3    H1 2583   1.382   3.135   5.067  0.0751  0.4091  0.8158
  873TIP3    H2 2584   1.399   3.053   5.193 -0.8423 -2.2154 -0.6971
  874TIP3   OH2 2585   4.610   2.289   5.412  0.1789 -0.5721  0.3432
  874TIP3    H1 2586   4.679   2.233   5.449  0.5772  0.0475  0.5516
  874TIP3    H2 2587   4.657   2.366   5.380 -0.3243 -0.5153 -0.2619
  875TIP3   OH2 2588   5.839   1.192   0.087  0.2574  0.0347  0.1406
  875TIP3    H1 2589   5.793   1.207   0.004 -0.2269 -1.6863  0.0543
  875TIP3    H2 2590   5.805   1.108   0.118  1.9103 -0.3286  1.0761
  876TIP3   OH2 2591   1.780   6.602   2.864  0.2516  0.1860 -0.1828
  876TIP3    H1 2592   1.821   6.687   2.881  0.4122  0.2234 -0.7214
  876TIP3    H2 2593   1.687   6.616   2.880  0.5273 -0.1058  1.8322
  877TIP3   OH2 2594   4.538   2.795   3.888 -0.0116  0.2261  0.1415
  877TIP3    H1 2595   4.493   2.821   3.808  0.0385 -1.4237 -0.4639
  877TIP3    H2 2596   4.468   2.779   3.951 -0.0396  1.7807  0.5409
  878TIP3   OH2 2597   4.556   0.256   3.242 -0.6581  0.2577  0.0571
  878TIP3    H1 2598   4.551   0.282   3.334 -0.3962 -2.0407  0.7849
  878TIP3    H2 2599   4.496   0.181   3.235  1.1457 -1.1729 -1.0155
  879TIP3   OH2 2600   6.892   4.932   2.547  0.0462 -0.1375 -0.2679
  879TIP3    H1 2601   6.850   4.968   2.624 -1.0666 -1.4040 -0.2515
  879TIP3    H2 2602   6.823   4.928   2.481  0.4280 -1.0792 -0.6390
  880TIP3   OH2 2603   5.108   2.113   2.303 -0.8941  0.5494  0.0478
  880TIP3    H1 2604   5.114   2.077   2.215 -1.6018  2.5613 -0.8861
  880TIP3    H2 2605   5.173   2.184   2.304  1.0881 -1.1243  2.0946
  881TIP3   OH2 2606   4.315   5.246   1.904  0.1822  0.5226  0.3222
  881TIP3    H1 2607   4.283   5.187   1.972  0.5947 -1.4103 -1.0782
  881TIP3    H2 2608   4.405   5.265   1.929 -0.3234  1.5809  1.4161
  882TIP3   OH2 2609   1.856   3.467   5.748  0.0112  0.5122 -0.5691
  882TIP3    H1 2610   1.868   3.558   5.774  2.0812 -0.1645  1.1763
  882TIP3    H2 2611   1.912   3.417   5.808 -1.3224 -1.9586 -1.2176
  883TIP3   OH2 2612   5.348   6.430   1.476 -0.5491 -0.9125  0.1681
  883TIP3    H1 2613   5.342   6.349   1.426 -1.4315  0.0255 -1.3210
  883TIP3    H2 2614   5.290   6.416   1.551 -1.5670 -1.2847 -0.6596
  884TIP3   OH2 2615   0.861   2.875   3.848 -0.3781 -0.0466  0.8628
  884TIP3    H1 2616   0.774   2.863   3.810  0.8306 -0.4134 -2.0597
  884TIP3    H2 2617   0.866   2.811   3.919 -2.1483 -0.6685  0.4697
  885TIP3   OH2 2618   0.056   0.972   1.988  0.1117  0.2220 -0.3339
  885TIP3    H1 2619   0.138   0.996   2.030 -0.0420 -2.2869  1.7060
  885TIP3    H2 2620   0.000   1.049   1.999  1.2438  0.9000  1.0303
  886TIP3   OH2 2621   1.825   2.238   2.606  0.3791  0.7549  0.1876
  886TIP3    H1 2622   1.906   2.199   2.641 -0.3812 -1.6689 -0.5510
  886TIP3    H2 2623   1.758   2.214   2.670 -0.1398  0.7529 -0.3521
  887TIP3   OH2 2624   0.110   0.885   3.152  0.6070  0.8010  0.5355
  887TIP3    H1 2625   0.162   0.848   3.224  0.5365  2.6528  1.6198
  887TIP3    H2 2626   0.024   0.899   3.191 -1.5691 -3.9954 -1.7314
  888TIP3   OH2 2627   5.068   2.712   2.158 -0.3402  0.2836  0.0978
  888TIP3    H1 2628   5.122   2.775   2.205  0.3688 -0.0682 -0.2327
  888TIP3    H2 2629   5.040   2.650   2.226  2.4220 -1.4560 -0.2080
  889TIP3   OH2 2630   1.578   1.698   5.230 -0.2354 -0.5683 -0.5870
  889TIP3    H1 2631   1.641   1.761   5.267  0.6264 -1.7766  0.0731
  889TIP3    H2 2632   1.547   1.739   5.150 -1.3416  1.6761  0.8879
  890TIP3   OH2 2633   0.364   3.521   1.500  0.4175  0.1785  0.0733
  890TIP3    H1 2634   0.386   3.431   1.522 -4.8122 -1.4381  0.1107
  890TIP3    H2 2635   0.348   3.519   1.406  0.5857  1.2104  0.0123
  891TIP3   OH2 2636   3.009   4.092   3.109  0.0897  0.5926 -0.4278
  891TIP3    H1 2637   3.104   4.094   3.119  0.0724 -0.3337 -0.0334
  891TIP3    H2 2638   2.977   4.160   3.168  0.4668  0.3905  0.0184
  892TIP3   OH2 2639   0.266   1.980   0.935  0.2741 -0.2398 -0.0789
  892TIP3    H1 2640   0.181   1.972   0.892 -0.4484  1.4173  0.9604
  892TIP3    H2 2641   0.322   2.021   0.869 -0.4085  0.8560 -0.0045
  893TIP3   OH2 2642   3.501   1.195   1.134  0.4279 -0.3611 -0.2206
  893TIP3    H1 2643   3.562   1.220   1.064 -0.4443 -1.0173 -1.2454
  893TIP3    H2 2644   3.555   1.193   1.213  1.3122  1.0301 -0.7390
  894TIP3   OH2 2645   5.733   3.143   3.042  0.0854 -0.3739  0.4464
  894TIP3    H1 2646   5.767   3.233   3.034 -1.8844  0.4686  0.9902
  894TIP3    H2 2647   5.810   3.090   3.060  1.4660  1.0321 -0.9673
  895TIP3   OH2 2648   6.802   0.198   5.214 -0.7109  0.1985  0.1436
  895TIP3    H1 2649   6.890   0.162   5.224 -0.2685  1.2517  0.1992
  895TIP3    H2 2650   6.752   0.160   5.286 -0.9433 -2.2335 -1.2287
  896TIP3   OH2 2651   6.868   1.222   3.391 -0.1017 -0.4413 -0.0954
  896TIP3    H1 2652   6.852   1.306   3.434 -1.2672 -1.0101  0.6496
  896TIP3    H2 2653   6.962   1.208   3.398 -0.2621 -0.6566  2.5967
  897TIP3   OH2 2654   4.661   6.718   1.092  0.3414  0.6975 -0.7119
  897TIP3    H1 2655   4.608   6.797   1.102 -2.6580 -1.3725  1.5320
  897TIP3    H2 2656   4.642   6.688   1.003  0.4621  1.7620 -1.1173
  898TIP3   OH2 2657   3.664   1.433   3.453  0.1860  0.3807  0.3685
  898TIP3    H1 2658   3.581   1.473   3.427  1.5322  1.7419 -2.1950
  898TIP3    H2 2659   3.713   1.504   3.494  0.9562  0.2527 -0.3055
  899TIP3   OH2 2660   2.582   2.151   0.628 -0.0020 -0.2710 -0.4148
  899TIP3    H1 2661   2.665   2.191   0.653  1.0670 -2.6466  0.0427
  899TIP3    H2 2662   2.516   2.197   0.680  1.2366  0.4334  0.5693
  900TIP3   OH2 2663   1.170   5.632   3.325 -0.2244 -0.1528  0.3676
  900TIP3    H1 2664   1.134   5.679   3.250 -0.4944  0.0229  0.6066
  900TIP3    H2 2665   1.174   5.698   3.395  1.8738  0.2254 -0.0361
  901TIP3   OH2 2666   1.821   6.421   4.311 -0.2279 -0.0930  0.2040
  901TIP3    H1 2667   1.731   6.400   4.288 -0.5814  3.0818 -1.8574
  901TIP3    H2 2668   1.873   6.396   4.235  0.4399 -0.4258  0.7476
  902TIP3   OH2 2669   5.260   4.436   0.526 -0.0403 -0.5537 -0.7305
  902TIP3    H1 2670   5.336   4.460   0.473  0.0229  0.6924 -0.1096
  902TIP3    H2 2671   5.187   4.482   0.484 -0.0121  0.3334  0.1682
  903TIP3   OH2 2672   3.463   4.390   4.164  0.0529 -0.1161 -0.2756
  903TIP3    H1 2673   3.531   4.457   4.160 -0.9355  0.9418  0.1779
  903TIP3    H2 2674   3.391   4.431   4.212 -1.6253 -0.5575 -2.2925
  904TIP3   OH2 2675   5.573   0.014   1.030  0.6014  0.1995 -0.1300
  904TIP3    H1 2676   5.568   0.073   1.106 -0.9594 -0.2565  0.1431
  904TIP3    H2 2677   5.663   0.026   0.998  1.3836  0.2391  1.9001
  905TIP3   OH2 2678   5.619   1.788   4.417  0.4314 -0.6612  0.2486
  905TIP3    H1 2679   5.554   1.844   4.373  0.2976 -1.0800 -0.1041
  905TIP3    H2 2680   5.703   1.824   4.391  0.3458 -0.6108  0.0368
  906TIP3   OH2 2681   3.994   3.438   4.216  0.2255 -0.7430  0.1308
  906TIP3    H1 2682   4.072   3.470   4.261 -0.4527  0.7299  0.3102
  906TIP3    H2 2683   4.021   3.428   4.125  0.3340  0.9303 -0.0488
  907TIP3   OH2 2684   5.248   0.533   4.074  0.4042  0.2433  0.1561
  907TIP3    H1 2685   5.288   0.470   4.135  0.1503  0.8194  0.9413
  907TIP3    H2 2686   5.172   0.567   4.122 -0.3195  0.0669 -0.8382
  908TIP3   OH2 2687   0.101   4.350   4.318  0.0798  0.3656  0.4028
  908TIP3    H1 2688   0.035   4.364   4.250 -1.1716  1.7623  1.8557
  908TIP3    H2 2689   0.154   4.429   4.316 -0.9199  1.1087  2.0539
  909TIP3   OH2 2690   4.687   5.233   1.688  0.5442  0.3311  0.0625
  909TIP3    H1 2691   4.719   5.247   1.599  1.2173  0.4507  0.3184
  909TIP3    H2 2692   4.601   5.193   1.676 -0.0627  1.7588 -0.6736
  910TIP3   OH2 2693   0.183   3.685   4.789  0.6338  0.0438  0.0756
  910TIP3    H1 2694   0.269   3.651   4.816 -0.1079 -1.4517  0.6567
  910TIP3    H2 2695   0.122   3.647   4.851 -0.2222  3.1147  1.2678
  911TIP3   OH2 2696   0.874   6.822   4.038  0.3352 -0.0715  0.3691
  911TIP3    H1 2697   0.926   6.815   4.118  0.6642  0.1298  0.1771
  911TIP3    H2 2698   0.878   6.735   3.999 -0.4206 -0.3660  0.9301
  912TIP3   OH2 2699   2.738   3.198   0.713 -0.5518  0.3792  0.1236
  912TIP3    H1 2700   2.761   3.139   0.641  1.0413  0.3016  0.6473
  912TIP3    H2 2701   2.657   3.162   0.748 -0.8713 -0.1038 -1.0545
  913TIP3   OH2 2702   4.981   0.992   5.230 -0.5198  0.1723  0.4906
  913TIP3    H1 2703   5.008   0.936   5.157  0.8215  0.3010  0.8594
  913TIP3    H2 2704   5.036   0.964   5.303 -0.8107  1.0353  1.0484
  914TIP3   OH2 2705   6.743   5.318   4.372  0.3621 -0.2876  0.3156
  914TIP3    H1 2706   6.761   5.373   4.448 -1.0564 -0.1747  0.6014
  914TIP3    H2 2707   6.674   5.259   4.401 -1.1036  0.5762 -1.2287
  915TIP3   OH2 2708   0.122   1.140   5.087 -0.5397  0.3899  0.3728
  915TIP3    H1 2709   0.073   1.207   5.040 -0.2089  0.7792  0.5803
  915TIP3    H2 2710   0.159   1.085   5.018  0.2184  1.1506  0.1619
  916TIP3   OH2 2711   7.108   0.622   2.293 -0.4218 -0.2281  0.6863
  916TIP3    H1 2712   7.073   0.545   2.337  0.7434 -0.7982  0.6507
  916TIP3    H2 2713   7.075   0.696   2.345 -1.9638 -0.6977  0.4223
  917TIP3   OH2 2714   5.562   4.986   3.925  0.0213 -0.1993 -0.4055
  917TIP3    H1 2715   5.599   5.073   3.939 -0.9427  0.1196  0.2382
  917TIP3    H2 2716   5.602   4.932   3.993  0.4578 -0.2295 -0.6744
  918TIP3   OH2 2717   2.176   5.606   0.647  0.0242  0.3592  0.4043
  918TIP3    H1 2718   2.178   5.701   0.637  0.7922  0.1889 -1.5709
  918TIP3    H2 2719   2.093   5.579   0.607  1.1622  0.0161 -1.9323
  919TIP3   OH2 2720   0.693   0.992   4.583  0.4365  0.6045 -1.0127
  919TIP3    H1 2721   0.671   1.046   4.659  0.5647  0.8730 -1.1627
  919TIP3    H2 2722   0.767   1.038   4.542  1.3882 -0.3467 -0.4325
  920TIP3   OH2 2723   0.216   4.373   1.457  0.1528 -0.1281 -0.0336
  920TIP3    H1 2724   0.262   4.429   1.395  1.4042  0.1672  1.1144
  920TIP3    H2 2725   0.133   4.352   1.414  1.2217 -0.4308 -2.0503
  921TIP3   OH2 2726   6.859   2.815   0.248  0.4798  0.4680  0.2794
  921TIP3    H1 2727   6.918   2.828   0.174 -1.1292 -0.1968 -1.1945
  921TIP3    H2 2728   6.821   2.728   0.233  1.1358 -0.3223  2.6762
  922TIP3   OH2 2729   6.592   0.038   3.622 -0.0825  0.3409 -0.2030
  922TIP3    H1 2730   6.630  -0.043   3.587 -1.1009 -0.0139 -0.5258
  922TIP3    H2 2731   6.498   0.021   3.623 -0.2074  1.0481  0.9729
  923TIP3   OH2 2732   4.689   6.053   5.428  0.0355  0.5089  0.1050
  923TIP3    H1 2733   4.717   6.065   5.338  0.3780  1.4759  0.3330
  923TIP3    H2 2734   4.596   6.030   5.422  0.0789  0.4820 -0.4923
  924TIP3   OH2 2735   4.270  -0.014   0.067 -0.3689  0.0036  0.3268
  924TIP3    H1 2736   4.187   0.015   0.029  1.2118  2.1153 -1.8165
  924TIP3    H2 2737   4.329   0.060   0.055  2.6346 -2.3786 -0.9990
  925TIP3   OH2 2738   6.312   2.334   4.106  0.3766  0.3714 -0.1372
  925TIP3    H1 2739   6.342   2.247   4.131  1.3883  0.6960 -0.1827
  925TIP3    H2 2740   6.392   2.385   4.092 -0.1074  2.1982  2.8800
  926TIP3   OH2 2741   0.387   2.693   0.138  0.3070  0.0868 -0.0507
  926TIP3    H1 2742   0.433   2.682   0.222 -0.3046  1.6856  0.5418
  926TIP3    H2 2743   0.301   2.653   0.152 -0.6188  2.2216  0.9051
  927TIP3   OH2 2744   7.151   3.638   1.688  0.1358 -0.4850  0.2977
  927TIP3    H1 2745   7.143   3.727   1.722  1.7199  0.5962 -1.9369
  927TIP3    H2 2746   7.214   3.596   1.747  0.9286  0.5371  0.2055
  928TIP3   OH2 2747   6.938   0.421   1.665  0.1682 -0.5865 -0.6056
  928TIP3    H1 2748   7.024   0.431   1.705  0.2295 -0.5427 -0.7494
  928TIP3    H2 2749   6.886   0.493   1.701 -0.5286 -1.9781  1.3745
  929TIP3   OH2 2750   1.149   2.490   1.655 -0.2647  0.3929 -0.5975
  929TIP3    H1 2751   1.121   2.567   1.705  0.2411 -0.4041  0.9746
  929TIP3    H2 2752   1.243   2.500   1.645  0.1050 -0.8404  1.1802
  930TIP3   OH2 2753   2.298   0.907   5.570 -0.1025 -0.2626 -0.3788
  930TIP3    H1 2754   2.348   0.987   5.554 -0.3961  0.0507  0.2149
  930TIP3    H2 2755   2.212   0.938   5.600 -1.1441 -0.7458 -2.6352
  931TIP3   OH2 2756   2.886   2.134   4.058 -0.2444  0.0093  0.2059
  931TIP3    H1 2757   2.809   2.186   4.033 -0.7483 -1.6598 -2.0911
  931TIP3    H2 2758   2.929   2.114   3.974  0.1875 -2.7838  0.9915
  932TIP3   OH2 2759   4.125   1.152   0.638  0.4869  0.0639  0.6676
  932TIP3    H1 2760   4.079   1.225   0.597 -0.9573 -0.0681  1.9415
  932TIP3    H2 2761   4.122   1.172   0.732  0.9040 -1.1678  0.9643
  933TIP3   OH2 2762   6.252   1.997   0.353  0.7993  0.7820 -1.2265
  933TIP3    H1 2763   6.275   2.059   0.423 -3.5102 -0.7060  1.9383
  933TIP3    H2 2764   6.200   2.048   0.291  1.9374  1.4214 -1.6865
  934TIP3   OH2 2765   6.495   5.113   2.244  0.3756 -0.0765  0.3666
  934TIP3    H1 2766   6.437   5.124   2.169 -1.4552 -1.8361  1.4399
  934TIP3    H2 2767   6.503   5.201   2.281 -1.0529  0.3205 -0.2066
  935TIP3   OH2 2768   3.498   0.204   1.718 -0.0744  0.5536 -0.0231
  935TIP3    H1 2769   3.586   0.241   1.723  0.6371 -1.1045  0.3977
  935TIP3    H2 2770   3.456   0.230   1.801  0.6939 -0.2187  0.6296
  936TIP3   OH2 2771   5.989   5.421   5.419  0.2182  0.0971  0.1575
  936TIP3    H1 2772   5.911   5.365   5.417 -0.2499  0.7452 -0.2392
  936TIP3    H2 2773   6.016   5.422   5.511  0.0889 -0.5719  0.2100
  937TIP3   OH2 2774   6.050   1.984   2.470  0.1669 -0.4991 -0.1867
  937TIP3    H1 2775   5.972   1.969   2.523 -0.0369  1.0202 -0.0076
  937TIP3    H2 2776   6.100   2.050   2.518  0.5122  0.1095 -1.3264
  938TIP3   OH2 2777   0.446   1.139   0.932 -0.4567  0.3027 -0.0838
  938TIP3    H1 2778   0.357   1.105   0.936 -0.0013 -0.9079  0.2848
  938TIP3    H2 2779   0.437   1.226   0.894 -1.7612  0.0828 -0.3224
  939TIP3   OH2 2780   1.239   3.075   4.577 -0.3600  0.0097 -0.2322
  939TIP3    H1 2781   1.221   3.054   4.486  0.9624  1.9049 -0.9770
  939TIP3    H2 2782   1.278   3.162   4.575 -1.6272  0.7307  2.2842
  940TIP3   OH2 2783   3.042   5.752   3.764  0.2913 -0.5019 -0.1240
  940TIP3    H1 2784   3.078   5.691   3.700  1.0860 -1.2065  0.9414
  940TIP3    H2 2785   3.072   5.838   3.736 -0.3707 -0.6377 -1.3351
  941TIP3   OH2 2786   4.476   0.638   2.418  0.9907  1.1367  0.0566
  941TIP3    H1 2787   4.444   0.727   2.429  0.5290  0.9457  0.2809
  941TIP3    H2 2788   4.567   0.641   2.449  0.6154  1.2659  1.1934
  942TIP3   OH2 2789   0.180   5.670   5.599  0.0605 -0.3167  0.2366
  942TIP3    H1 2790   0.163   5.630   5.513  0.9349 -0.9654  0.3464
  942TIP3    H2 2791   0.116   5.630   5.657 -1.7210  1.4214 -0.4239
  943TIP3   OH2 2792   0.263   3.060   2.865 -0.5046 -0.4129  0.2893
  943TIP3    H1 2793   0.351   3.029   2.886  1.2163  2.4313 -1.9742
  943TIP3    H2 2794   0.232   3.103   2.945  0.4277 -0.8904  0.9170
  944TIP3   OH2 2795   5.533   1.550   3.150  0.1025 -0.1826 -0.1785
  944TIP3    H1 2796   5.480   1.498   3.211 -0.3747 -1.5129 -1.6737
  944TIP3    H2 2797   5.471   1.610   3.109  0.3265  0.3489  0.2512
  945TIP3   OH2 2798   0.009   6.332   5.033  0.3938  0.1021 -0.6200
  945TIP3    H1 2799   0.100   6.340   5.062  0.7269  0.7516 -1.7998
  945TIP3    H2 2800  -0.009   6.238   5.040  0.6829  0.1257  0.9438
  946TIP3   OH2 2801   2.915   0.810   5.141 -0.0105 -0.0643  0.4431
  946TIP3    H1 2802   2.831   0.764   5.149  0.2999 -0.6260  0.5028
  946TIP3    H2 2803   2.900   0.894   5.185 -0.4770 -0.2505  0.6472
  947TIP3   OH2 2804   0.952   6.113   1.361 -0.1800 -0.2939  0.2890
  947TIP3    H1 2805   0.966   6.178   1.292 -0.9323 -0.7455 -0.2998
  947TIP3    H2 2806   0.861   6.085   1.350  0.5355 -2.5505 -0.4505
  948TIP3   OH2 2807   0.574   1.979   1.718  0.0384  0.8324  0.4311
  948TIP3    H1 2808   0.603   1.905   1.773  1.2277  0.9149 -0.0638
  948TIP3    H2 2809   0.655   2.015   1.682 -0.6809  1.0879 -0.9959
  949TIP3   OH2 2810   1.338   0.467   3.354  0.2324 -0.4491 -0.0448
  949TIP3    H1 2811   1.247   0.446   3.372  0.2073 -1.4915 -1.2371
  949TIP3    H2 2812   1.373   0.388   3.314  1.4452  0.2227 -0.3554
  950TIP3   OH2 2813   3.955   3.062   2.423 -0.3463 -0.3103  0.0859
  950TIP3    H1 2814   3.974   3.124   2.353 -1.2998  0.0894  0.1626
  950TIP3    H2 2815   4.007   2.985   2.402 -1.3075 -0.5489 -1.5813
  951TIP3   OH2 2816   6.674   1.597   4.967 -0.3606 -0.5168 -0.2418
  951TIP3    H1 2817   6.689   1.513   4.924 -1.0831 -1.0678  0.5380
  951TIP3    H2 2818   6.750   1.608   5.025 -1.4549 -1.9285  1.5896
  952TIP3   OH2 2819   3.425   3.813   3.283 -0.0945  0.2394  0.1443
  952TIP3    H1 2820   3.400   3.756   3.210  0.7723 -0.8788  0.6881
  952TIP3    H2 2821   3.348   3.813   3.340 -0.1880 -0.2213  0.0270
  953TIP3   OH2 2822   5.192   2.807   0.549  0.8458  0.0894  0.0817
  953TIP3    H1 2823   5.226   2.867   0.482 -0.5181  0.6864 -0.1252
  953TIP3    H2 2824   5.210   2.720   0.515  0.5452  0.3880 -0.8839
  954TIP3   OH2 2825   4.254   4.376   0.732  0.2860 -0.1378 -0.3062
  954TIP3    H1 2826   4.262   4.299   0.790  0.5099  0.6604  0.7513
  954TIP3    H2 2827   4.200   4.345   0.660 -1.9790 -0.5886  1.4510
  955TIP3   OH2 2828   4.750   1.581   3.827  0.1708  0.2726 -0.0382
  955TIP3    H1 2829   4.742   1.674   3.804 -1.2029  0.0597 -0.5522
  955TIP3    H2 2830   4.728   1.577   3.920  0.2395  0.4618 -0.0131
  956TIP3   OH2 2831   2.147   1.055   5.857 -0.1537  0.2820  0.6999
  956TIP3    H1 2832   2.071   1.103   5.824  0.4704 -0.1258 -1.4886
  956TIP3    H2 2833   2.112   0.969   5.881 -0.6799  0.6960  1.4679
  957TIP3   OH2 2834   0.202   0.038   4.593  0.1150 -0.0335  0.4987
  957TIP3    H1 2835   0.153   0.102   4.646  1.6383  1.4809  0.1541
  957TIP3    H2 2836   0.243  -0.020   4.657  0.9365  1.0249  0.9566
  958TIP3   OH2 2837   5.456   4.542   0.052 -0.0860 -0.4610 -0.1828
  958TIP3    H1 2838   5.529   4.484   0.076 -0.6633 -1.7980 -1.5160
  958TIP3    H2 2839   5.494   4.603  -0.011  0.0095 -0.8458 -0.5058
  959TIP3   OH2 2840  -0.028   1.298   2.255 -0.8019 -0.0174  0.3673
  959TIP3    H1 2841   0.042   1.240   2.225 -0.3538  0.3155  0.7463
  959TIP3    H2 2842   0.004   1.334   2.338 -1.9988 -0.8897  1.2603
  960TIP3   OH2 2843   2.102   4.299   4.134  0.0789 -0.5452  0.9740
  960TIP3    H1 2844   2.083   4.284   4.041 -0.7349  0.8019  0.8974
  960TIP3    H2 2845   2.181   4.353   4.133 -0.6957  0.6168  0.9964
  961TIP3   OH2 2846   6.236   0.047   0.523  0.2858 -0.9927 -0.1668
  961TIP3    H1 2847   6.164   0.051   0.586 -0.4381  1.8556 -1.0501
  961TIP3    H2 2848   6.210  -0.022   0.462 -1.0976 -0.8659  0.2340
  962TIP3   OH2 2849   5.036   1.616   0.583  0.1994 -0.5310 -0.3640
  962TIP3    H1 2850   5.053   1.538   0.635  0.7022  0.6089  1.2302
  962TIP3    H2 2851   4.950   1.600   0.544  0.8081 -2.3810 -1.0769
  963TIP3   OH2 2852   3.052   0.050   2.192 -0.8374  0.0618 -0.3978
  963TIP3    H1 2853   3.138   0.013   2.211 -0.8522 -0.4681 -1.2877
  963TIP3    H2 2854   3.064   0.098   2.110 -2.2676 -3.6015 -3.0245
  964TIP3   OH2 2855   3.816   3.169   2.868  0.1408 -0.2742  0.0531
  964TIP3    H1 2856   3.724   3.184   2.891 -0.3288 -1.3094 -1.0120
  964TIP3    H2 2857   3.829   3.220   2.788  0.6616  0.2726  0.4714
  965TIP3   OH2 2858   1.738   6.183   0.510 -0.0056 -0.1202  0.8873
  965TIP3    H1 2859   1.696   6.236   0.578 -1.2176  0.1030  0.0094
  965TIP3    H2 2860   1.697   6.097   0.518 -0.1476 -0.0962  0.4745
  966TIP3   OH2 2861   4.892   0.889   5.542 -0.2362 -0.8645  0.1602
  966TIP3    H1 2862   4.868   0.797   5.539  1.5871 -1.3570 -0.7379
  966TIP3    H2 2863   4.981   0.890   5.576 -0.0850  0.5491 -0.1818
  967TIP3   OH2 2864   6.341   4.107   1.282 -0.1042 -0.6760  0.3110
  967TIP3    H1 2865   6.404   4.055   1.231  0.4428  0.1271  0.1480
  967TIP3    H2 2866   6.349   4.074   1.371 -0.0695 -1.1664  0.1268
  968TIP3   OH2 2867   5.369   1.996   2.929 -0.3096 -0.2212  0.1698
  968TIP3    H1 2868   5.337   2.079   2.896 -1.7859 -0.4855  0.8640
  968TIP3    H2 2869   5.345   1.932   2.862  1.0212 -0.0787 -0.4673
  969TIP3   OH2 2870   6.894   6.324   3.378  0.5699 -0.3846  0.6312
  969TIP3    H1 2871   6.907   6.384   3.304 -0.0691  0.9005  1.5365
  969TIP3    H2 2872   6.830   6.261   3.346 -0.1828  0.5386  0.2800
  970TIP3   OH2 2873   1.509   3.401   5.359  0.6554  0.2443 -0.2705
  970TIP3    H1 2874   1.476   3.311   5.355  0.7020  0.2617 -1.5342
  970TIP3    H2 2875   1.577   3.399   5.426  1.3509 -0.9076 -0.9660
  971TIP3   OH2 2876   4.577   5.913   4.567  0.1298 -0.5693  0.0446
  971TIP3    H1 2877   4.656   5.959   4.540  0.5796 -1.3308  0.0629
  971TIP3    H2 2878   4.510   5.940   4.504  0.4354 -0.0379 -0.0528
  972TIP3   OH2 2879   3.526   5.811   4.328  0.1175  0.3765 -0.4163
  972TIP3    H1 2880   3.572   5.727   4.333  0.9571  0.8585  0.3064
  972TIP3    H2 2881   3.455   5.803   4.393  0.2807  0.2659 -0.2496
  973TIP3   OH2 2882   1.658   3.080   2.510 -0.3226 -0.1841 -0.2027
  973TIP3    H1 2883   1.664   3.030   2.429  0.2484  0.3025 -0.4666
  973TIP3    H2 2884   1.627   3.017   2.575 -4.7095  0.1908 -1.5474
  974TIP3   OH2 2885   5.527   3.365   4.357 -0.0789  0.1399 -0.2689
  974TIP3    H1 2886   5.578   3.388   4.280 -1.5867 -0.3855 -1.4793
  974TIP3    H2 2887   5.444   3.412   4.346 -0.7217 -0.7769  0.4676
  975TIP3   OH2 2888   4.818   5.441   0.507  0.2599  0.1319 -0.7519
  975TIP3    H1 2889   4.730   5.431   0.471  0.3974 -2.5061 -0.5677
  975TIP3    H2 2890   4.873   5.463   0.432 -0.0073 -1.8163 -1.5632
  976TIP3   OH2 2891   6.166   1.421   0.476  0.0833 -0.5080  0.7050
  976TIP3    H1 2892   6.225   1.399   0.548  1.0922 -1.1981 -0.2964
  976TIP3    H2 2893   6.138   1.336   0.441  0.2847 -0.1893 -0.2551
  977TIP3   OH2 2894   3.181   6.575   2.143  0.3264  0.2802 -0.4556
  977TIP3    H1 2895   3.101   6.579   2.194 -0.8181  0.6840 -2.1746
  977TIP3    H2 2896   3.185   6.485   2.110  0.3559  0.3705 -0.7026
  978TIP3   OH2 2897   2.253   6.266   4.191  1.1900  0.4743 -0.3576
  978TIP3    H1 2898   2.242   6.333   4.258  1.4135  0.9577 -0.7910
  978TIP3    H2 2899   2.347   6.269   4.170  1.1841  0.0868 -0.4398
  979TIP3   OH2 2900   5.893   5.416   5.756  0.2048  0.2749  0.0007
  979TIP3    H1 2901   5.837   5.425   5.833  0.7807  0.3596  0.4158
  979TIP3    H2 2902   5.847   5.355   5.699  0.1750 -0.4433  0.7827
  980TIP3   OH2 2903   0.452   2.522   5.122  0.1232  0.2305 -0.0252
  980TIP3    H1 2904   0.503   2.481   5.052  0.4982  0.0296  0.3595
  980TIP3    H2 2905   0.489   2.485   5.203  0.6329  1.5055  0.3459
  981TIP3   OH2 2906   5.044   5.784   3.122 -0.0561 -0.0662 -0.2696
  981TIP3    H1 2907   4.967   5.804   3.176 -1.2659 -0.4371 -1.7774
  981TIP3    H2 2908   5.032   5.838   3.044  1.4961  0.2256 -0.3391
  982TIP3   OH2 2909   6.213   2.494   4.836 -0.7225 -0.1661 -0.3446
  982TIP3    H1 2910   6.127   2.453   4.842 -0.7157 -0.0426  0.7576
  982TIP3    H2 2911   6.263   2.455   4.907 -0.7193  1.7288  0.7560
  983TIP3   OH2 2912   4.878   1.321   2.405  0.9504  0.6150 -0.3049
  983TIP3    H1 2913   4.851   1.401   2.451  2.0717  0.1985  1.1468
  983TIP3    H2 2914   4.866   1.342   2.312  0.9807  2.3765  0.0526
  984TIP3   OH2 2915   4.808   4.886   2.804  0.3948 -0.5780 -0.4653
  984TIP3    H1 2916   4.902   4.879   2.823  0.2284 -0.2060  0.5584
  984TIP3    H2 2917   4.789   4.980   2.814 -0.6471 -0.9884  2.2471
  985TIP3   OH2 2918   4.770   0.112   5.508 -0.1780 -0.2314  0.7418
  985TIP3    H1 2919   4.821   0.116   5.427  1.3953  0.0142  1.6842
  985TIP3    H2 2920   4.706   0.182   5.500  1.4518  1.3113  0.6357
  986TIP3   OH2 2921   1.878   3.851   1.361 -0.2224  0.0322 -0.1823
  986TIP3    H1 2922   1.895   3.885   1.449 -1.2583  2.7169 -0.9327
  986TIP3    H2 2923   1.963   3.854   1.318  0.3518 -1.5677  0.7552
  987TIP3   OH2 2924   2.333   0.557   3.944 -0.7186  0.0749 -0.9290
  987TIP3    H1 2925   2.316   0.470   3.908  1.0681 -0.0050 -1.7286
  987TIP3    H2 2926   2.279   0.562   4.022 -0.0339 -2.2135 -0.2154
  988TIP3   OH2 2927   5.266   5.773   2.521 -0.1189 -0.0269 -0.2134
  988TIP3    H1 2928   5.227   5.859   2.538  0.9732  0.7521 -1.4140
  988TIP3    H2 2929   5.214   5.737   2.449 -1.1667 -0.8148  0.9050
  989TIP3   OH2 2930   2.589   5.539   1.442  0.2238 -0.0445 -0.0536
  989TIP3    H1 2931   2.530   5.612   1.427  1.5358  0.9643 -0.5503
  989TIP3    H2 2932   2.540   5.478   1.498 -1.4267  0.5003 -0.8695
  990TIP3   OH2 2933   0.098   5.793   1.834 -0.2841 -0.0854 -0.8021
  990TIP3    H1 2934   0.014   5.838   1.821  1.3544  2.8470 -2.0185
  990TIP3    H2 2935   0.134   5.831   1.913  0.8484  0.3041 -1.4837
  991TIP3   OH2 2936   7.200   5.185   2.636  0.0397  0.8295 -0.4808
  991TIP3    H1 2937   7.196   5.245   2.710  0.6758  0.8623 -0.4688
  991TIP3    H2 2938   7.150   5.228   2.567 -0.0011  1.1022 -0.2826
  992TIP3   OH2 2939   2.087   1.494   4.388  1.0117  0.2108  0.4706
  992TIP3    H1 2940   2.051   1.428   4.448 -0.7054  0.5651 -0.1055
  992TIP3    H2 2941   2.182   1.491   4.403  0.6073  0.8866  3.7844
  993TIP3   OH2 2942   0.192   4.573   0.801  0.0211  0.0745  0.1595
  993TIP3    H1 2943   0.184   4.641   0.735 -0.5607  0.1850  0.3413
  993TIP3    H2 2944   0.286   4.561   0.812  0.1802  2.1248  1.4497
  994TIP3   OH2 2945   3.761   6.767   3.081 -0.0985 -0.1865  0.2397
  994TIP3    H1 2946   3.788   6.678   3.106 -0.6927 -0.2335  0.7505
  994TIP3    H2 2947   3.666   6.762   3.077 -0.1374  0.4467  0.3384
  995TIP3   OH2 2948   4.273   2.650   1.826 -0.3817  0.4265 -0.4568
  995TIP3    H1 2949   4.346   2.611   1.779 -1.2771  0.6017 -2.0734
  995TIP3    H2 2950   4.291   2.744   1.825 -1.2823  0.6192 -2.1308
  996TIP3   OH2 2951   1.055   1.122   3.719  0.1200 -0.4620 -0.5306
  996TIP3    H1 2952   1.050   1.216   3.702 -2.0709 -0.4121  0.0820
  996TIP3    H2 2953   1.108   1.115   3.799  1.1566  0.1505 -1.1507
  997TIP3   OH2 2954   6.656   5.857   0.936 -0.1248 -0.1375  0.2401
  997TIP3    H1 2955   6.643   5.769   0.901  1.2122 -0.5288  0.6665
  997TIP3    H2 2956   6.603   5.913   0.880  0.6175 -0.9474 -1.3417
  998TIP3   OH2 2957   4.486   0.848  -0.002 -0.2260  0.0330  0.0456
  998TIP3    H1 2958   4.514   0.808   0.080  0.0551  1.0460  0.4591
  998TIP3    H2 2959   4.513   0.940   0.006 -0.0315  0.1031 -1.2507
  999TIP3   OH2 2960   2.000   6.687   1.601 -0.5457 -0.8450  0.3767
  999TIP3    H1 2961   2.000   6.641   1.516  0.8035  0.3551 -0.3067
  999TIP3    H2 2962   1.908   6.706   1.616 -0.6432  1.6180 -2.3937
 1000TIP3   OH2 2963   6.813   4.879   1.296 -0.3756 -0.0433  0.6885
 1000TIP3    H1 2964   6.833   4.796   1.338  1.1906 -0.3330 -0.5299
 1000TIP3    H2 2965   6.717   4.880   1.288 -0.4045 -1.8909  0.4306
 1001TIP3   OH2 2966   5.014   2.921   3.647  0.2054  0.0697 -0.3248
 1001TIP3    H1 2967   5.020   3.016   3.653  0.8692 -0.0232  0.5239
 1001TIP3    H2 2968   5.105   2.891   3.643  0.0030 -0.5348 -0.4987
 1002TIP3   OH2 2969   2.989   1.877   0.924 -0.1310 -0.0504 -0.5620
 1002TIP3    H1 2970   2.942   1.930   0.860 -1.9471 -1.1913 -0.2583
 1002TIP3    H2 2971   2.943   1.793   0.923  1.1152 -0.7897  0.7323
 1003TIP3   OH2 2972   5.499   4.524   3.187 -0.3453 -0.1453 -0.0592
 1003TIP3    H1 2973   5.565   4.503   3.121  0.0447  1.0678 -0.0791
 1003TIP3    H2 2974   5.517   4.615   3.211 -0.4950 -0.5500  1.7020
 1004TIP3   OH2 2975   2.473   1.420   5.578  0.5319  0.1366 -0.2751
 1004TIP3    H1 2976   2.518   1.403   5.495 -0.1872 -0.7679 -0.4990
 1004TIP3    H2 2977   2.542   1.414   5.644  0.7929 -1.1096 -0.6253
 1005TIP3   OH2 2978   0.351   1.380   4.155 -0.8327 -0.0959  0.0583
 1005TIP3    H1 2979   0.426   1.434   4.181 -1.1116  0.4301 -0.2033
 1005TIP3    H2 2980   0.358   1.302   4.209 -0.5757  0.3272  0.6530
 1006TIP3   OH2 2981   4.701   4.673   4.493  0.4606  0.5950 -0.8902
 1006TIP3    H1 2982   4.735   4.759   4.518 -0.7915  0.8211  0.1410
 1006TIP3    H2 2983   4.609   4.689   4.470  0.5599 -0.2692 -1.9561
 1007TIP3   OH2 2984   1.114   1.790   2.735 -0.1680  0.5709  0.3598
 1007TIP3    H1 2985   1.190   1.774   2.679  1.5523  1.3760  2.3344
 1007TIP3    H2 2986   1.091   1.703   2.770  0.4371  0.4376  0.4428
 1008TIP3   OH2 2987   2.986   4.218   4.077 -0.1518 -0.2097  0.3033
 1008TIP3    H1 2988   3.059   4.258   4.029 -0.5815 -0.8859 -0.9909
 1008TIP3    H2 2989   3.027   4.157   4.137  0.3733 -1.3686 -1.1531
 1009TIP3   OH2 2990   0.827   1.564   2.252 -0.3090 -0.1917 -0.4052
 1009TIP3    H1 2991   0.871   1.529   2.330 -0.4791 -0.5845 -0.4841
 1009TIP3    H2 2992   0.898   1.576   2.188 -0.1122  0.4704 -0.0764
 1010TIP3   OH2 2993   0.276   1.271   3.005 -0.6144  0.1292 -0.0821
 1010TIP3    H1 2994   0.228   1.246   2.926 -0.9045 -1.9748  0.6906
 1010TIP3    H2 2995   0.320   1.190   3.033 -0.7931  0.7266  2.0964
 1011TIP3   OH2 2996   6.401   4.248   2.501 -0.3759 -0.4209  0.0088
 1011TIP3    H1 2997   6.379   4.176   2.441 -0.6727 -0.6577  0.3958
 1011TIP3    H2 2998   6.318   4.294   2.514 -0.0162  0.5409 -0.9332
 1012TIP3   OH2 2999   3.018   1.680   3.406  0.0572 -0.6235 -0.4108
 1012TIP3    H1 3000   3.066   1.659   3.326  0.9476  0.0582 -0.0662
 1012TIP3    H2 3001   3.067   1.752   3.446  0.6073 -2.0505  1.6402
 1013TIP3   OH2 3002   6.820   5.521   4.547 -0.0365  0.1506  0.1647
 1013TIP3    H1 3003   6.905   5.532   4.590 -0.3618 -1.8914  1.4592
 1013TIP3    H2 3004   6.756   5.541   4.616 -0.6409  1.3391 -0.7017
 1014TIP3   OH2 3005   3.904   2.645   4.182 -0.3334  0.2964  0.0109
 1014TIP3    H1 3006   3.938   2.608   4.264  0.2872  1.9810  0.5533
 1014TIP3    H2 3007   3.865   2.729   4.207 -2.6710 -0.3867 -1.0073
 1015TIP3   OH2 3008   3.987   1.300   2.599  0.3868  0.0748  0.1943
 1015TIP3    H1 3009   3.944   1.220   2.630 -0.7118  1.0159  1.1751
 1015TIP3    H2 3010   3.949   1.316   2.513 -0.4736  0.3297  0.6149
 1016TIP3   OH2 3011   4.060   4.098   2.330  0.4479  0.4845  0.2212
 1016TIP3    H1 3012   4.151   4.075   2.312  0.7165  1.0873  0.7539
 1016TIP3    H2 3013   4.014   4.084   2.247  0.2340 -3.4499  0.8067
 1017TIP3   OH2 3014   4.703   1.195   0.848  0.1671 -0.3884  0.6535
 1017TIP3    H1 3015   4.693   1.242   0.931  0.1560 -2.1232  1.7100
 1017TIP3    H2 3016   4.797   1.181   0.840  0.3517  1.3664 -0.6096
 1018TIP3   OH2 3017   5.953   0.596   4.291 -0.1452  0.1859 -0.4521
 1018TIP3    H1 3018   5.868   0.640   4.283 -0.5378 -0.2382  1.0539
 1018TIP3    H2 3019   5.955   0.564   4.381  1.7178  0.3686 -0.3951
 1019TIP3   OH2 3020   1.685   1.327   4.179  0.0265  0.0279  0.9728
 1019TIP3    H1 3021   1.747   1.400   4.169  1.1718 -1.2126 -1.8859
 1019TIP3    H2 3022   1.739   1.253   4.206 -0.7523 -0.3425  1.5456
 1020TIP3   OH2 3023   4.066   6.740   1.526 -0.1685  0.3606  0.2785
 1020TIP3    H1 3024   4.037   6.649   1.526 -0.9586  0.5516 -1.8818
 1020TIP3    H2 3025   4.091   6.757   1.435 -1.3008  2.6485  0.3252
 1021TIP3   OH2 3026   2.459   3.201   2.958 -0.2355 -0.1255 -0.2028
 1021TIP3    H1 3027   2.463   3.203   3.054 -0.0488 -0.3553 -0.2031
 1021TIP3    H2 3028   2.395   3.268   2.935 -1.3952 -1.0726  0.1481
 1022TIP3   OH2 3029   3.021   2.070   4.782 -0.0408 -0.0204  0.6100
 1022TIP3    H1 3030   3.013   2.161   4.754 -1.9312 -0.2738  0.2254
 1022TIP3    H2 3031   2.931   2.039   4.792  0.5588 -1.5603  1.7372
 1023TIP3   OH2 3032   4.022   5.459   0.102  0.3441 -0.9033  0.0467
 1023TIP3    H1 3033   4.010   5.550   0.076 -1.5190 -0.9095  0.7891
 1023TIP3    H2 3034   4.027   5.462   0.198  0.8259 -1.5361  0.0473
 1024TIP3   OH2 3035   3.584   5.096   2.204  0.0428 -0.3708  0.2243
 1024TIP3    H1 3036   3.660   5.055   2.163 -1.5452 -1.7589 -1.5090
 1024TIP3    H2 3037   3.584   5.186   2.172  0.2749 -0.7205 -0.7654
 1025TIP3   OH2 3038   0.277   0.036   4.879 -0.1616 -0.1413 -0.2658
 1025TIP3    H1 3039   0.299   0.129   4.874  0.1344 -0.0646  1.7713
 1025TIP3    H2 3040   0.361  -0.009   4.875 -0.0124 -0.1303  1.9019
 1026TIP3   OH2 3041   5.822   4.160   4.014 -0.0036 -0.0070 -1.0260
 1026TIP3    H1 3042   5.838   4.140   4.106 -0.3659 -1.7187 -1.3075
 1026TIP3    H2 3043   5.894   4.119   3.966  0.9904  2.0710 -1.4617
 1027TIP3   OH2 3044   3.810   5.074   5.119  0.4916 -0.8044  0.1180
 1027TIP3    H1 3045   3.750   5.015   5.165  1.2824 -1.0028  0.9202
 1027TIP3    H2 3046   3.859   5.017   5.060  0.8587 -0.8601  0.4768
 1028TIP3   OH2 3047   1.233   2.714   2.323 -0.5422 -0.6307  0.2443
 1028TIP3    H1 3048   1.244   2.793   2.272  0.1301 -0.7597  0.1724
 1028TIP3    H2 3049   1.270   2.644   2.268  0.4026 -0.7349  0.9714
 1029TIP3   OH2 3050   1.561   6.181   1.036 -0.0939 -0.2106  0.0577
 1029TIP3    H1 3051   1.649   6.164   1.004 -0.3228  0.6271 -1.0447
 1029TIP3    H2 3052   1.541   6.270   1.010 -1.2645 -0.3713  0.3104
 1030TIP3   OH2 3053   0.302   0.982   1.228 -0.2467  0.6085 -0.1547
 1030TIP3    H1 3054   0.310   0.887   1.224 -0.6854  0.5892 -0.8478
 1030TIP3    H2 3055   0.212   1.000   1.200 -0.0657  1.2431 -0.3593
 1031TIP3   OH2 3056   3.035   1.956   2.351  0.3558 -0.2522  0.1518
 1031TIP3    H1 3057   3.058   1.878   2.402 -1.2853  0.7377  2.5869
 1031TIP3    H2 3058   2.939   1.955   2.349  0.1967  2.4738  1.6951
 1032TIP3   OH2 3059   4.131   2.833   4.754  0.4881 -0.5209 -0.4048
 1032TIP3    H1 3060   4.159   2.905   4.697 -0.4835  1.4516  1.4576
 1032TIP3    H2 3061   4.210   2.779   4.765  1.2570  0.2418 -1.8537
 1033TIP3   OH2 3062   3.847   0.202   3.845  0.4630  0.5373 -0.5907
 1033TIP3    H1 3063   3.886   0.115   3.835  1.3577  0.7760  0.5815
 1033TIP3    H2 3064   3.763   0.186   3.888  1.6076  0.3644  1.7294
 1034TIP3   OH2 3065   0.759   1.246   2.584  0.0859 -0.4742 -0.0117
 1034TIP3    H1 3066   0.833   1.185   2.586  0.1507 -0.3857  0.3709
 1034TIP3    H2 3067   0.693   1.206   2.641 -0.3451 -0.7806 -0.7130
 1035TIP3   OH2 3068   4.065   5.666   3.628  0.0041  0.0467  0.5018
 1035TIP3    H1 3069   4.023   5.689   3.544  0.4356  0.1243  0.3030
 1035TIP3    H2 3070   4.015   5.714   3.693  0.4093  0.9555  0.1621
 1036TIP3   OH2 3071   6.174   3.640   0.387  0.0416  0.4988 -0.2252
 1036TIP3    H1 3072   6.163   3.550   0.356  1.5916  0.5046 -0.8829
 1036TIP3    H2 3073   6.086   3.677   0.384 -1.1164 -1.6901  2.4203
 1037TIP3   OH2 3074   5.838   4.194   1.658  0.5835  0.3509  0.4509
 1037TIP3    H1 3075   5.768   4.130   1.665  1.4566 -0.6899 -0.1233
 1037TIP3    H2 3076   5.796   4.278   1.676 -1.4144  0.1445 -2.5826
 1038TIP3   OH2 3077   2.111   5.163   4.676 -0.2629 -0.1622 -0.2959
 1038TIP3    H1 3078   2.110   5.095   4.743 -0.1334  0.1959  0.0708
 1038TIP3    H2 3079   2.200   5.162   4.641  0.0966  0.6232  0.5457
 1039TIP3   OH2 3080   6.305   4.186   4.414 -0.4479 -0.2762  0.0406
 1039TIP3    H1 3081   6.399   4.206   4.418 -0.4482  0.5673 -2.4464
 1039TIP3    H2 3082   6.267   4.234   4.488  0.9186  0.4474  0.3067
 1040TIP3   OH2 3083   5.572   3.409   1.213  0.1290 -0.4918  0.1173
 1040TIP3    H1 3084   5.516   3.363   1.274 -0.1280  1.5673  1.5405
 1040TIP3    H2 3085   5.602   3.486   1.261 -2.0785  2.6708 -2.9867
 1041TIP3   OH2 3086   0.758   1.713   4.541  0.5636 -0.5058 -0.2916
 1041TIP3    H1 3087   0.837   1.659   4.551  0.3311 -0.7787  0.0908
 1041TIP3    H2 3088   0.757   1.768   4.619 -0.1427 -1.1815  0.1868
 1042TIP3   OH2 3089   1.387   6.301   3.422 -0.1631  0.0809  0.2587
 1042TIP3    H1 3090   1.440   6.333   3.495  2.4110  1.7450 -2.1257
 1042TIP3    H2 3091   1.308   6.355   3.424  0.4285  0.9562  1.0895
 1043TIP3   OH2 3092   0.066   1.383   5.724 -1.0224  0.1022 -0.1825
 1043TIP3    H1 3093   0.009   1.452   5.758 -1.5684 -0.0070 -0.8338
 1043TIP3    H2 3094   0.137   1.376   5.787 -0.9237  1.3059 -0.1331
 1044TIP3   OH2 3095   2.090   1.188   1.063  0.0330  0.0327 -0.7357
 1044TIP3    H1 3096   2.142   1.115   1.030  0.1002 -1.1766  1.8247
 1044TIP3    H2 3097   2.149   1.234   1.122 -1.2822 -0.4381  1.0103
 1045TIP3   OH2 3098   6.732   4.317   0.865  0.1139  0.3193 -0.2032
 1045TIP3    H1 3099   6.712   4.333   0.957  0.0182  0.0307 -0.1735
 1045TIP3    H2 3100   6.659   4.264   0.833 -0.1512  0.9037 -0.5972
 1046TIP3   OH2 3101   5.180   3.579   5.562  0.3036  0.1986  0.0432
 1046TIP3    H1 3102   5.153   3.589   5.654 -1.6257  0.8342 -0.5456
 1046TIP3    H2 3103   5.216   3.664   5.538 -0.1765  0.3718 -0.0769
 1047TIP3   OH2 3104   2.499   4.159   1.947 -0.3838 -0.0394 -0.2379
 1047TIP3    H1 3105   2.498   4.215   1.870  1.6655  0.4566  0.0237
 1047TIP3    H2 3106   2.407   4.148   1.971 -0.9537  1.2418 -1.7026
 1048TIP3   OH2 3107   6.585   3.793   1.431  0.6644 -0.1434  0.3767
 1048TIP3    H1 3108   6.523   3.733   1.391 -0.8915  0.3508  1.9476
 1048TIP3    H2 3109   6.564   3.792   1.524  2.7032  0.4287  0.9087
 1049TIP3   OH2 3110   6.026   3.632   1.433  0.5282 -0.1688 -0.0750
 1049TIP3    H1 3111   6.012   3.588   1.349  0.5999 -0.0235 -0.1635
 1049TIP3    H2 3112   6.078   3.710   1.411  0.1552  0.1144  0.0380
 1050TIP3   OH2 3113   2.744   6.280   3.440 -0.1968  0.8269 -0.1564
 1050TIP3    H1 3114   2.683   6.254   3.509  0.7523 -2.2845 -0.3659
 1050TIP3    H2 3115   2.821   6.313   3.487 -2.0720  5.7239  0.1297
 1051TIP3   OH2 3116   6.657   0.150   5.572  0.4345  0.4844  0.1160
 1051TIP3    H1 3117   6.599   0.195   5.510 -1.3635 -1.1552  0.5209
 1051TIP3    H2 3118   6.646   0.199   5.654 -0.8147 -0.0989  0.3214
 1052TIP3   OH2 3119   3.634   6.817   0.728  0.6118  0.5392  0.4543
 1052TIP3    H1 3120   3.667   6.842   0.814  1.7350 -1.6092  0.7143
 1052TIP3    H2 3121   3.663   6.727   0.716 -1.5772 -0.0588 -1.1509
 1053TIP3   OH2 3122   0.496   2.382   3.997 -0.0809  0.2540 -0.1840
 1053TIP3    H1 3123   0.492   2.395   4.092 -0.3748  1.5108 -0.3478
 1053TIP3    H2 3124   0.406   2.398   3.968 -0.2592 -1.3032 -0.5546
 1054TIP3   OH2 3125   5.264   4.773   4.658 -0.0934  0.3750 -0.1836
 1054TIP3    H1 3126   5.338   4.733   4.703  0.2859  2.4652  1.2153
 1054TIP3    H2 3127   5.187   4.740   4.705  0.1693  0.6726  0.4722
 1055TIP3   OH2 3128   3.767   1.526   5.235  0.3764  0.6436 -0.0322
 1055TIP3    H1 3129   3.791   1.618   5.244  0.4688  0.4419  2.1625
 1055TIP3    H2 3130   3.849   1.478   5.245  0.3929  0.3018 -1.5490
 1056TIP3   OH2 3131   0.892   2.270   1.212 -0.2841 -0.1738 -0.0892
 1056TIP3    H1 3132   0.978   2.230   1.201  0.7952  1.5736  1.4106
 1056TIP3    H2 3133   0.853   2.223   1.286 -1.2678 -1.8897 -1.6175
 1057TIP3   OH2 3134   6.688   1.346   5.832 -0.0053 -0.2651  0.3383
 1057TIP3    H1 3135   6.767   1.337   5.780  0.0042 -1.3071  0.5056
 1057TIP3    H2 3136   6.664   1.438   5.824  1.3493  0.1199  0.4833
 1058TIP3   OH2 3137   5.079   4.016   1.720 -0.2303 -0.1165  0.0982
 1058TIP3    H1 3138   4.984   4.020   1.708 -0.2795  1.2784  0.8497
 1058TIP3    H2 3139   5.114   4.015   1.630 -0.9098  0.4943 -0.1777
 1059TIP3   OH2 3140   5.916   0.229   0.428  0.1891 -0.0487  0.1410
 1059TIP3    H1 3141   5.970   0.246   0.506 -0.9667 -1.3787  1.2748
 1059TIP3    H2 3142   5.860   0.156   0.453 -1.3222  0.5217 -1.4208
 1060TIP3   OH2 3143   1.006   6.314   1.190 -0.6535 -0.3129  0.0409
 1060TIP3    H1 3144   0.972   6.352   1.109  0.9620  0.7731 -0.1774
 1060TIP3    H2 3145   1.039   6.389   1.239  1.4311 -1.2839  0.2000
 1061TIP3   OH2 3146   5.972   0.014   0.214 -0.0813  0.1751  0.2478
 1061TIP3    H1 3147   5.984   0.058   0.298  1.3671 -0.1695  0.2393
 1061TIP3    H2 3148   6.052   0.032   0.165  0.2456 -1.8226 -0.0437
 1062TIP3   OH2 3149   5.772   0.935   0.177  0.0002  0.1885  0.2216
 1062TIP3    H1 3150   5.792   0.928   0.270  1.5994  0.6872 -0.0605
 1062TIP3    H2 3151   5.836   0.877   0.134 -1.1029 -0.5127 -0.5382
 1063TIP3   OH2 3152   1.400   5.840   4.539  0.3653  0.2073 -0.1979
 1063TIP3    H1 3153   1.464   5.911   4.545  0.2256  0.3853 -0.8314
 1063TIP3    H2 3154   1.318   5.878   4.570  0.7419 -0.2671  1.4798
 1064TIP3   OH2 3155   4.509   2.129   0.182  0.4962 -0.3529  0.3118
 1064TIP3    H1 3156   4.537   2.090   0.265 -0.1943 -0.4029  0.5303
 1064TIP3    H2 3157   4.463   2.058   0.136 -1.1465  0.2742  0.8989
 1065TIP3   OH2 3158   3.145   6.432   4.266 -0.6239  0.4054 -0.1003
 1065TIP3    H1 3159   3.057   6.444   4.230 -0.2225  0.6527 -1.0223
 1065TIP3    H2 3160   3.199   6.495   4.220  0.1222 -0.0270  0.1619
 1066TIP3   OH2 3161   3.346   4.333   2.841  0.6506 -0.5971  0.3992
 1066TIP3    H1 3162   3.340   4.304   2.749  0.4987 -1.2125  0.5947
 1066TIP3    H2 3163   3.308   4.260   2.891 -0.1266  0.1307  0.8897
 1067TIP3   OH2 3164   6.955   2.706   2.395  0.0066  0.3385 -0.1297
 1067TIP3    H1 3165   6.903   2.697   2.315  1.7955 -2.2656 -1.1546
 1067TIP3    H2 3166   6.982   2.617   2.416  2.5918  1.3366  1.2941
 1068TIP3   OH2 3167   5.156   0.932   0.754 -0.1215  0.1334  0.2480
 1068TIP3    H1 3168   5.169   0.837   0.753  1.2132  0.2920 -0.5205
 1068TIP3    H2 3169   5.211   0.963   0.826  0.9955  0.4873 -0.7284
 1069TIP3   OH2 3170   2.691   1.230   1.820 -0.4568 -0.3128 -0.0248
 1069TIP3    H1 3171   2.703   1.325   1.819 -2.3865 -0.0058  0.8325
 1069TIP3    H2 3172   2.616   1.215   1.762 -0.5179 -1.2381  0.2775
 1070TIP3   OH2 3173   0.757   4.114   4.643 -0.1869 -0.4816  0.3989
 1070TIP3    H1 3174   0.671   4.095   4.681 -0.1419 -0.0278  0.7238
 1070TIP3    H2 3175   0.753   4.075   4.555 -0.2796 -1.5570  0.8583
 1071TIP3   OH2 3176   1.203   6.646   0.056 -0.4046 -0.1596 -0.0275
 1071TIP3    H1 3177   1.177   6.649  -0.036  0.6376 -2.1855 -0.4596
 1071TIP3    H2 3178   1.268   6.715   0.065 -2.2365  1.6740 -0.1448
 1072TIP3   OH2 3179   0.315   0.685   4.888  0.7165 -0.0300  0.1783
 1072TIP3    H1 3180   0.287   0.653   4.803  0.9699  0.6633 -0.1706
 1072TIP3    H2 3181   0.409   0.672   4.890  0.8193  0.6754  0.0384
 1073TIP3   OH2 3182   6.585   0.953   0.915  0.6650  0.3294  0.6318
 1073TIP3    H1 3183   6.668   0.972   0.871 -0.8715  1.7440 -1.8814
 1073TIP3    H2 3184   6.575   1.024   0.978  1.0362  0.5640  0.4312
 1074TIP3   OH2 3185   1.536   3.244   4.960  0.3033  0.2096  0.5869
 1074TIP3    H1 3186   1.629   3.263   4.970  0.3571  1.9825 -2.2873
 1074TIP3    H2 3187   1.491   3.323   4.991  0.0376  1.2086 -2.1416
 1075TIP3   OH2 3188   2.776   2.655   3.243  0.6831  0.2793 -0.2234
 1075TIP3    H1 3189   2.719   2.722   3.205 -0.4962 -0.0427  0.9004
 1075TIP3    H2 3190   2.717   2.599   3.293  1.5494 -2.0108 -1.6258
 1076TIP3   OH2 3191   0.135   3.800   2.108  0.0315  0.3600  0.3130
 1076TIP3    H1 3192   0.140   3.717   2.155  0.3344  0.2386  0.0647
 1076TIP3    H2 3193   0.219   3.842   2.124  0.7781 -0.3818 -1.4134
 1077TIP3   OH2 3194   4.567   6.350   3.367 -0.6801  0.5764  0.4701
 1077TIP3    H1 3195   4.609   6.371   3.283  1.5455 -2.2289  0.7433
 1077TIP3    H2 3196   4.626   6.387   3.433  0.3105 -1.4382  0.8066
 1078TIP3   OH2 3197   6.253   4.773   4.042  0.0531  0.1528 -0.5598
 1078TIP3    H1 3198   6.231   4.861   4.012 -0.8163  0.0603 -0.2087
 1078TIP3    H2 3199   6.202   4.761   4.122  1.1912 -0.1710  0.1441
 1079TIP3   OH2 3200   4.708   5.654   1.616 -0.2000 -0.0455 -0.0468
 1079TIP3    H1 3201   4.801   5.636   1.604 -0.0987 -1.0421  1.8290
 1079TIP3    H2 3202   4.704   5.744   1.648 -0.0038  0.4043 -1.2356
 1080TIP3   OH2 3203   3.777   1.437   0.354 -0.4329 -0.3567  0.0055
 1080TIP3    H1 3204   3.707   1.449   0.418  1.2520 -1.0601  2.1465
 1080TIP3    H2 3205   3.759   1.352   0.314 -0.2446 -1.0997  1.4074
 1081TIP3   OH2 3206   4.509   5.899   3.279  0.5047 -0.7962 -0.0869
 1081TIP3    H1 3207   4.435   5.845   3.251  0.9510 -1.1508 -0.5929
 1081TIP3    H2 3208   4.534   5.948   3.201  2.1444 -2.2391 -0.5221
 1082TIP3   OH2 3209   4.528   2.873   5.572  0.0787 -0.1046  0.0363
 1082TIP3    H1 3210   4.619   2.861   5.546  0.1142 -0.4000  0.3011
 1082TIP3    H2 3211   4.521   2.967   5.594 -0.0892  0.2809 -1.5582
 1083TIP3   OH2 3212   1.897   0.808   0.947  0.2371 -0.2696 -0.0639
 1083TIP3    H1 3213   1.983   0.779   0.916 -0.0670 -1.0133 -0.2379
 1083TIP3    H2 3214   1.835   0.765   0.888 -0.2362  0.7390 -0.3204
 1084TIP3   OH2 3215   1.034   1.309   1.519 -0.5946  0.4232  0.2970
 1084TIP3    H1 3216   1.058   1.310   1.612  0.3183 -0.5536  0.0942
 1084TIP3    H2 3217   0.944   1.276   1.518 -0.0455 -1.1968  0.7616
 1085TIP3   OH2 3218   6.276   2.485   0.885 -0.2449  0.2563 -0.6577
 1085TIP3    H1 3219   6.185   2.463   0.866 -0.4251 -2.2369  2.1841
 1085TIP3    H2 3220   6.271   2.539   0.964  0.7090 -1.0592  0.3477
 1086TIP3   OH2 3221   6.749   2.970   1.107  0.3165  0.6137 -0.5072
 1086TIP3    H1 3222   6.677   3.034   1.107  0.6958  1.0462 -0.5359
 1086TIP3    H2 3223   6.794   2.984   1.190 -0.6980 -0.8944  0.3471
 1087TIP3   OH2 3224   1.731   6.034   5.898 -0.3886  0.8838  0.2291
 1087TIP3    H1 3225   1.757   6.068   5.813  0.7251  0.6819  0.4714
 1087TIP3    H2 3226   1.640   6.006   5.886 -0.1355  0.5196 -0.9925
 1088TIP3   OH2 3227   3.791   2.902   0.398 -0.1972  0.1270 -0.1352
 1088TIP3    H1 3228   3.828   2.832   0.342  0.2923  0.9999 -0.9301
 1088TIP3    H2 3229   3.699   2.879   0.407 -0.2607 -0.1077 -1.2187
 1089TIP3   OH2 3230   5.077   5.241   1.423 -0.2854 -0.0091 -0.4341
 1089TIP3    H1 3231   5.093   5.151   1.395  0.2450  0.6963 -2.5394
 1089TIP3    H2 3232   5.154   5.289   1.394 -0.5784  1.1561  0.6225
 1090TIP3   OH2 3233   1.815   0.511   0.239  0.2063  0.0054  0.6140
 1090TIP3    H1 3234   1.805   0.417   0.254  0.1015  0.1529  1.5435
 1090TIP3    H2 3235   1.730   0.548   0.265  0.1628  0.3306  0.0146
 1091TIP3   OH2 3236   6.916   4.521   5.872 -0.0348  0.2135  0.1628
 1091TIP3    H1 3237   6.979   4.575   5.824  0.1273  0.6961  0.8922
 1091TIP3    H2 3238   6.914   4.560   5.960  0.8159 -1.5651  1.0053
 1092TIP3   OH2 3239   3.931   6.020   5.388 -0.4846 -0.3959  0.1752
 1092TIP3    H1 3240   3.900   6.109   5.368  0.9095  0.2135  0.5652
 1092TIP3    H2 3241   3.852   5.967   5.393 -1.2379  0.4460 -1.8538
 1093TIP3   OH2 3242   1.099   2.755   4.222 -0.5582 -0.3176  0.1267
 1093TIP3    H1 3243   1.138   2.837   4.250 -1.9344  0.1483  0.7854
 1093TIP3    H2 3244   1.108   2.697   4.297  2.0319 -1.4347 -0.9299
 1094TIP3   OH2 3245   2.458   5.605   2.646  0.0041  0.3248  0.1646
 1094TIP3    H1 3246   2.457   5.666   2.720  2.2628 -0.1400  0.6459
 1094TIP3    H2 3247   2.550   5.583   2.634 -0.4051 -0.4518 -2.1303
 1095TIP3   OH2 3248   4.862   3.354   5.022  0.4402  0.4786  0.3423
 1095TIP3    H1 3249   4.856   3.428   5.082  0.2676  1.2399 -0.5933
 1095TIP3    H2 3250   4.854   3.393   4.935  0.7735 -0.5935 -0.1833
 1096TIP3   OH2 3251   3.619   0.452   1.352 -0.0802  0.4837  0.2002
 1096TIP3    H1 3252   3.653   0.540   1.361 -1.0636  1.0009 -0.8568
 1096TIP3    H2 3253   3.569   0.453   1.270  0.0560 -1.1072  0.0560
 1097TIP3   OH2 3254   4.135   0.800   1.973 -0.2781  0.3941 -0.6485
 1097TIP3    H1 3255   4.179   0.847   2.044  0.5658 -0.4135 -0.6182
 1097TIP3    H2 3256   4.143   0.859   1.897  1.3582  0.0629 -0.7773
 1098TIP3   OH2 3257   5.592   2.592   3.430  0.3397 -0.3820  0.1252
 1098TIP3    H1 3258   5.664   2.653   3.450  0.7151 -0.7348 -0.1324
 1098TIP3    H2 3259   5.636   2.511   3.405  0.0898  0.5547 -4.2959
 1099TIP3   OH2 3260   2.092   4.551   0.288  0.0487 -0.6940 -0.0532
 1099TIP3    H1 3261   2.080   4.646   0.283 -1.6714 -0.8797 -0.1123
 1099TIP3    H2 3262   2.179   4.540   0.326  0.0752  0.9048  0.4332
 1100TIP3   OH2 3263   1.063   6.106   3.947 -0.0281  0.1502 -0.1814
 1100TIP3    H1 3264   1.149   6.098   3.988 -0.4602  1.4248  1.0695
 1100TIP3    H2 3265   1.009   6.149   4.014 -0.9206  1.8183 -1.8962
 1101TIP3   OH2 3266   5.186   2.321   4.919  0.7315  0.1434  0.7868
 1101TIP3    H1 3267   5.260   2.334   4.860  0.6756 -0.0478  0.6714
 1101TIP3    H2 3268   5.196   2.388   4.986 -0.3038  1.7095 -0.5259
 1102TIP3   OH2 3269   0.211   1.731   0.706  0.1640  0.5187 -0.2979
 1102TIP3    H1 3270   0.300   1.709   0.734  0.4247  0.9080 -0.7921
 1102TIP3    H2 3271   0.158   1.721   0.785  0.5817 -0.0664 -0.0812
 1103TIP3   OH2 3272   1.072   3.953   1.334  0.3761  0.1780 -0.0976
 1103TIP3    H1 3273   0.988   3.984   1.301 -0.3903  1.0737  2.4664
 1103TIP3    H2 3274   1.127   4.031   1.336  1.2939 -0.3770 -1.6334
 1104TIP3   OH2 3275   0.623   3.233   1.249 -0.0845 -0.4304 -0.0159
 1104TIP3    H1 3276   0.549   3.203   1.196 -1.1647 -1.0944  1.7934
 1104TIP3    H2 3277   0.696   3.177   1.222 -1.1896 -2.3539  0.7832
 1105TIP3   OH2 3278   7.189   0.995   0.629 -0.0340  0.1354 -0.0883
 1105TIP3    H1 3279   7.135   0.955   0.560 -1.3551  1.3243  0.1949
 1105TIP3    H2 3280   7.268   1.024   0.585 -0.0421 -0.7962 -0.7260
 1106TIP3   OH2 3281   2.808   3.635   2.611  0.1866  0.6166  0.7418
 1106TIP3    H1 3282   2.719   3.671   2.609  0.3803  1.0844 -0.2322
 1106TIP3    H2 3283   2.806   3.563   2.547  0.6971  1.1128  0.1552
 1107TIP3   OH2 3284   2.955   5.576   2.951  0.0212  0.6685 -0.1887
 1107TIP3    H1 3285   3.016   5.554   2.881  2.3623  3.2042  0.8645
 1107TIP3    H2 3286   3.008   5.572   3.031 -2.2423 -0.9012  1.3716
 1108TIP3   OH2 3287   5.112   6.396   5.431 -0.0972  0.1249  0.5050
 1108TIP3    H1 3288   5.040   6.346   5.468  0.7793 -0.6093  1.2814
 1108TIP3    H2 3289   5.156   6.335   5.372  0.1961  0.3956  0.4391
 1109TIP3   OH2 3290   2.582   5.502   0.348  0.4081  0.2910  0.0345
 1109TIP3    H1 3291   2.597   5.583   0.299  1.7879  0.4948  0.7303
 1109TIP3    H2 3292   2.618   5.519   0.435  0.4347 -0.9575  0.2958
 1110TIP3   OH2 3293   1.477   0.916   1.112  0.7855  0.5952  0.5176
 1110TIP3    H1 3294   1.406   0.952   1.060  0.9639  0.0826 -0.0865
 1110TIP3    H2 3295   1.442   0.911   1.201  0.3356  1.0713  0.3673
 1111TIP3   OH2 3296   6.266   1.304   4.858 -0.5518  0.7118 -0.1173
 1111TIP3    H1 3297   6.283   1.263   4.943 -0.4757 -1.2940 -1.0564
 1111TIP3    H2 3298   6.353   1.329   4.826  0.0533 -2.8088 -1.6167
 1112TIP3   OH2 3299   0.659   6.722   5.766 -0.2462  0.2251  0.1144
 1112TIP3    H1 3300   0.578   6.679   5.737 -0.8673  0.1595  1.8365
 1112TIP3    H2 3301   0.725   6.653   5.766 -0.0924  0.3280 -1.5264
 1113TIP3   OH2 3302   1.071   4.603   3.909  0.0159 -0.0143  0.3559
 1113TIP3    H1 3303   1.110   4.536   3.965  2.5969  0.5552 -0.5986
 1113TIP3    H2 3304   1.069   4.681   3.964  1.3159  0.2153  0.1149
 1114TIP3   OH2 3305   4.558   3.531   5.052 -0.3616  0.3875  0.0380
 1114TIP3    H1 3306   4.596   3.599   4.996 -1.1408  1.2322  0.5043
 1114TIP3    H2 3307   4.486   3.495   5.000  0.1873 -0.2438 -0.2952
 1115TIP3   OH2 3308   0.572   4.223   2.646  0.6665 -0.0486 -0.0836
 1115TIP3    H1 3309   0.557   4.307   2.690 -1.2753 -1.6877  2.7009
 1115TIP3    H2 3310   0.510   4.223   2.573 -0.4092  0.3793  0.8007
 1116TIP3   OH2 3311   4.655   6.387   2.835 -0.7185  0.0043  0.4914
 1116TIP3    H1 3312   4.659   6.308   2.782  0.6246  0.0434  0.5106
 1116TIP3    H2 3313   4.617   6.453   2.777  2.3229  0.5215 -1.1348
 1117TIP3   OH2 3314   4.773   2.116   4.979 -0.6352 -0.4126  0.2973
 1117TIP3    H1 3315   4.759   2.199   5.025  1.5799  0.0021  0.3220
 1117TIP3    H2 3316   4.687   2.094   4.943 -1.0583  2.5407 -0.7926
 1118TIP3   OH2 3317   2.122   4.204   5.640  0.3050  0.2757 -0.0526
 1118TIP3    H1 3318   2.161   4.141   5.580  1.6100  1.9137 -1.0385
 1118TIP3    H2 3319   2.028   4.195   5.627  0.3882 -2.0454  0.5268
 1119TIP3   OH2 3320   3.080   4.974   2.259  0.3218  0.5104  0.0027
 1119TIP3    H1 3321   3.023   4.906   2.224  0.1671  0.6443 -0.0081
 1119TIP3    H2 3322   3.108   4.940   2.344 -1.9677  1.5896  1.3037
 1120TIP3   OH2 3323   2.320   4.358   1.071  0.0081  0.3583  0.0047
 1120TIP3    H1 3324   2.246   4.301   1.054  0.2340  0.4872 -1.6133
 1120TIP3    H2 3325   2.302   4.437   1.020  1.5564  0.1161 -0.9887
 1121TIP3   OH2 3326   4.532   3.628   5.343  0.1706  0.0277 -0.0187
 1121TIP3    H1 3327   4.574   3.544   5.366 -0.2920  0.0061  0.7841
 1121TIP3    H2 3328   4.509   3.619   5.251 -0.3700 -0.9593  0.1962
 1122TIP3   OH2 3329   4.823   1.574   1.152  0.5779  0.5390 -0.0380
 1122TIP3    H1 3330   4.780   1.634   1.211  0.4142  0.1999  0.1908
 1122TIP3    H2 3331   4.898   1.540   1.201 -0.3067 -0.7543  0.4833
 1123TIP3   OH2 3332   2.492   5.458   5.191 -0.2326 -0.6930  0.1262
 1123TIP3    H1 3333   2.424   5.480   5.128 -0.1226 -1.8028 -0.4029
 1123TIP3    H2 3334   2.494   5.532   5.251 -0.2452  0.4645 -1.2407
 1124TIP3   OH2 3335   2.999   2.616   1.528  0.7145 -0.1377  0.0457
 1124TIP3    H1 3336   2.983   2.700   1.571 -0.8409 -0.4841  0.1811
 1124TIP3    H2 3337   3.073   2.578   1.576  0.0013  0.1678  1.4306
 1125TIP3   OH2 3338   6.691   1.153   1.349 -0.6523 -0.4195 -0.1184
 1125TIP3    H1 3339   6.705   1.248   1.348 -2.5129 -0.1018 -1.5469
 1125TIP3    H2 3340   6.695   1.129   1.442 -0.1694  1.0622  0.2622
 1126TIP3   OH2 3341   6.443   6.721   4.041 -0.1623 -0.6821  0.2521
 1126TIP3    H1 3342   6.353   6.689   4.049 -0.8540  0.0852 -3.0223
 1126TIP3    H2 3343   6.436   6.816   4.050  0.0786 -0.5053 -1.1372
 1127TIP3   OH2 3344   3.882   4.846   1.800 -0.1218  0.0216  0.2727
 1127TIP3    H1 3345   3.927   4.922   1.836 -1.3700  0.4289  1.0286
 1127TIP3    H2 3346   3.808   4.882   1.751  0.8716 -0.5866 -1.7828
 1128TIP3   OH2 3347   4.598   3.491   0.446 -0.1953  0.4459 -0.1354
 1128TIP3    H1 3348   4.677   3.542   0.462  0.4009 -0.6447  0.4591
 1128TIP3    H2 3349   4.545   3.547   0.389  1.5794  0.6562 -1.6847
 1129TIP3   OH2 3350   2.632   0.105   1.784 -0.0352 -0.4081 -0.6270
 1129TIP3    H1 3351   2.543   0.075   1.765  0.1168 -0.6637 -0.9396
 1129TIP3    H2 3352   2.649   0.174   1.720 -0.7886  1.1529  0.7780
 1130TIP3   OH2 3353   4.594   0.084   1.655  0.0876 -0.3140  0.1405
 1130TIP3    H1 3354   4.550  -0.001   1.662 -0.9359  0.0511 -1.4144
 1130TIP3    H2 3355   4.526   0.144   1.623  1.5300  0.4220 -1.7215
 1131TIP3   OH2 3356   0.154   1.011   4.132 -0.6246  0.9536 -0.2262
 1131TIP3    H1 3357   0.064   0.986   4.153 -0.0195 -0.1799  1.1997
 1131TIP3    H2 3358   0.174   0.961   4.053 -0.9645  0.4868 -0.0281
 1132TIP3   OH2 3359   0.893   3.068   4.464 -0.6305  0.2386 -0.3915
 1132TIP3    H1 3360   0.884   3.148   4.517  0.3367  1.3630 -1.8340
 1132TIP3    H2 3361   0.957   3.015   4.511  1.5396  1.9724 -1.1761
 1133TIP3   OH2 3362   1.081   3.083   4.796  0.8394  0.0118 -0.2186
 1133TIP3    H1 3363   1.017   3.149   4.767  1.3248  0.2354 -0.8052
 1133TIP3    H2 3364   1.143   3.077   4.723  1.1013 -0.7037  0.0616
 1134TIP3   OH2 3365   3.088   2.405   5.155 -0.0231 -0.5747  0.5816
 1134TIP3    H1 3366   3.130   2.346   5.218  0.2210  0.2399  1.1944
 1134TIP3    H2 3367   3.160   2.447   5.109 -0.2042 -1.7610 -0.8268
 1135TIP3   OH2 3368   2.513   3.032   2.142 -0.1088 -0.4796 -0.4195
 1135TIP3    H1 3369   2.482   3.007   2.055  0.7395  1.2102 -1.2452
 1135TIP3    H2 3370   2.436   3.023   2.198 -0.5226 -2.1769 -1.1740
 1136TIP3   OH2 3371   3.651   5.041   2.915 -0.1103  0.5917  0.3741
 1136TIP3    H1 3372   3.569   4.991   2.919  0.3938 -0.1757  1.7429
 1136TIP3    H2 3373   3.706   4.992   2.854 -0.9949  1.6650 -1.3494
 1137TIP3   OH2 3374   4.820   4.780   0.126  0.2649 -0.0268 -0.0132
 1137TIP3    H1 3375   4.854   4.697   0.093  0.3205 -0.1054  0.2409
 1137TIP3    H2 3376   4.856   4.846   0.067  0.0066 -0.2050 -0.3791
 1138TIP3   OH2 3377   6.829   4.625   4.985 -0.3171  0.1148 -0.5497
 1138TIP3    H1 3378   6.787   4.573   4.915 -2.4152 -0.8178  1.2757
 1138TIP3    H2 3379   6.760   4.684   5.015  0.2662 -0.0509  1.2151
 1139TIP3   OH2 3380   4.662   6.562   1.871 -0.0207 -0.7675 -0.0794
 1139TIP3    H1 3381   4.664   6.506   1.793 -1.6908 -0.4934 -0.3565
 1139TIP3    H2 3382   4.639   6.649   1.838 -2.0573 -0.9179  0.8020
 1140TIP3   OH2 3383   6.698   3.954   2.281  0.1561 -0.4454  0.5394
 1140TIP3    H1 3384   6.745   3.872   2.263 -0.4549 -1.0617  1.6631
 1140TIP3    H2 3385   6.643   3.934   2.356 -2.3963  0.0836 -1.0847
 1141TIP3   OH2 3386   4.314   3.415   3.758 -0.6067 -0.5380 -0.3344
 1141TIP3    H1 3387   4.278   3.343   3.809  0.5219 -0.8760  0.0222
 1141TIP3    H2 3388   4.240   3.474   3.743 -1.2814 -1.1853  0.3845
 1142TIP3   OH2 3389   4.576   5.032   3.604 -0.2917 -0.7040  0.6134
 1142TIP3    H1 3390   4.498   4.992   3.643 -0.1026 -0.8063  0.8928
 1142TIP3    H2 3391   4.601   5.101   3.666  1.5683 -2.5888  2.1151
 1143TIP3   OH2 3392   1.300   2.746   1.098 -0.1033 -0.1157 -0.2820
 1143TIP3    H1 3393   1.302   2.719   1.007 -0.7910  1.5168 -0.8253
 1143TIP3    H2 3394   1.323   2.667   1.147  0.7077 -0.9101 -1.8700
 1144TIP3   OH2 3395   2.879   5.195   1.790  0.1303 -0.2563 -0.0909
 1144TIP3    H1 3396   2.828   5.114   1.781  1.8302 -1.3562 -0.2730
 1144TIP3    H2 3397   2.940   5.177   1.861  0.0821  1.1464  0.3290
 1145TIP3   OH2 3398   1.402   4.558   1.302  0.0452  0.2722 -0.0771
 1145TIP3    H1 3399   1.372   4.541   1.212  1.2297 -1.4228 -0.1994
 1145TIP3    H2 3400   1.457   4.636   1.294 -1.8362  1.6744 -0.3336
 1146TIP3   OH2 3401   1.958   5.201   3.035 -0.2023 -0.0463  0.0951
 1146TIP3    H1 3402   1.889   5.175   2.975  1.3033 -0.5310 -1.5217
 1146TIP3    H2 3403   1.949   5.142   3.110 -1.2044 -0.4520 -0.3369
 1147TIP3   OH2 3404   2.726   2.299   5.045 -0.3651 -0.2494 -0.1447
 1147TIP3    H1 3405   2.788   2.263   5.108  0.7893  0.7903 -0.6577
 1147TIP3    H2 3406   2.777   2.312   4.965 -0.3912  3.5176  0.2951
 1148TIP3   OH2 3407   3.769   5.776   4.976  0.4755  0.3045  0.2910
 1148TIP3    H1 3408   3.811   5.860   4.997 -0.8062  0.5026  2.3508
 1148TIP3    H2 3409   3.741   5.741   5.061 -0.5188 -1.4157 -0.6813
 1149TIP3   OH2 3410   2.335   3.525   5.374 -0.6609  0.2178 -0.4824
 1149TIP3    H1 3411   2.317   3.509   5.281 -0.9231 -0.9329 -0.2490
 1149TIP3    H2 3412   2.347   3.438   5.412 -0.7432  0.6602  0.6022
 1150TIP3   OH2 3413   2.410   5.271   2.802 -0.1687  0.2878 -0.1269
 1150TIP3    H1 3414   2.453   5.332   2.861 -1.1684 -0.8371  1.8642
 1150TIP3    H2 3415   2.317   5.291   2.811 -0.3735 -0.2509 -0.9470
 1151TIP3   OH2 3416   1.019   0.083   4.576 -0.2073 -0.2252  0.0868
 1151TIP3    H1 3417   1.035  -0.010   4.558 -0.2518 -0.4015  0.9074
 1151TIP3    H2 3418   1.025   0.090   4.672 -1.9209  0.2872  0.1801
 1152TIP3   OH2 3419   3.156   3.556   1.767  0.0740  0.0878 -0.3672
 1152TIP3    H1 3420   3.252   3.548   1.770  0.1582  1.1430  0.2373
 1152TIP3    H2 3421   3.125   3.473   1.802  0.8216  0.4598  1.2997
 1153TIP3   OH2 3422   3.765   2.597   3.912 -0.2487  0.1069 -0.3894
 1153TIP3    H1 3423   3.737   2.677   3.867  1.2148  1.3562  0.8318
 1153TIP3    H2 3424   3.801   2.627   3.995 -0.2067 -1.8953  0.3715
 1154TIP3   OH2 3425   0.993   0.247   1.627 -0.0986 -0.6648 -0.1134
 1154TIP3    H1 3426   0.951   0.301   1.694  2.9821  1.7236  0.1855
 1154TIP3    H2 3427   1.053   0.191   1.676 -1.1624 -2.3055 -0.6436
 1155TIP3   OH2 3428   3.929   0.787   5.227 -0.3663  0.2259  0.1095
 1155TIP3    H1 3429   3.903   0.722   5.292 -0.3780  1.3180  1.2144
 1155TIP3    H2 3430   3.855   0.847   5.221  1.2487  2.6447  2.3617
 1156TIP3   OH2 3431   3.908   1.202   1.549 -0.3273 -0.2249 -0.5144
 1156TIP3    H1 3432   3.821   1.161   1.546 -0.1428 -0.5640 -2.0970
 1156TIP3    H2 3433   3.907   1.265   1.478  0.1579  0.9968  0.5326
 1157TIP3   OH2 3434   0.676   1.122   5.583  0.2417 -0.0420  0.3114
 1157TIP3    H1 3435   0.756   1.088   5.623  0.2868  0.1575  0.3898
 1157TIP3    H2 3436   0.662   1.207   5.624 -0.0658 -0.1193  0.3702
 1158TIP3   OH2 3437   2.997   0.521   1.243 -0.7271  0.2171  0.1206
 1158TIP3    H1 3438   3.049   0.598   1.267 -1.3289  0.4281  0.7719
 1158TIP3    H2 3439   2.908   0.553   1.233 -0.7733 -0.1712 -0.8569
 1159TIP3   OH2 3440   4.300   4.994   2.872 -1.1737 -0.2029  0.5110
 1159TIP3    H1 3441   4.249   4.923   2.910 -0.1177 -1.1840  0.1613
 1159TIP3    H2 3442   4.386   4.987   2.914 -0.4774 -0.3102 -0.8629
 1160TIP3   OH2 3443   0.940   5.842   4.997 -0.8676  0.1885  0.5443
 1160TIP3    H1 3444   0.863   5.839   5.054  0.2108 -1.0578  2.0029
 1160TIP3    H2 3445   1.004   5.894   5.046 -0.6189  0.8452 -0.4593
 1161TIP3   OH2 3446   5.028   1.672   5.568 -0.0776  0.2160 -0.3267
 1161TIP3    H1 3447   4.936   1.696   5.559 -0.3856 -0.1233  1.6748
 1161TIP3    H2 3448   5.049   1.685   5.660  1.6393 -0.5950 -0.5463
 1162TIP3   OH2 3449   6.164   2.979   2.266  0.4093  0.2789  0.0564
 1162TIP3    H1 3450   6.183   2.885   2.266  2.2652  0.6010  1.1778
 1162TIP3    H2 3451   6.123   2.995   2.351  1.6098  0.7239  0.5675
 1163TIP3   OH2 3452   5.815   1.408   1.857  0.3740  0.2723 -0.1332
 1163TIP3    H1 3453   5.865   1.479   1.896  0.3503 -0.0019  0.3989
 1163TIP3    H2 3454   5.749   1.452   1.803  1.1311  0.6301 -0.7753
 1164TIP3   OH2 3455   1.016   0.730   4.588  0.8147  0.1814 -0.0982
 1164TIP3    H1 3456   1.029   0.685   4.505 -0.5434 -2.7041  1.1222
 1164TIP3    H2 3457   0.929   0.770   4.580  1.2609  1.1023 -0.5179
 1165TIP3   OH2 3458   0.656   3.716   4.421  0.6546  0.2422 -0.2488
 1165TIP3    H1 3459   0.749   3.706   4.397  0.4010 -1.5856 -0.5614
 1165TIP3    H2 3460   0.610   3.652   4.366 -0.9228  1.7304 -0.7499
 1166TIP3   OH2 3461   0.045   0.387   4.489 -0.3522  0.4859 -0.1638
 1166TIP3    H1 3462   0.123   0.332   4.495 -1.4661 -1.2714 -0.9599
 1166TIP3    H2 3463  -0.013   0.340   4.429 -1.7853  2.0475 -0.0841
 1167TIP3   OH2 3464   0.220   2.147   4.507 -0.0304  0.2060  0.5063
 1167TIP3    H1 3465   0.136   2.102   4.498  0.0775 -0.3403  1.9002
 1167TIP3    H2 3466   0.201   2.239   4.487 -0.8752  0.0200  0.4375
 1168TIP3   OH2 3467   0.506   3.672   3.166 -0.5694  0.0673  0.1051
 1168TIP3    H1 3468   0.538   3.750   3.121 -2.0033  0.1192 -0.9082
 1168TIP3    H2 3469   0.496   3.607   3.096  0.8709 -1.1471  0.9708
 1169TIP3   OH2 3470   3.413   4.019   4.476  0.2394  0.0264  1.3250
 1169TIP3    H1 3471   3.440   3.960   4.545  3.5677 -0.2303  0.0056
 1169TIP3    H2 3472   3.495   4.049   4.436 -1.4482  0.9089 -1.8684
 1170TIP3   OH2 3473   2.781   4.428   0.143  0.5941 -0.1349 -0.3428
 1170TIP3    H1 3474   2.751   4.338   0.152 -0.3277  0.2922  1.2710
 1170TIP3    H2 3475   2.736   4.461   0.065  1.0665 -1.0997 -1.0406
 1171TIP3   OH2 3476   5.589   4.562   0.877 -0.8548 -0.0022  0.1749
 1171TIP3    H1 3477   5.553   4.646   0.907 -1.6738 -0.7728  1.3957
 1171TIP3    H2 3478   5.604   4.512   0.956  0.8153 -0.5871 -0.4550
 1172TIP3   OH2 3479   4.457   4.223   0.054 -0.2513  0.4527  0.1085
 1172TIP3    H1 3480   4.460   4.135   0.093  0.9597  1.3482  2.2170
 1172TIP3    H2 3481   4.365   4.237   0.033 -0.2971 -1.8222 -1.6172
 1173TIP3   OH2 3482   1.577   2.220   2.446 -0.4050  0.5524  0.0295
 1173TIP3    H1 3483   1.495   2.216   2.495 -0.4084 -3.5163 -0.0166
 1173TIP3    H2 3484   1.645   2.227   2.514 -0.6243  1.1446  0.2024
 1174TIP3   OH2 3485   5.941   5.840   1.916 -0.3529  0.3307 -0.4617
 1174TIP3    H1 3486   5.936   5.760   1.863  0.7433 -0.3682  0.4239
 1174TIP3    H2 3487   6.029   5.836   1.955 -0.8295  1.2338  0.7421
 1175TIP3   OH2 3488   0.085   6.659   4.640 -0.0584 -0.3864  0.5781
 1175TIP3    H1 3489   0.049   6.570   4.650 -0.4686 -0.2755  0.1611
 1175TIP3    H2 3490   0.100   6.689   4.729  0.4134 -1.0072  0.7141
 1176TIP3   OH2 3491   5.746   3.890   0.507  0.5339  0.0424 -0.1180
 1176TIP3    H1 3492   5.810   3.947   0.551 -0.7994  0.3074  1.5752
 1176TIP3    H2 3493   5.704   3.842   0.578 -0.6143 -0.6986 -1.2547
 1177TIP3   OH2 3494   0.338   6.114   3.276 -0.1790 -0.0307  0.2871
 1177TIP3    H1 3495   0.308   6.163   3.352  0.3149  1.2589 -0.3146
 1177TIP3    H2 3496   0.417   6.161   3.247 -0.2867 -0.5741 -0.9340
 1178TIP3   OH2 3497   3.545   5.640   5.415  0.1060  0.4427 -0.0888
 1178TIP3    H1 3498   3.610   5.671   5.352 -0.5952  1.1099 -0.5055
 1178TIP3    H2 3499   3.491   5.578   5.366 -1.6057  2.3344 -0.7594
 1179TIP3   OH2 3500   5.017   2.624   5.794 -0.3586 -0.5047 -0.1416
 1179TIP3    H1 3501   5.078   2.563   5.835  0.7534  0.0483 -0.8971
 1179TIP3    H2 3502   5.014   2.596   5.702 -0.3696  0.1426 -0.3465
 1180TIP3   OH2 3503   4.532   6.067   0.461 -0.2002 -0.0811 -0.3770
 1180TIP3    H1 3504   4.614   6.114   0.447  0.1279 -0.4572  0.1783
 1180TIP3    H2 3505   4.506   6.037   0.374  0.4751 -0.3034 -0.5139
 1181TIP3   OH2 3506   2.938   1.588   0.831 -1.0499 -0.4785  0.0940
 1181TIP3    H1 3507   2.882   1.580   0.908 -1.1307 -1.5970 -0.0664
 1181TIP3    H2 3508   3.026   1.567   0.862 -0.6487  1.4257  0.3793
 1182TIP3   OH2 3509   1.332   5.492   1.314 -0.0866 -0.1860  0.6316
 1182TIP3    H1 3510   1.270   5.420   1.306 -1.1687  0.7077  0.6341
 1182TIP3    H2 3511   1.323   5.541   1.232 -1.4802  1.5263  1.7424
 1183TIP3   OH2 3512   3.903   3.836   3.606  0.1504  0.1462 -0.9691
 1183TIP3    H1 3513   3.847   3.898   3.558 -0.6561 -1.0166 -1.5653
 1183TIP3    H2 3514   3.939   3.779   3.538 -1.0990 -1.6059 -0.2228
 1184TIP3   OH2 3515   4.596   2.602   2.923  0.2808 -0.1467 -0.3460
 1184TIP3    H1 3516   4.674   2.658   2.923 -0.4503  0.9190  0.5127
 1184TIP3    H2 3517   4.562   2.609   2.834  0.6926  0.0731 -0.4917
 1185TIP3   OH2 3518   0.831   4.410   4.262  0.0449  0.0055 -0.3942
 1185TIP3    H1 3519   0.863   4.432   4.350  1.0688 -0.1489 -0.7211
 1185TIP3    H2 3520   0.910   4.399   4.209 -0.5532 -0.2717 -1.2540
 1186TIP3   OH2 3521   1.619   4.885   4.852  0.0190  0.5021 -0.0400
 1186TIP3    H1 3522   1.664   4.814   4.898 -0.7771 -1.1361 -1.6698
 1186TIP3    H2 3523   1.535   4.892   4.896  1.0980  2.4636  1.9515
 1187TIP3   OH2 3524   1.591   4.967   4.595  0.2232 -0.2800 -0.1487
 1187TIP3    H1 3525   1.675   4.950   4.552  0.3451 -0.2298  0.0693
 1187TIP3    H2 3526   1.603   4.937   4.685 -0.3978 -1.4500 -0.4307
 1188TIP3   OH2 3527   0.740   4.786   2.627  0.2608  0.1468 -0.4752
 1188TIP3    H1 3528   0.705   4.799   2.539 -1.4741  2.5707  0.4596
 1188TIP3    H2 3529   0.781   4.869   2.649 -0.6186  0.1214  1.5040
 1189TIP3   OH2 3530   0.045   1.673   1.249  0.1902  0.4276 -0.9227
 1189TIP3    H1 3531   0.114   1.629   1.299 -0.2500 -1.2562 -1.7422
 1189TIP3    H2 3532   0.019   1.747   1.304  1.4738  0.1176  0.1547
 1190TIP3   OH2 3533   3.605   1.969   3.688  0.2399 -0.1375 -0.0114
 1190TIP3    H1 3534   3.577   1.879   3.669  0.5254  0.0134 -1.2809
 1190TIP3    H2 3535   3.691   1.960   3.728 -0.0417 -0.4505  0.5350
 1191TIP3   OH2 3536   4.587   3.093   4.773 -0.0946 -0.5843  0.5724
 1191TIP3    H1 3537   4.628   3.085   4.859  1.0127 -0.9520  0.0343
 1191TIP3    H2 3538   4.609   3.182   4.745 -0.4068 -0.4848  0.6375
 1192TIP3   OH2 3539   1.302   3.266   3.361  0.0200 -0.5448 -0.2682
 1192TIP3    H1 3540   1.377   3.324   3.374 -0.0908 -0.5163  0.2726
 1192TIP3    H2 3541   1.242   3.288   3.432 -0.2864 -0.9055 -0.4126
 1193TIP3   OH2 3542   5.348   2.851   1.040  0.2651 -0.4926 -0.0007
 1193TIP3    H1 3543   5.318   2.896   1.119 -1.7231 -1.1389 -0.3345
 1193TIP3    H2 3544   5.295   2.888   0.970  2.7028  0.8298 -1.2834
 1194TIP3   OH2 3545   5.858   4.915   3.466  0.9151  0.4561 -0.0962
 1194TIP3    H1 3546   5.822   4.943   3.382  1.0039  3.6160  0.8091
 1194TIP3    H2 3547   5.953   4.926   3.456  0.9789  0.1760  0.1967
 1195TIP3   OH2 3548   2.755   4.358   2.780  0.5550  0.6721  0.2253
 1195TIP3    H1 3549   2.707   4.362   2.863 -0.1548  1.8545 -0.2178
 1195TIP3    H2 3550   2.841   4.325   2.804  0.7108  1.9656  1.6072
 1196TIP3   OH2 3551   2.000   1.314   0.816  0.2673 -0.4063 -0.0991
 1196TIP3    H1 3552   2.016   1.294   0.908  0.3878  0.5846  0.1140
 1196TIP3    H2 3553   1.939   1.388   0.819 -0.5419 -1.0241 -0.8378
 1197TIP3   OH2 3554   7.027   0.673   2.865  0.4935  0.0207  0.5520
 1197TIP3    H1 3555   7.068   0.679   2.779  0.7102 -2.1312  0.4602
 1197TIP3    H2 3556   6.938   0.705   2.852  0.8679  0.7883 -0.1950
 1198TIP3   OH2 3557   3.137   4.429   2.140 -0.1872  0.3886  0.0548
 1198TIP3    H1 3558   3.046   4.450   2.162  0.0155  0.0986  1.2462
 1198TIP3    H2 3559   3.168   4.505   2.091 -0.6820  1.0793  0.7832
 1199TIP3   OH2 3560   6.249   2.180   5.188 -0.0612 -0.5769 -0.2603
 1199TIP3    H1 3561   6.279   2.227   5.110 -0.0054 -0.7452 -0.3401
 1199TIP3    H2 3562   6.326   2.178   5.245 -0.4700  0.7334  0.3770
 1200TIP3   OH2 3563   5.800   5.926   2.161 -0.1688  0.0518 -0.2701
 1200TIP3    H1 3564   5.809   6.020   2.146  2.2880 -0.1087 -0.2716
 1200TIP3    H2 3565   5.860   5.886   2.098  0.3699 -1.3835  1.0818
 1201TIP3   OH2 3566   5.384   2.873   2.122 -0.0056 -0.2933  0.4156
 1201TIP3    H1 3567   5.331   2.910   2.193 -2.3263  1.1254 -1.8545
 1201TIP3    H2 3568   5.466   2.921   2.126 -0.2296  0.0357  1.8773
 1202TIP3   OH2 3569   3.095   3.320   1.881  0.2901 -0.0358  0.1413
 1202TIP3    H1 3570   3.072   3.358   1.965 -0.6420 -0.1322 -0.0593
 1202TIP3    H2 3571   3.011   3.304   1.838  0.7617  0.7933 -1.1567
 1203TIP3   OH2 3572   4.681   5.764   1.055  0.2216 -0.6911 -0.1217
 1203TIP3    H1 3573   4.600   5.717   1.038  0.2561 -0.2850 -1.5786
 1203TIP3    H2 3574   4.666   5.809   1.138 -0.3854 -1.9819  0.4935
 1204TIP3   OH2 3575   2.697   1.139   2.728 -0.0119  0.0946  0.0141
 1204TIP3    H1 3576   2.786   1.103   2.723  0.6837  1.5829  0.9886
 1204TIP3    H2 3577   2.662   1.128   2.640  1.0443 -0.7149 -0.3295
 1205TIP3   OH2 3578   3.811   5.095   0.182 -0.3874 -0.1046 -0.1896
 1205TIP3    H1 3579   3.904   5.076   0.173 -0.2578  0.8070 -0.9018
 1205TIP3    H2 3580   3.767   5.020   0.143  0.0784  0.0694 -1.0699
 1206TIP3   OH2 3581   3.828   3.151   3.781 -0.3291  0.8870 -0.0061
 1206TIP3    H1 3582   3.861   3.216   3.719  0.5038  0.0663 -0.4512
 1206TIP3    H2 3583   3.885   3.075   3.769 -2.4751 -0.6875 -0.9298
 1207TIP3   OH2 3584   2.924   6.789   4.783  0.4827 -0.1028 -0.3544
 1207TIP3    H1 3585   2.945   6.824   4.870  0.2575 -2.0766  0.5377
 1207TIP3    H2 3586   2.838   6.749   4.792  0.6193 -0.6799 -1.3958
 1208TIP3   OH2 3587   3.216   0.239   0.113  0.2091  0.0562  0.1343
 1208TIP3    H1 3588   3.235   0.195   0.030 -0.6275 -0.1182  0.0263
 1208TIP3    H2 3589   3.155   0.309   0.089  0.1135  0.1252  0.5770
 1209TIP3   OH2 3590   5.306   1.841   2.715 -0.0894  0.0061  0.1088
 1209TIP3    H1 3591   5.232   1.782   2.732 -0.1720 -0.3970 -1.4373
 1209TIP3    H2 3592   5.275   1.897   2.644  1.4059 -0.8303 -1.2675
 1210TIP3   OH2 3593   5.960   1.274   3.978 -0.1970 -0.9149  0.5281
 1210TIP3    H1 3594   6.055   1.281   3.969 -0.0339  0.4526  2.6144
 1210TIP3    H2 3595   5.934   1.216   3.907  1.9504  0.1875 -1.3126
 1211TIP3   OH2 3596   1.026   3.347   4.915  0.2729 -0.6797 -0.5667
 1211TIP3    H1 3597   0.936   3.351   4.947  0.0408  2.2542 -1.3620
 1211TIP3    H2 3598   1.079   3.330   4.993 -0.7335  0.6427  0.4311
 1212TIP3   OH2 3599   5.611   2.999   2.177  0.1303  0.3305  0.1454
 1212TIP3    H1 3600   5.660   2.979   2.257 -1.4586  0.5513  1.2218
 1212TIP3    H2 3601   5.678   3.010   2.110  1.4312 -1.3199  1.1135
 1213TIP3   OH2 3602   3.355   6.562   3.762  0.5234  0.2107 -0.2997
 1213TIP3    H1 3603   3.411   6.510   3.819 -1.1272  0.3719  1.5603
 1213TIP3    H2 3604   3.336   6.641   3.812 -2.1041 -0.2472 -0.4319
 1214TIP3   OH2 3605   3.774   0.469   2.244 -0.5987 -0.7170  0.3491
 1214TIP3    H1 3606   3.842   0.445   2.307 -2.2490  0.7909  2.8505
 1214TIP3    H2 3607   3.705   0.404   2.257 -0.3156 -1.3890 -1.1752
 1215TIP3   OH2 3608   4.458   2.423   4.805 -0.0380 -0.2047 -0.0475
 1215TIP3    H1 3609   4.388   2.361   4.785 -0.5573  0.7793 -1.4261
 1215TIP3    H2 3610   4.532   2.393   4.753 -0.4147  0.5351 -1.0366
 1216TIP3   OH2 3611   3.894   1.880   3.334 -0.2728 -0.1370  0.0431
 1216TIP3    H1 3612   3.929   1.948   3.392  1.7432 -1.2342  0.1849
 1216TIP3    H2 3613   3.934   1.898   3.249 -0.8219 -0.3453 -0.2636
 1217TIP3   OH2 3614   5.293   3.661   3.341  0.2204  0.2407 -0.5045
 1217TIP3    H1 3615   5.246   3.714   3.405  0.6047  1.4950 -1.2142
 1217TIP3    H2 3616   5.226   3.632   3.280  0.2388  1.4141 -1.1055
 1218TIP3   OH2 3617   4.298   2.678   2.958  0.5864  0.5334  0.4445
 1218TIP3    H1 3618   4.279   2.765   2.925 -0.7241 -0.2487 -1.0025
 1218TIP3    H2 3619   4.392   2.665   2.940  0.3644  0.9141 -1.1643
 1219TIP3   OH2 3620   3.663   4.940   1.626  0.2258  0.0102  0.1179
 1219TIP3    H1 3621   3.596   4.935   1.693 -0.0071  2.0372  0.0755
 1219TIP3    H2 3622   3.626   4.892   1.551 -1.3856  1.4271 -0.0498
 1220TIP3   OH2 3623   0.141   3.990   1.162  0.0332 -0.0703 -0.1264
 1220TIP3    H1 3624   0.134   4.078   1.125  0.5906 -0.3279 -0.8703
 1220TIP3    H2 3625   0.115   3.932   1.091 -2.4573 -0.4497  1.0198
 1221TIP3   OH2 3626   0.392   3.681   0.841 -0.1100  0.7694  0.2744
 1221TIP3    H1 3627   0.399   3.614   0.773 -0.9397  0.9609 -0.0155
 1221TIP3    H2 3628   0.475   3.676   0.888 -0.2580 -0.6802  0.4514
 1222TIP3   OH2 3629   3.194   6.438   4.972  0.2415 -0.2257  0.3471
 1222TIP3    H1 3630   3.120   6.447   5.032 -1.2100  2.3159 -1.6227
 1222TIP3    H2 3631   3.253   6.509   4.996 -0.5343  1.0572 -1.3775
 1223TIP3   OH2 3632   1.342   6.767   2.785 -0.1802 -0.5770  0.1243
 1223TIP3    H1 3633   1.304   6.679   2.788  2.0449 -1.5846  2.0090
 1223TIP3    H2 3634   1.296   6.811   2.713 -0.0843 -3.8884 -2.1676
 1224TIP3   OH2 3635   5.574   1.589   5.339  0.1894 -0.4226  0.7498
 1224TIP3    H1 3636   5.660   1.548   5.332 -0.3866 -1.4703 -0.6630
 1224TIP3    H2 3637   5.568   1.646   5.262 -0.2384 -0.0531  1.0467
 1225TIP3   OH2 3638   1.252   5.471   1.582 -0.3714  0.8807  0.2940
 1225TIP3    H1 3639   1.158   5.451   1.576 -0.1938 -0.2562  1.0418
 1225TIP3    H2 3640   1.278   5.487   1.491 -1.3950  1.7836  0.1337
 1226TIP3   OH2 3641   5.339   3.770   4.368 -0.3427  0.3584 -0.0201
 1226TIP3    H1 3642   5.292   3.814   4.297  0.4685  0.8361 -0.2768
 1226TIP3    H2 3643   5.431   3.795   4.355  0.0908 -1.1066  0.0699
 1227TIP3   OH2 3644   6.306   6.744   2.241 -0.2300 -0.4893 -0.0342
 1227TIP3    H1 3645   6.395   6.724   2.272  0.7396 -0.2151 -2.4691
 1227TIP3    H2 3646   6.251   6.731   2.318  2.1913  1.8661  2.3164
 1228TIP3   OH2 3647   3.367   0.875   0.095 -0.3592  0.0920 -0.1552
 1228TIP3    H1 3648   3.373   0.782   0.072 -1.2047 -0.2206  0.8274
 1228TIP3    H2 3649   3.411   0.882   0.179  2.0677  1.0994 -1.4154
 1229TIP3   OH2 3650   4.345   5.951   1.919 -0.6515 -0.1666 -0.4467
 1229TIP3    H1 3651   4.422   6.004   1.900  0.4133 -1.5542 -0.1455
 1229TIP3    H2 3652   4.374   5.861   1.907 -1.4922 -0.8605  2.2083
 1230TIP3   OH2 3653   6.155   4.978   3.474  0.4530  0.0283  0.0627
 1230TIP3    H1 3654   6.124   5.061   3.511 -1.0247 -0.7008  0.5100
 1230TIP3    H2 3655   6.210   5.004   3.400 -0.1109  1.4015  0.0993
 1231TIP3   OH2 3656   2.377   3.189   1.089 -0.0240  0.1541 -0.2753
 1231TIP3    H1 3657   2.402   3.216   1.001  1.8175 -0.0118  0.1432
 1231TIP3    H2 3658   2.423   3.251   1.147 -0.2524 -0.4536  0.5777
 1232TIP3   OH2 3659   2.155   0.421   1.309 -0.2196 -0.5353  0.0768
 1232TIP3    H1 3660   2.211   0.471   1.250  0.7846 -2.3053 -0.5305
 1232TIP3    H2 3661   2.143   0.479   1.385 -0.6072  1.3265 -1.3174
 1233TIP3   OH2 3662   2.544   5.045   5.273  0.1200  0.2921  0.1081
 1233TIP3    H1 3663   2.532   4.997   5.355 -1.1539 -0.4164 -0.4467
 1233TIP3    H2 3664   2.473   5.109   5.272 -0.7426 -0.6339 -1.0372
 1234TIP3   OH2 3665   7.166   1.133   1.000 -0.1385 -0.4083  0.0996
 1234TIP3    H1 3666   7.135   1.100   1.085  0.0280 -0.9955 -0.0641
 1234TIP3    H2 3667   7.218   1.210   1.022 -0.2224 -0.4662  0.5168
 1235TIP3   OH2 3668   5.045   2.351   5.374 -0.3540 -0.7118 -0.0144
 1235TIP3    H1 3669   5.138   2.337   5.393 -0.6555 -0.1596  2.1215
 1235TIP3    H2 3670   5.027   2.296   5.298  1.6233 -1.1190 -0.2304
 1236TIP3   OH2 3671   3.198   4.389   5.021 -0.1204  1.0958  0.1130
 1236TIP3    H1 3672   3.140   4.465   5.020 -0.2237  1.0950  2.0084
 1236TIP3    H2 3673   3.160   4.331   5.088  1.1008  0.3125  0.1551
 1237TIP3   OH2 3674   5.985   3.980   3.020  0.3449  0.0127 -0.3704
 1237TIP3    H1 3675   6.044   3.931   2.962 -0.7273  0.7057 -2.1593
 1237TIP3    H2 3676   6.011   4.072   3.007  1.4422  0.0792  1.8972
 1238TIP3   OH2 3677   3.384   3.578   1.490  0.1599 -0.0142  0.1949
 1238TIP3    H1 3678   3.351   3.489   1.478  0.1637  0.0310 -0.1779
 1238TIP3    H2 3679   3.305   3.632   1.494  0.1654  0.2080 -1.6193
 1239TIP3   OH2 3680   0.147   5.621   3.553  0.1797  0.1475  0.1056
 1239TIP3    H1 3681   0.131   5.561   3.626  0.8472  1.6248  1.5297
 1239TIP3    H2 3682   0.234   5.656   3.570  0.1750  0.8315 -1.1972
 1240TIP3   OH2 3683   1.375   4.819   2.847  0.1142  0.4820 -0.5663
 1240TIP3    H1 3684   1.333   4.781   2.770 -0.5676 -0.1016  0.0729
 1240TIP3    H2 3685   1.466   4.834   2.820  0.3771 -1.4475 -0.9154
 1241TIP3   OH2 3686   2.778   1.097   5.546 -0.7193 -0.0060  0.0518
 1241TIP3    H1 3687   2.837   1.157   5.500 -0.0739 -0.4348  0.3177
 1241TIP3    H2 3688   2.710   1.155   5.582  0.6562  0.7794  1.5146
 1242TIP3   OH2 3689   2.453   1.863   2.992  0.1382  0.4404  0.2067
 1242TIP3    H1 3690   2.433   1.943   3.040 -2.7994 -0.3136  0.4378
 1242TIP3    H2 3691   2.455   1.795   3.059 -0.8593 -0.1530 -0.3311
 1243TIP3   OH2 3692   4.123   4.740   2.942 -0.3441  0.2287 -0.0390
 1243TIP3    H1 3693   4.116   4.698   3.028 -1.5577  0.1974 -0.1337
 1243TIP3    H2 3694   4.077   4.681   2.882  0.0355  0.5101 -0.6195
 1244TIP3   OH2 3695   1.956   4.558   5.402 -0.1493  0.2200 -0.0953
 1244TIP3    H1 3696   2.004   4.578   5.322  0.3748 -2.2361 -0.4923
 1244TIP3    H2 3697   2.025   4.538   5.466 -0.5961  0.5228  0.4942
 1245TIP3   OH2 3698   5.481   1.423   0.303  0.0139 -0.5319 -0.1575
 1245TIP3    H1 3699   5.471   1.480   0.226  0.7883 -0.3764 -0.1448
 1245TIP3    H2 3700   5.575   1.422   0.321  0.3987 -3.6767 -1.5904
 1246TIP3   OH2 3701   1.343   4.635   3.290  0.3417  0.0979 -0.6979
 1246TIP3    H1 3702   1.436   4.656   3.287  0.2593  0.3474 -1.4846
 1246TIP3    H2 3703   1.300   4.703   3.238 -0.1561 -0.6738 -1.3223
 1247TIP3   OH2 3704   2.502   3.123   5.616  0.2179 -0.3981 -0.8203
 1247TIP3    H1 3705   2.581   3.082   5.653  0.2053 -0.2220 -0.6008
 1247TIP3    H2 3706   2.437   3.052   5.614 -1.0291  0.4233  3.0442
 1248TIP3   OH2 3707   3.835   3.534   5.871  0.4605  0.5332  0.3087
 1248TIP3    H1 3708   3.745   3.515   5.896  0.1993 -2.3647 -2.2062
 1248TIP3    H2 3709   3.849   3.625   5.897 -3.7733  1.7177 -0.7808
 1249TIP3   OH2 3710   0.488   1.538   5.472  0.0072 -0.5484  0.1542
 1249TIP3    H1 3711   0.583   1.537   5.484  0.2503  0.4249 -1.3721
 1249TIP3    H2 3712   0.476   1.540   5.377 -1.5572 -1.0185  0.3098
 1250TIP3   OH2 3713   4.244   6.511   2.836 -0.0308  0.3307 -0.0449
 1250TIP3    H1 3714   4.198   6.428   2.826 -1.3720  1.0945 -0.4980
 1250TIP3    H2 3715   4.202   6.569   2.772  0.9668  1.3264  0.1693
 1251TIP3   OH2 3716   6.879   3.563   5.591  0.5614 -0.0490  0.0273
 1251TIP3    H1 3717   6.867   3.637   5.650 -0.4047 -1.8255  2.1543
 1251TIP3    H2 3718   6.971   3.538   5.602  0.1845 -0.8986  1.5110
 1252TIP3   OH2 3719   6.553   3.387   1.877 -0.2401 -0.6208  0.0785
 1252TIP3    H1 3720   6.558   3.330   1.954  1.0410 -1.1920 -0.4089
 1252TIP3    H2 3721   6.483   3.448   1.898 -1.9372 -2.5810  0.4741
 1253TIP3   OH2 3722   4.704   3.526   3.144 -0.1225 -0.0904  0.7010
 1253TIP3    H1 3723   4.615   3.493   3.147  0.3965 -1.7184 -0.3060
 1253TIP3    H2 3724   4.695   3.621   3.146 -1.9449 -0.1992 -0.4177
 1254TIP3   OH2 3725   1.361   6.008   0.915 -0.9128 -0.1898 -0.1481
 1254TIP3    H1 3726   1.437   6.064   0.933 -1.4367  0.8372 -1.0162
 1254TIP3    H2 3727   1.297   6.032   0.983 -0.6878 -0.6098  0.2113
 1255TIP3   OH2 3728   6.540   1.610   0.986  0.3502  0.2286  0.3647
 1255TIP3    H1 3729   6.504   1.698   0.974  0.7483  0.5785  1.6281
 1255TIP3    H2 3730   6.580   1.589   0.901 -1.4396  0.4478 -0.5690
 1256TIP3   OH2 3731   5.655   2.195   5.043  0.3921 -0.4288  0.1317
 1256TIP3    H1 3732   5.736   2.158   5.009  0.1782 -0.6838 -0.1014
 1256TIP3    H2 3733   5.675   2.288   5.055 -0.0350  0.0706 -2.3676
 1257TIP3   OH2 3734   6.189   4.782   0.915 -0.0657  0.4987  0.3130
 1257TIP3    H1 3735   6.104   4.817   0.943  0.2491  0.4568  1.3928
 1257TIP3    H2 3736   6.169   4.697   0.877 -0.4208  0.0038  1.5482
 1258TIP3   OH2 3737   7.167   5.795   0.188  0.6363  0.3999 -0.3063
 1258TIP3    H1 3738   7.087   5.816   0.139  0.6713  1.9575  0.2619
 1258TIP3    H2 3739   7.187   5.874   0.237  2.8323  0.2158 -0.8060
 1259TIP3   OH2 3740   5.451   1.385   1.057  0.1918 -0.7109 -0.0961
 1259TIP3    H1 3741   5.492   1.368   1.141 -1.1954 -2.1187  0.3404
 1259TIP3    H2 3742   5.410   1.471   1.067 -1.1300 -1.4449  1.1909
 1260TIP3   OH2 3743   1.905   4.203   2.345 -0.2784 -0.2673  0.0352
 1260TIP3    H1 3744   1.815   4.204   2.379  0.0819 -1.0068  1.0536
 1260TIP3    H2 3745   1.960   4.207   2.423  0.5861  0.4847 -0.5928
 1261TIP3   OH2 3746   4.498   2.876   2.741 -0.0865  0.0077  0.3034
 1261TIP3    H1 3747   4.482   2.968   2.762  0.4021  0.2346 -0.2667
 1261TIP3    H2 3748   4.418   2.847   2.697 -1.4575 -0.7025  3.0252
 1262TIP3   OH2 3749   4.833   1.430   2.152 -0.0997  0.0458  0.4411
 1262TIP3    H1 3750   4.920   1.470   2.149 -0.2434  0.3163 -0.3564
 1262TIP3    H2 3751   4.820   1.396   2.063 -0.9877  0.3838  0.4415
 1263TIP3   OH2 3752   1.541   1.384   0.923  0.2799  0.3571 -0.0122
 1263TIP3    H1 3753   1.593   1.390   1.004  0.8666 -0.8119 -0.2793
 1263TIP3    H2 3754   1.565   1.299   0.886 -2.0733 -0.3781  0.0108
 1264TIP3   OH2 3755   0.327   6.224   2.508  0.2062  0.2000 -0.1957
 1264TIP3    H1 3756   0.405   6.255   2.462  1.1766  0.2815  1.4464
 1264TIP3    H2 3757   0.309   6.292   2.573  0.3952 -1.0791  1.2437
 1265TIP3   OH2 3758   4.339   5.142   5.683  0.5442  0.5295 -0.2851
 1265TIP3    H1 3759   4.309   5.057   5.650  3.2230 -0.4896 -0.3367
 1265TIP3    H2 3760   4.303   5.206   5.621 -0.1985 -0.7094 -1.1843
 1266TIP3   OH2 3761   6.862   0.798   4.708 -0.0488  0.0221  0.2436
 1266TIP3    H1 3762   6.911   0.816   4.627  2.3867  1.7192  1.9501
 1266TIP3    H2 3763   6.823   0.711   4.694 -1.8098  1.2224 -3.6335
 1267TIP3   OH2 3764   0.621   0.629   4.323  0.2602 -0.3476  0.0352
 1267TIP3    H1 3765   0.680   0.679   4.379 -0.6980  0.4871  0.3238
 1267TIP3    H2 3766   0.676   0.561   4.285  1.6492  1.0561 -0.5347
 1268TIP3   OH2 3767   4.951   5.715   4.178 -0.2527  0.2074 -0.0163
 1268TIP3    H1 3768   4.882   5.667   4.132  1.3539 -0.6259 -1.6594
 1268TIP3    H2 3769   4.954   5.800   4.135 -0.1485  0.1864 -0.0506
 1269TIP3   OH2 3770   7.075   5.483   2.148 -0.2578 -0.0141  0.3642
 1269TIP3    H1 3771   7.066   5.522   2.061  1.9793  1.8300  0.8659
 1269TIP3    H2 3772   7.139   5.539   2.193  0.8513 -2.5665  2.1971
 1270TIP3   OH2 3773   5.416   2.659   1.952 -0.3407 -0.1526  0.9753
 1270TIP3    H1 3774   5.393   2.718   2.024 -0.4993 -0.7399  1.4100
 1270TIP3    H2 3775   5.354   2.681   1.883  0.0501  0.6735  0.8698
 1271TIP3   OH2 3776   4.122   4.593   2.489 -0.4234  0.5080 -0.2411
 1271TIP3    H1 3777   4.163   4.603   2.575 -3.8094  0.7946  1.5114
 1271TIP3    H2 3778   4.098   4.501   2.484 -1.4066  0.7594 -0.2805
 1272TIP3   OH2 3779   3.154   5.664   0.459 -0.1709 -0.6763  0.3470
 1272TIP3    H1 3780   3.210   5.688   0.534 -2.6270  0.1900  2.0210
 1272TIP3    H2 3781   3.116   5.580   0.483 -2.6557  0.5927  1.2036
 1273TIP3   OH2 3782   6.352   0.465   2.449 -0.2707 -0.4964  0.1031
 1273TIP3    H1 3783   6.316   0.514   2.375 -0.6645  1.9014  1.7734
 1273TIP3    H2 3784   6.275   0.429   2.493 -0.0295 -2.0317 -0.6537
 1274TIP3   OH2 3785   2.718   0.246   2.996 -0.0563  0.2394  0.0443
 1274TIP3    H1 3786   2.741   0.184   2.927  1.7212 -0.0900  0.8887
 1274TIP3    H2 3787   2.714   0.331   2.951  0.2584 -0.0797 -0.5974
 1275TIP3   OH2 3788   6.543   2.455   3.420 -0.6059  0.1371  0.1097
 1275TIP3    H1 3789   6.618   2.413   3.380 -0.8857  0.9052 -1.2727
 1275TIP3    H2 3790   6.525   2.402   3.499  1.9005  0.4752  0.9916
 1276TIP3   OH2 3791   1.885   4.253   1.859  0.0156 -0.4235  0.0889
 1276TIP3    H1 3792   1.973   4.235   1.827  0.3715  0.5305  0.5018
 1276TIP3    H2 3793   1.853   4.323   1.803 -0.4225 -0.6424  0.0588
 1277TIP3   OH2 3794   4.752   4.549   4.251  0.1188 -0.3400  0.5768
 1277TIP3    H1 3795   4.661   4.566   4.278 -0.7760 -0.7181 -1.9086
 1277TIP3    H2 3796   4.804   4.609   4.304 -1.7617  1.1483  0.8518
 1278TIP3   OH2 3797   6.024   0.367   0.932  0.1267  0.1150 -0.3943
 1278TIP3    H1 3798   6.089   0.431   0.902 -0.7750  0.4176 -1.8215
 1278TIP3    H2 3799   6.076   0.294   0.966  1.2087  1.9560  2.2539
 1279TIP3   OH2 3800   6.654   4.762   3.890 -0.0155  0.1435 -0.3575
 1279TIP3    H1 3801   6.611   4.708   3.956  1.5886 -0.3338  0.3379
 1279TIP3    H2 3802   6.730   4.711   3.862  1.2935  1.7983 -0.0286
 1280TIP3   OH2 3803   5.012   3.764   0.148 -0.1685  0.7231  0.6632
 1280TIP3    H1 3804   4.975   3.685   0.108  0.8129  0.9568 -0.7903
 1280TIP3    H2 3805   5.009   3.830   0.079  0.9832  1.3370  1.1684
 1281TIP3   OH2 3806   4.836   2.299   1.362  0.1691  0.9927 -0.0118
 1281TIP3    H1 3807   4.745   2.296   1.331  0.8551 -0.4800 -2.0966
 1281TIP3    H2 3808   4.836   2.243   1.440 -0.6996  1.0050  0.0136
 1282TIP3   OH2 3809   1.527   1.803   5.573  0.4214 -0.1057 -0.4103
 1282TIP3    H1 3810   1.497   1.809   5.663  1.4964  0.6695 -0.0845
 1282TIP3    H2 3811   1.623   1.807   5.579  0.4824  1.4503 -1.6744
 1283TIP3   OH2 3812   7.096   0.009   4.514  0.4695  0.0390  0.0742
 1283TIP3    H1 3813   7.140   0.035   4.594 -1.0005  0.2433  0.8443
 1283TIP3    H2 3814   7.079   0.091   4.468 -0.3280  0.0913  0.4478
 1284TIP3   OH2 3815   6.115   1.405   2.274  0.0822 -0.4583 -0.3780
 1284TIP3    H1 3816   6.208   1.407   2.252 -0.2121  1.5596 -1.7078
 1284TIP3    H2 3817   6.090   1.313   2.265  2.1394 -1.2331  1.0650
 1285TIP3   OH2 3818   5.435   5.211   4.549  0.2103 -0.3473  0.2540
 1285TIP3    H1 3819   5.411   5.192   4.640 -0.7548 -0.2871  0.0213
 1285TIP3    H2 3820   5.435   5.306   4.543 -0.6411 -0.3539 -0.0295
 1286TIP3   OH2 3821   4.361   3.913   3.982 -0.3289  0.1302  0.0951
 1286TIP3    H1 3822   4.412   3.988   3.951 -1.0202  0.3910 -0.4555
 1286TIP3    H2 3823   4.297   3.898   3.912 -0.6864 -0.4944  0.5492
 1287TIP3   OH2 3824   5.836   5.174   4.690  0.2554  0.2326  0.2287
 1287TIP3    H1 3825   5.814   5.261   4.657  1.2552  0.6637  0.6402
 1287TIP3    H2 3826   5.771   5.156   4.758 -1.1923 -0.2262 -1.2122
 1288TIP3   OH2 3827   0.058   0.077   1.902 -0.6140 -0.2031 -0.6215
 1288TIP3    H1 3828   0.022   0.037   1.981 -0.7049 -0.4012 -0.7632
 1288TIP3    H2 3829   0.152   0.061   1.907 -0.5544  0.2253 -0.3016
 1289TIP3   OH2 3830   3.612   4.323   2.966 -0.1551  0.1059  0.2163
 1289TIP3    H1 3831   3.606   4.238   3.008 -0.3170  0.6663  1.3823
 1289TIP3    H2 3832   3.526   4.338   2.928 -0.3723  0.1000  0.7096
 1290TIP3   OH2 3833   0.464   3.125   4.144  0.0917 -0.6685 -0.0715
 1290TIP3    H1 3834   0.543   3.096   4.098  1.5030  0.8413  1.2553
 1290TIP3    H2 3835   0.497   3.172   4.220 -2.1187 -2.2035  2.0060
 1291TIP3   OH2 3836   4.191   0.697   4.797  0.1645  0.1052  0.2600
 1291TIP3    H1 3837   4.210   0.790   4.795 -0.6973  0.2704 -1.1074
 1291TIP3    H2 3838   4.101   0.692   4.830  0.5138 -0.3158  1.1943
 1292TIP3   OH2 3839   1.182   2.991   5.434  0.5831 -0.1313  0.4108
 1292TIP3    H1 3840   1.193   3.042   5.515 -1.6090 -0.0555  0.7177
 1292TIP3    H2 3841   1.207   3.052   5.365 -1.1722  1.1567  0.8255
 1293TIP3   OH2 3842   7.103   2.019   5.432  0.2183  0.1861  0.2152
 1293TIP3    H1 3843   7.117   2.067   5.514  0.1702  0.2687  0.1759
 1293TIP3    H2 3844   7.189   1.983   5.410  0.1859 -0.0054  0.4081
 1294TIP3   OH2 3845   4.475   0.512   2.144 -0.0093  0.1354 -0.3274
 1294TIP3    H1 3846   4.450   0.562   2.222  0.1804 -2.3328  1.4677
 1294TIP3    H2 3847   4.571   0.512   2.146  0.0081 -1.3746  0.5283
 1295TIP3   OH2 3848   6.875   3.997   4.011 -0.0703  0.2048  0.1297
 1295TIP3    H1 3849   6.970   3.998   4.003  0.2085 -0.4136  2.6011
 1295TIP3    H2 3850   6.857   4.048   4.090 -1.7778 -0.0146 -0.0820
 1296TIP3   OH2 3851   0.401   4.422   2.036  0.1781 -0.1232 -0.5585
 1296TIP3    H1 3852   0.315   4.396   2.004 -1.0483  0.2307  2.2183
 1296TIP3    H2 3853   0.452   4.340   2.036  0.7162  0.0262 -4.3003
 1297TIP3   OH2 3854   0.477   6.715   5.214  0.5870  0.2142 -0.3587
 1297TIP3    H1 3855   0.489   6.778   5.285  1.5723 -0.4160  0.0760
 1297TIP3    H2 3856   0.485   6.766   5.134  0.6333  0.7571 -0.0129
 1298TIP3   OH2 3857   2.459   1.162   4.589  0.0050 -0.3197 -0.2698
 1298TIP3    H1 3858   2.534   1.203   4.547  0.9377 -0.5705  1.0892
 1298TIP3    H2 3859   2.443   1.083   4.538  1.4886 -0.9272  0.1694
 1299TIP3   OH2 3860   5.997   2.393   2.007 -0.0713 -0.4736  0.1902
 1299TIP3    H1 3861   5.952   2.315   2.039  0.6519 -0.7860  0.4719
 1299TIP3    H2 3862   5.980   2.394   1.913  0.1936 -1.1550  0.1335
 1300TIP3   OH2 3863   5.352   5.788   4.600  0.4108 -0.5904 -0.4351
 1300TIP3    H1 3864   5.365   5.788   4.505 -0.5950  1.2548 -0.6261
 1300TIP3    H2 3865   5.258   5.807   4.611  0.6361 -0.1162  0.9155
 1301TIP3   OH2 3866   2.252   0.432   4.172  0.4021  0.4233 -0.2555
 1301TIP3    H1 3867   2.263   0.386   4.256 -1.8010 -0.6886 -0.5031
 1301TIP3    H2 3868   2.167   0.402   4.140  0.9348  1.2933 -2.6269
 1302TIP3   OH2 3869   3.400   3.785   5.327 -0.4749  0.0428 -0.8284
 1302TIP3    H1 3870   3.480   3.734   5.315 -0.8258 -0.8604  0.5041
 1302TIP3    H2 3871   3.411   3.826   5.413 -1.5058 -0.2251 -0.5554
 1303TIP3   OH2 3872   2.454   4.552   1.973  0.1696 -0.8850 -0.1675
 1303TIP3    H1 3873   2.451   4.521   2.064  2.0177  0.6178  0.5049
 1303TIP3    H2 3874   2.393   4.626   1.971  0.2104 -0.8494 -0.1093
 1304TIP3   OH2 3875   4.624   4.296   4.117  0.5352  0.5333  0.0704
 1304TIP3    H1 3876   4.641   4.376   4.068  0.4945  0.0795 -0.7076
 1304TIP3    H2 3877   4.592   4.325   4.202 -0.5205  1.3358 -0.5847
 1305TIP3   OH2 3878   0.690   2.417   4.615 -0.0411  0.2701  0.6131
 1305TIP3    H1 3879   0.713   2.484   4.552 -0.8161  0.6071  0.6869
 1305TIP3    H2 3880   0.714   2.334   4.573  0.9435  0.5807  0.5369
 1306TIP3   OH2 3881   5.792   1.281   0.344 -0.2296 -0.0117  0.0405
 1306TIP3    H1 3882   5.757   1.202   0.386 -0.7374  0.1671 -0.0365
 1306TIP3    H2 3883   5.778   1.266   0.251  1.6969 -0.7995 -0.1750
 1307TIP3   OH2 3884   1.033   2.585   2.866 -0.0954  0.0952  0.6946
 1307TIP3    H1 3885   0.939   2.575   2.883 -0.2154  0.7292  0.4502
 1307TIP3    H2 3886   1.067   2.630   2.943 -0.2064  0.8600  0.3112
 1308TIP3   OH2 3887   5.386   2.090   5.892 -0.1988 -0.1140 -0.3441
 1308TIP3    H1 3888   5.345   2.132   5.816  0.2067  0.5923 -0.1827
 1308TIP3    H2 3889   5.475   2.069   5.864 -0.1196 -0.0610 -0.1388
 1309TIP3   OH2 3890   2.504   0.120   4.104  0.5295 -0.6212 -0.0400
 1309TIP3    H1 3891   2.573   0.059   4.131  1.2519  1.3651  3.1416
 1309TIP3    H2 3892   2.549   0.203   4.089 -0.8409  0.0342 -0.7345
 1310TIP3   OH2 3893   2.237   6.751   0.611 -0.8829  0.1904  0.6355
 1310TIP3    H1 3894   2.296   6.677   0.599 -2.9617 -1.6528  1.0564
 1310TIP3    H2 3895   2.263   6.814   0.543  0.7222 -1.0683  0.0289
 1311TIP3   OH2 3896   0.500   3.830   1.811  0.0973 -0.8662  0.3401
 1311TIP3    H1 3897   0.549   3.849   1.891 -0.0070 -0.8937  0.4117
 1311TIP3    H2 3898   0.409   3.847   1.835  0.2972  2.3937 -0.7271
 1312TIP3   OH2 3899   0.197   1.319   0.243  0.2028  0.5478 -0.4262
 1312TIP3    H1 3900   0.179   1.232   0.277  0.5251  1.3856  2.0518
 1312TIP3    H2 3901   0.142   1.325   0.164  0.2944 -1.9006 -0.7648
 1313TIP3   OH2 3902   3.527   2.361   4.593  0.6685 -0.1184  0.4996
 1313TIP3    H1 3903   3.519   2.267   4.606  0.2853 -0.4005 -1.3750
 1313TIP3    H2 3904   3.457   2.382   4.531  1.3023  1.2288  0.2103
 1314TIP3   OH2 3905   2.243   1.847   0.156 -0.1086  0.4366 -0.1385
 1314TIP3    H1 3906   2.302   1.780   0.188  1.0748  0.8234 -1.4550
 1314TIP3    H2 3907   2.238   1.834   0.062 -0.1344  1.9525 -0.3828
 1315TIP3   OH2 3908   2.162   1.501   2.674 -0.3512  0.3457 -0.1257
 1315TIP3    H1 3909   2.246   1.458   2.659 -1.2336 -1.1179 -1.1821
 1315TIP3    H2 3910   2.135   1.472   2.761 -0.1613  0.1156 -0.1431
 1316TIP3   OH2 3911   7.157   3.662   4.123  0.1646 -0.1633  0.3360
 1316TIP3    H1 3912   7.111   3.620   4.049  0.9966 -1.9290  0.7804
 1316TIP3    H2 3913   7.196   3.590   4.171  2.8783  1.1943  0.3674
 1317TIP3   OH2 3914   2.498   6.475   5.020 -0.0190  0.0129 -0.3771
 1317TIP3    H1 3915   2.462   6.522   4.944  1.3270 -0.6205 -1.4406
 1317TIP3    H2 3916   2.547   6.402   4.982  0.0977 -0.7276  1.1470
 1318TIP3   OH2 3917   5.998   3.384   0.591  0.5058 -0.0024 -0.0699
 1318TIP3    H1 3918   5.930   3.345   0.537 -0.1758 -0.5345  1.1189
 1318TIP3    H2 3919   5.951   3.417   0.668  1.5301  0.0554  0.5523
 1319TIP3   OH2 3920   4.368   3.177   0.282 -0.1069 -0.0925 -0.1356
 1319TIP3    H1 3921   4.415   3.251   0.243  2.5812 -1.4047  0.3385
 1319TIP3    H2 3922   4.334   3.211   0.365  1.4950  0.5387  0.3077
 1320TIP3   OH2 3923   3.388   6.723   4.176 -0.0765  0.4185 -0.1631
 1320TIP3    H1 3924   3.390   6.818   4.180  0.3256  0.3963  0.1699
 1320TIP3    H2 3925   3.388   6.695   4.267 -0.2247  0.0979 -0.2599
 1321TIP3   OH2 3926   1.002   2.483   2.300  0.2303 -0.3759 -0.0735
 1321TIP3    H1 3927   0.947   2.519   2.230 -0.0478 -0.5976  0.0262
 1321TIP3    H2 3928   1.025   2.558   2.354 -1.6638 -0.5368  1.0446
 1322TIP3   OH2 3929   1.178   1.349   5.122  0.2731  0.0072 -0.3917
 1322TIP3    H1 3930   1.216   1.290   5.188  0.5022  0.8108  0.2214
 1322TIP3    H2 3931   1.197   1.307   5.039 -0.2326 -1.1603  0.0600
 1323TIP3   OH2 3932   4.056   3.208   0.884 -0.0662  0.0090 -0.3808
 1323TIP3    H1 3933   4.085   3.124   0.849 -2.4202 -1.0383  0.0069
 1323TIP3    H2 3934   4.067   3.201   0.979 -1.7124 -0.5113 -0.2012
 1324TIP3   OH2 3935   0.197   5.033   0.757 -0.0108 -0.1800  0.0943
 1324TIP3    H1 3936   0.279   4.986   0.743  0.3728  0.5723 -0.2188
 1324TIP3    H2 3937   0.132   4.982   0.710 -0.0686 -1.7491  1.7416
 1325TIP3   OH2 3938   5.581   0.040   4.348  0.0573  0.1745  0.3524
 1325TIP3    H1 3939   5.662   0.076   4.386  0.9086 -3.1692  2.0327
 1325TIP3    H2 3940   5.545  -0.017   4.416 -1.8345 -1.1725 -1.6314
 1326TIP3   OH2 3941   0.181   2.234   1.351  0.2953  0.3618 -0.1193
 1326TIP3    H1 3942   0.255   2.290   1.328  0.3946  0.0248 -0.6381
 1326TIP3    H2 3943   0.204   2.149   1.313  0.4272 -0.1903  1.1508
 1327TIP3   OH2 3944   1.377   3.865   5.179 -0.2696  0.8106  0.1425
 1327TIP3    H1 3945   1.407   3.886   5.267 -0.4716 -0.9738  0.6824
 1327TIP3    H2 3946   1.408   3.937   5.124  1.0803  1.2405  1.4345
 1328TIP3   OH2 3947   7.066   6.531   4.884 -0.7128  0.3302  0.6776
 1328TIP3    H1 3948   6.983   6.483   4.874 -0.4241  0.0723 -0.5895
 1328TIP3    H2 3949   7.133   6.462   4.887 -0.3867  0.6062 -0.1477
 1329TIP3   OH2 3950   6.618   3.337   4.572  0.8750 -0.4681 -0.2046
 1329TIP3    H1 3951   6.562   3.332   4.649  0.7834  0.4744 -0.1885
 1329TIP3    H2 3952   6.699   3.294   4.598  0.7071 -0.4869  0.2920
 1330TIP3   OH2 3953   3.869   3.283   2.242  0.5606  0.3641 -0.2647
 1330TIP3    H1 3954   3.860   3.344   2.315  0.7271 -0.4505  0.4477
 1330TIP3    H2 3955   3.963   3.278   2.227  0.4570  2.5570 -2.3124
 1331TIP3   OH2 3956   5.421   1.505   2.842  0.1759  0.4438  0.2334
 1331TIP3    H1 3957   5.390   1.544   2.924 -2.8726  0.5279 -0.8187
 1331TIP3    H2 3958   5.394   1.413   2.848 -0.0280  0.4385 -0.6135
 1332TIP3   OH2 3959   1.986   2.445   2.111  0.5194  0.6158  0.0779
 1332TIP3    H1 3960   2.000   2.539   2.124  0.0846  0.6001  0.7047
 1332TIP3    H2 3961   1.954   2.414   2.196  1.2389 -0.2143  0.0613
 1333TIP3   OH2 3962   2.279   0.044   5.755  0.0466  0.3122 -0.6111
 1333TIP3    H1 3963   2.286   0.137   5.732 -2.1644  1.7196  3.3968
 1333TIP3    H2 3964   2.196   0.016   5.716 -0.4751  0.7771  0.1343
 1334TIP3   OH2 3965   6.552   0.396   0.617  0.2221  0.4757  0.0534
 1334TIP3    H1 3966   6.608   0.380   0.541  0.7467 -1.0458  0.7117
 1334TIP3    H2 3967   6.464   0.371   0.587  0.2795  0.6866 -0.3003
 1335TIP3   OH2 3968   1.656   6.169   1.663  0.2461  0.4044  0.1379
 1335TIP3    H1 3969   1.569   6.182   1.625  0.3737 -0.8179 -0.6006
 1335TIP3    H2 3970   1.672   6.075   1.656  0.9413  0.3623  1.7800
 1336TIP3   OH2 3971   4.275   3.913   4.624 -0.0809  0.2102  0.2456
 1336TIP3    H1 3972   4.333   3.988   4.612 -0.3479  0.0657 -2.6196
 1336TIP3    H2 3973   4.191   3.942   4.587 -0.7414 -0.8766  0.8405
 1337TIP3   OH2 3974   5.284   0.538   5.659  0.2685 -0.3114 -0.3241
 1337TIP3    H1 3975   5.321   0.468   5.713  1.2168 -0.0394 -0.5905
 1337TIP3    H2 3976   5.360   0.577   5.615 -0.1894  1.0800  0.0474
 1338TIP3   OH2 3977   5.363   6.210   5.852  0.2328 -0.5995 -0.6763
 1338TIP3    H1 3978   5.372   6.120   5.821  0.2884  0.2177 -3.3665
 1338TIP3    H2 3979   5.453   6.243   5.859  0.1809 -0.3849 -0.9840
 1339TIP3   OH2 3980   3.510   4.844   1.427  0.7106  0.1695  0.2175
 1339TIP3    H1 3981   3.516   4.749   1.438 -0.5541  0.0589  0.0811
 1339TIP3    H2 3982   3.544   4.861   1.339  0.0645 -0.2773 -0.1282
 1340TIP3   OH2 3983   1.894   2.362   2.344 -0.0593 -0.3826  0.2317
 1340TIP3    H1 3984   1.955   2.291   2.364  0.6112  0.2424  0.4482
 1340TIP3    H2 3985   1.827   2.355   2.412  0.2775 -0.4911  0.5578
 1341TIP3   OH2 3986   1.867   0.350   2.681  0.5324  0.1238  0.3465
 1341TIP3    H1 3987   1.873   0.257   2.705 -1.1267 -0.1970 -0.3074
 1341TIP3    H2 3988   1.864   0.396   2.764  1.4891 -0.3932  0.6802
 1342TIP3   OH2 3989   2.029   3.431   5.238  0.1742 -0.4173  0.3650
 1342TIP3    H1 3990   2.002   3.376   5.312 -0.4645 -3.1118 -1.6870
 1342TIP3    H2 3991   1.948   3.472   5.207  0.1341 -0.6292  0.1815
 1343TIP3   OH2 3992   5.587   1.447   1.318  0.2784 -0.1355 -0.6695
 1343TIP3    H1 3993   5.514   1.463   1.377  0.8561 -1.2461  0.3969
 1343TIP3    H2 3994   5.654   1.408   1.373  1.0022 -0.8298 -1.9894
 1344TIP3   OH2 3995   2.337   2.043   1.434  0.4088 -0.0258  0.2720
 1344TIP3    H1 3996   2.263   2.092   1.470  0.7510 -0.3575  1.5039
 1344TIP3    H2 3997   2.366   2.094   1.359 -1.4104 -0.1738 -0.5768
 1345TIP3   OH2 3998   2.039   6.171   2.885 -0.0109  0.5059 -0.3135
 1345TIP3    H1 3999   2.112   6.196   2.828 -0.0752  0.5434 -0.3804
 1345TIP3    H2 4000   2.064   6.204   2.971 -0.0342  0.6840 -0.3740
 1346TIP3   OH2 4001   0.232   4.259   4.031  0.1924  0.5695  0.1621
 1346TIP3    H1 4002   0.256   4.215   3.950  1.5536  0.5919  0.5411
 1346TIP3    H2 4003   0.212   4.188   4.092 -2.5339  0.5277 -0.6022
 1347TIP3   OH2 4004   5.734   1.001   3.530  0.3149  0.4641 -0.0316
 1347TIP3    H1 4005   5.717   1.019   3.623  1.1864 -1.1818  0.4975
 1347TIP3    H2 4006   5.822   1.037   3.515 -0.4032  2.0337 -0.6461
 1348TIP3   OH2 4007   3.536   1.075   2.683  0.6702  0.2015 -0.1079
 1348TIP3    H1 4008   3.569   1.091   2.595  0.5434  0.0192 -0.1899
 1348TIP3    H2 4009   3.469   1.008   2.671  0.9502 -0.1337  0.1795
 1349TIP3   OH2 4010   1.958   5.713   5.043 -0.3923 -0.1598  0.1228
 1349TIP3    H1 4011   1.895   5.782   5.066  0.7424  1.2816 -0.9717
 1349TIP3    H2 4012   2.031   5.726   5.104  0.1493  0.0728 -0.5723
 1350TIP3   OH2 4013   6.398   2.384   2.633 -0.1758 -0.3985 -0.6222
 1350TIP3    H1 4014   6.467   2.388   2.700 -0.0984  0.0450 -0.7229
 1350TIP3    H2 4015   6.446   2.388   2.550 -0.3012 -0.4579 -0.6967
 1351TIP3   OH2 4016   0.051   3.975   1.434 -0.7424 -0.0481  0.8507
 1351TIP3    H1 4017   0.135   3.929   1.438 -0.1857  0.9158  0.5973
 1351TIP3    H2 4018   0.006   3.936   1.359  0.5348  1.1076 -0.5873
 1352TIP3   OH2 4019   6.105   0.535   5.809  0.1559  0.6110  0.5001
 1352TIP3    H1 4020   6.014   0.563   5.809 -0.4507 -1.2354  0.1830
 1352TIP3    H2 4021   6.132   0.539   5.901 -0.8226 -0.5010  0.8582
 1353TIP3   OH2 4022   1.212   5.314   2.506  0.3958  0.3051  0.1434
 1353TIP3    H1 4023   1.269   5.251   2.550 -0.8979  0.3210  1.9388
 1353TIP3    H2 4024   1.250   5.323   2.419  2.2031 -0.8677  0.7448
 1354TIP3   OH2 4025   3.768   5.654   5.222  0.1293  0.2544  0.5411
 1354TIP3    H1 4026   3.732   5.584   5.167 -0.1875 -0.3900  1.5205
 1354TIP3    H2 4027   3.827   5.609   5.282  2.1487  1.2185 -0.6149
 1355TIP3   OH2 4028   1.645   4.551   0.001 -0.2300  0.3831  0.0151
 1355TIP3    H1 4029   1.729   4.596   0.001  0.2308 -0.4396 -0.8450
 1355TIP3    H2 4030   1.581   4.620   0.014  0.6631  0.7936  2.8645
 1356TIP3   OH2 4031   6.173   4.837   4.908 -0.1458  0.0895 -0.0505
 1356TIP3    H1 4032   6.194   4.884   4.989  0.2201 -1.2448  0.6450
 1356TIP3    H2 4033   6.116   4.766   4.935  1.9706 -1.9167 -0.5426
 1357TIP3   OH2 4034   6.334   6.648   0.636 -0.1883  0.2659 -0.3220
 1357TIP3    H1 4035   6.312   6.565   0.679 -1.2234 -0.1641 -1.6226
 1357TIP3    H2 4036   6.389   6.694   0.700 -2.9738  0.4034  2.1920
 1358TIP3   OH2 4037   0.757   2.834   0.912  0.1195  0.8303  0.2201
 1358TIP3    H1 4038   0.846   2.831   0.947  0.5456  1.0668 -0.8188
 1358TIP3    H2 4039   0.701   2.807   0.985  1.0950  0.0747  0.6976
 1359TIP3   OH2 4040   5.706   2.789   0.834 -0.2646 -0.1213  0.1007
 1359TIP3    H1 4041   5.643   2.718   0.820 -0.7217  0.2818  0.0843
 1359TIP3    H2 4042   5.738   2.811   0.746  1.7198 -1.9430  0.3072
 1360TIP3   OH2 4043   0.467   4.380   3.380  0.3611 -0.1547  0.3436
 1360TIP3    H1 4044   0.494   4.471   3.365 -2.2460  0.3588 -2.2214
 1360TIP3    H2 4045   0.483   4.337   3.296 -0.0746 -1.5999  0.9791
 1361TIP3   OH2 4046   2.483   3.906   4.012  0.0508 -0.3744 -0.1908
 1361TIP3    H1 4047   2.473   3.892   3.918  1.3501 -3.3695 -0.0098
 1361TIP3    H2 4048   2.416   3.970   4.035 -1.0779 -0.4462 -2.9559
 1362TIP3   OH2 4049   1.028   4.304   0.784 -0.2291 -0.2545 -0.1771
 1362TIP3    H1 4050   0.950   4.302   0.728  1.0541  1.6791 -2.1949
 1362TIP3    H2 4051   1.085   4.235   0.749 -0.5024 -0.8508  0.5214
 1363TIP3   OH2 4052   5.039   0.708   4.401  0.2064  0.0027  0.9488
 1363TIP3    H1 4053   5.004   0.645   4.464  0.1614  0.3098  1.2354
 1363TIP3    H2 4054   4.994   0.689   4.319 -1.2510  0.9245  1.5048
 1364TIP3   OH2 4055   3.201   6.635   3.225  0.1981 -0.3629  0.4827
 1364TIP3    H1 4056   3.179   6.544   3.206 -0.6441 -0.2126  0.6660
 1364TIP3    H2 4057   3.219   6.636   3.319 -1.4287 -0.0615  0.8215
 1365TIP3   OH2 4058   4.216   6.049   1.625 -0.1844 -0.0142 -0.3558
 1365TIP3    H1 4059   4.141   5.989   1.623 -0.0961 -0.2076  0.9164
 1365TIP3    H2 4060   4.289   5.994   1.654  0.1309  0.4683 -0.2376
 1366TIP3   OH2 4061   0.095   0.300   0.034 -0.2886 -0.1173 -0.4027
 1366TIP3    H1 4062   0.070   0.393   0.033 -0.0483 -0.0573 -0.9626
 1366TIP3    H2 4063   0.011   0.254   0.032 -0.4509  0.0731  0.9052
 1367TIP3   OH2 4064   0.169   4.516   1.096 -0.3247  0.5504 -0.1413
 1367TIP3    H1 4065   0.189   4.595   1.146 -1.7064  1.6734 -1.2908
 1367TIP3    H2 4066   0.195   4.536   1.007 -1.9868  0.2548 -0.7191
 1368TIP3   OH2 4067   2.533   5.815   3.293 -0.4953 -0.6864 -0.0478
 1368TIP3    H1 4068   2.596   5.885   3.272 -1.8919  0.6192 -0.1070
 1368TIP3    H2 4069   2.586   5.743   3.326  0.8994  0.9562  1.4645
 1369TIP3   OH2 4070   4.168   0.558   2.862 -0.4531  0.3523 -0.1522
 1369TIP3    H1 4071   4.142   0.466   2.874 -1.1716  0.8219  2.6202
 1369TIP3    H2 4072   4.259   0.561   2.891 -0.4827  0.5483 -0.0793
 1370TIP3   OH2 4073   1.582   0.576   3.433 -0.2499  0.4503  0.8179
 1370TIP3    H1 4074   1.606   0.485   3.453  0.3800  0.3837 -0.1965
 1370TIP3    H2 4075   1.491   0.570   3.404 -0.2035  0.1404  0.7258
 1371TIP3   OH2 4076   0.047   3.846   4.614 -0.0849 -0.1277  0.7335
 1371TIP3    H1 4077   0.091   3.768   4.647 -0.8193 -1.5391 -1.4034
 1371TIP3    H2 4078  -0.045   3.833   4.636  0.0534  1.2688  2.3437
 1372TIP3   OH2 4079   1.735   4.533   5.541  0.3962  0.2604  0.1882
 1372TIP3    H1 4080   1.745   4.578   5.625 -1.5146 -0.2033  0.7146
 1372TIP3    H2 4081   1.822   4.537   5.501  1.0560  1.5478  1.6468
 1373TIP3   OH2 4082   2.352   6.686   5.307 -0.0696 -0.2037  0.2381
 1373TIP3    H1 4083   2.402   6.623   5.357 -1.0048 -2.1450 -1.1422
 1373TIP3    H2 4084   2.325   6.638   5.229  1.6318  2.7444 -2.3809
 1374TIP3   OH2 4085   4.441   0.020   0.757 -0.1934  0.2300  0.4581
 1374TIP3    H1 4086   4.509  -0.006   0.695  0.9483 -0.2311  1.8435
 1374TIP3    H2 4087   4.443   0.116   0.755  0.2055  0.2196  0.1603
 1375TIP3   OH2 4088   7.079   6.418   0.345 -0.0384 -0.3382 -0.3046
 1375TIP3    H1 4089   7.128   6.396   0.424  0.8678  0.8981 -0.5047
 1375TIP3    H2 4090   7.137   6.476   0.296 -1.2448  0.2375 -1.0940
 1376TIP3   OH2 4091   7.118   4.743   5.720 -0.1395  0.1658 -0.5149
 1376TIP3    H1 4092   7.033   4.715   5.685  0.4573 -1.9200 -0.4706
 1376TIP3    H2 4093   7.163   4.782   5.645 -0.2191 -0.9978 -1.1940
 1377TIP3   OH2 4094   6.701   4.349   4.117 -0.6949 -0.1989 -0.2307
 1377TIP3    H1 4095   6.729   4.333   4.207  2.5695  1.7734 -0.7569
 1377TIP3    H2 4096   6.665   4.437   4.118 -0.8516 -0.2507 -0.8417
 1378TIP3   OH2 4097   2.951   1.908   4.439  0.4717 -0.5648  0.1217
 1378TIP3    H1 4098   2.888   1.869   4.379 -0.8654 -1.0630  1.7668
 1378TIP3    H2 4099   2.997   1.832   4.476  0.7810 -0.3071  0.2628
 1379TIP3   OH2 4100   3.370   0.873   2.412  0.3935  0.5622 -0.0910
 1379TIP3    H1 4101   3.321   0.816   2.353  0.6910 -2.2888  2.2053
 1379TIP3    H2 4102   3.333   0.856   2.499  1.9137  2.3767  0.9966
 1380TIP3   OH2 4103   4.908   3.686   2.018 -0.0190  0.7294 -0.2823
 1380TIP3    H1 4104   4.883   3.692   1.925  1.4413 -1.5646 -0.9044
 1380TIP3    H2 4105   4.866   3.606   2.049  0.7623  0.6392  0.5912
 1381TIP3   OH2 4106   4.019   5.752   3.375 -0.3100  0.1407 -0.3626
 1381TIP3    H1 4107   4.105   5.791   3.392  0.1083 -0.8343 -0.1844
 1381TIP3    H2 4108   4.026   5.717   3.286  0.0403 -1.3453  0.2167
 1382TIP3   OH2 4109   2.990   6.282   2.564  0.3780  0.1491  0.2765
 1382TIP3    H1 4110   2.948   6.251   2.644 -0.6733  1.4953  0.2609
 1382TIP3    H2 4111   3.015   6.201   2.518 -1.1061 -0.6726  0.8437
 1383TIP3   OH2 4112   0.723   4.700   0.071  0.1939  0.0189 -0.0701
 1383TIP3    H1 4113   0.729   4.768   0.138 -0.2939  0.0475 -0.0514
 1383TIP3    H2 4114   0.779   4.629   0.105 -2.4934 -1.2973  1.9839
 1384TIP3   OH2 4115   3.865   1.281   2.362  0.0785 -0.0376  0.1143
 1384TIP3    H1 4116   3.909   1.218   2.305  0.8670  1.6652 -1.2147
 1384TIP3    H2 4117   3.890   1.366   2.329  0.7174  1.0699  3.1288
 1385TIP3   OH2 4118   4.451   2.953   5.056 -0.0154  0.2140 -0.6571
 1385TIP3    H1 4119   4.527   3.007   5.078 -1.4496  1.9383  0.3041
 1385TIP3    H2 4120   4.391   3.013   5.012 -1.5732 -0.6046  0.2518
 1386TIP3   OH2 4121   1.357   6.715   0.590 -0.1099  0.0578  0.0564
 1386TIP3    H1 4122   1.377   6.672   0.507 -1.8316 -1.4887  0.3515
 1386TIP3    H2 4123   1.266   6.688   0.609  0.3545  0.0128  2.6202
 1387TIP3   OH2 4124   4.038   4.438   1.288 -0.2800  0.8757 -0.5491
 1387TIP3    H1 4125   4.079   4.403   1.208  1.7735  1.1295  0.3256
 1387TIP3    H2 4126   4.062   4.531   1.288 -1.0929  1.0940 -0.1142
 1388TIP3   OH2 4127   3.929   4.941   1.508  0.3436  0.3393  0.8250
 1388TIP3    H1 4128   3.911   4.950   1.414  1.3018 -0.1556  0.5861
 1388TIP3    H2 4129   3.842   4.927   1.547  0.0278 -0.4793 -0.1174
 1389TIP3   OH2 4130   3.669   3.342   4.459  0.0681 -0.2093 -0.4009
 1389TIP3    H1 4131   3.693   3.327   4.368  1.7005  1.4884 -0.3229
 1389TIP3    H2 4132   3.578   3.315   4.465 -0.0146 -0.5572 -2.4829
 1390TIP3   OH2 4133   3.406   6.637   1.199 -0.1058 -0.2798  0.0515
 1390TIP3    H1 4134   3.341   6.704   1.219 -0.0087 -0.3559  0.6371
 1390TIP3    H2 4135   3.490   6.680   1.216 -0.0632 -0.7445  1.0253
 1391TIP3   OH2 4136   3.817   5.365   3.015 -0.1696 -0.7904 -0.6529
 1391TIP3    H1 4137   3.822   5.300   3.085 -1.6056  1.4449  1.6907
 1391TIP3    H2 4138   3.893   5.422   3.030 -1.4906  0.8004  0.3807
 1392TIP3   OH2 4139   2.745   2.320   3.030  0.4325  0.7135  0.7282
 1392TIP3    H1 4140   2.665   2.364   3.001 -0.6893 -2.2405 -1.1313
 1392TIP3    H2 4141   2.715   2.252   3.090  1.6058  0.0361  0.5755
 1393TIP3   OH2 4142   3.494   3.952   5.531  0.8576 -0.0927 -0.6160
 1393TIP3    H1 4143   3.559   3.911   5.588 -0.7037 -1.9404 -0.0795
 1393TIP3    H2 4144   3.543   3.974   5.451  2.7676  1.3219  0.8421
 1394TIP3   OH2 4145   0.543   0.284   3.103  0.2880 -0.4250  0.3617
 1394TIP3    H1 4146   0.612   0.325   3.155  1.3032 -1.6200  0.0202
 1394TIP3    H2 4147   0.462   0.323   3.135  0.7407 -1.7898  3.5349
 1395TIP3   OH2 4148   2.460   6.143   3.110  0.2626  0.3114  0.0678
 1395TIP3    H1 4149   2.504   6.108   3.187 -2.0714  0.8531  1.7680
 1395TIP3    H2 4150   2.396   6.076   3.086 -0.8480  1.2576  0.2825
 1396TIP3   OH2 4151   4.140   5.992   5.006  0.8424  0.0799  0.1066
 1396TIP3    H1 4152   4.045   6.008   5.004  0.9743  0.8751 -1.3526
 1396TIP3    H2 4153   4.156   5.953   5.091 -0.8815 -0.5544  0.1813
 1397TIP3   OH2 4154   4.912   4.409   2.397  0.1692  0.4887  0.7501
 1397TIP3    H1 4155   4.830   4.384   2.438 -0.8961  0.0530 -1.4848
 1397TIP3    H2 4156   4.928   4.341   2.331  1.0238  1.8666 -0.5338
 1398TIP3   OH2 4157   6.749   4.657   1.099 -0.2460  0.3736 -0.3562
 1398TIP3    H1 4158   6.763   4.563   1.108  0.3296  0.5438  0.7531
 1398TIP3    H2 4159   6.810   4.696   1.162 -0.7296  1.4740 -0.5486
 1399TIP3   OH2 4160   6.623   3.525   1.069  0.6870  0.2543 -0.2100
 1399TIP3    H1 4161   6.549   3.481   1.111  0.3240 -0.1281 -1.2370
 1399TIP3    H2 4162   6.686   3.539   1.140 -0.8350  1.6404  0.9504
 1400TIP3   OH2 4163   7.045   3.509   3.914 -0.1950 -0.4326  0.4448
 1400TIP3    H1 4164   7.062   3.524   3.821 -0.7752 -0.9425  0.2528
 1400TIP3    H2 4165   7.069   3.418   3.929  0.9448 -0.0536  1.0529
 1401TIP3   OH2 4166   0.099   1.283   5.459  0.3506 -0.1890 -0.2599
 1401TIP3    H1 4167   0.079   1.304   5.550  0.7960  0.6332 -0.3468
 1401TIP3    H2 4168   0.081   1.364   5.411 -0.4180 -0.7723 -0.9913
 1402TIP3   OH2 4169   4.861   1.510   4.645  0.0251 -0.1469  0.4994
 1402TIP3    H1 4170   4.842   1.581   4.706  0.4215  0.6635 -0.3055
 1402TIP3    H2 4171   4.953   1.521   4.622 -0.7189  1.1565 -2.2150
 1403TIP3   OH2 4172   0.296   6.288   3.534  0.1172 -0.3594 -0.2274
 1403TIP3    H1 4173   0.301   6.206   3.583  0.2719 -0.6339 -0.6928
 1403TIP3    H2 4174   0.383   6.327   3.545 -0.2636  0.2406  0.8257
 1404TIP3   OH2 4175   2.512   4.000   1.596  0.5791 -0.5229  0.2689
 1404TIP3    H1 4176   2.545   4.031   1.512 -0.7499  1.1989  0.3377
 1404TIP3    H2 4177   2.451   4.067   1.625  1.1072 -0.9776  2.7055
 1405TIP3   OH2 4178   5.119   5.432   2.612 -0.1616  0.4779  0.3586
 1405TIP3    H1 4179   5.209   5.429   2.578 -0.5847  0.4611 -0.8227
 1405TIP3    H2 4180   5.085   5.343   2.600 -0.8339  0.8524 -0.6942
 1406TIP3   OH2 4181   1.147   1.571   1.063  0.4406  0.6862  0.2233
 1406TIP3    H1 4182   1.184   1.517   1.132  0.6091 -0.2599 -0.5900
 1406TIP3    H2 4183   1.087   1.514   1.016  0.5673  1.2058 -0.6113
 1407TIP3   OH2 4184   2.086   6.433   2.506  0.4820  0.4039 -0.2127
 1407TIP3    H1 4185   2.094   6.364   2.441 -0.1527  0.0834  0.0375
 1407TIP3    H2 4186   2.030   6.499   2.465 -0.7022 -0.2243  0.3259
 1408TIP3   OH2 4187   4.043   2.936   3.990  0.4735 -0.4531 -0.1868
 1408TIP3    H1 4188   3.948   2.925   3.999  0.5396 -0.4047  0.7005
 1408TIP3    H2 4189   4.055   2.970   3.902 -0.2292 -1.6390 -0.7759
 1409TIP3   OH2 4190   6.692   1.631   3.855 -0.5121  0.0850  0.5343
 1409TIP3    H1 4191   6.765   1.613   3.914 -1.0089  1.2536  1.5441
 1409TIP3    H2 4192   6.734   1.662   3.774  0.1612 -1.2948  0.3212
 1410TIP3   OH2 4193   5.446   5.793   2.014 -0.0193 -0.6939 -0.2564
 1410TIP3    H1 4194   5.491   5.811   1.931 -0.1458 -0.1225 -0.2082
 1410TIP3    H2 4195   5.392   5.871   2.028 -1.7833 -1.7580 -0.8114
 1411TIP3   OH2 4196   6.684   3.285   0.921 -0.2955 -0.0453  0.1791
 1411TIP3    H1 4197   6.644   3.254   0.840  1.2128  1.7972 -1.3811
 1411TIP3    H2 4198   6.633   3.362   0.945  0.2590  0.3597  0.0626
 1412TIP3   OH2 4199   0.741   2.613   2.941 -0.1871 -0.4684 -0.1807
 1412TIP3    H1 4200   0.658   2.641   2.902  0.3607  1.1199 -0.2702
 1412TIP3    H2 4201   0.726   2.620   3.036 -0.0842  0.0663 -0.2005
 1413TIP3   OH2 4202   0.621   3.531   1.726 -0.6557  0.5568 -0.2691
 1413TIP3    H1 4203   0.532   3.502   1.745  0.0059 -2.6704 -1.3982
 1413TIP3    H2 4204   0.625   3.534   1.630  0.6548 -0.2376 -0.2629
 1414TIP3   OH2 4205   2.710   2.401   2.637 -0.2021 -0.1581 -0.1520
 1414TIP3    H1 4206   2.742   2.395   2.547 -0.7413 -0.2966 -0.3404
 1414TIP3    H2 4207   2.789   2.400   2.691  0.1137 -0.3421 -0.6107
 1415TIP3   OH2 4208   5.543   5.936   0.802 -0.1753 -0.3361 -0.0906
 1415TIP3    H1 4209   5.519   6.025   0.775 -0.2738 -0.3844 -0.1617
 1415TIP3    H2 4210   5.639   5.937   0.802 -0.1443  0.2971  1.6196
 1416TIP3   OH2 4211   2.657   1.405   5.373 -0.2227  0.1948  0.0641
 1416TIP3    H1 4212   2.677   1.493   5.341 -0.4235  0.3812  0.4464
 1416TIP3    H2 4213   2.741   1.370   5.403  0.1998 -0.4372 -1.7472
 1417TIP3   OH2 4214   1.237   3.388   2.486 -0.4713 -0.1037 -0.7756
 1417TIP3    H1 4215   1.179   3.449   2.440  0.1722 -0.3624 -1.9946
 1417TIP3    H2 4216   1.281   3.441   2.552 -0.8846  0.4541 -0.9411
 1418TIP3   OH2 4217   1.898   6.369   4.776  0.2967 -0.2962  0.2850
 1418TIP3    H1 4218   1.967   6.420   4.819  1.4257 -0.6922 -0.9715
 1418TIP3    H2 4219   1.884   6.294   4.834 -0.6771  0.8874  1.6489
 1419TIP3   OH2 4220   4.476   2.482   2.684  0.0639 -0.5613 -0.5252
 1419TIP3    H1 4221   4.416   2.426   2.734 -0.1341  0.2335  0.1520
 1419TIP3    H2 4222   4.536   2.420   2.642  2.3347 -1.3140  3.2810
 1420TIP3   OH2 4223   0.020   0.159   4.033 -0.0416 -0.8118 -0.5659
 1420TIP3    H1 4224   0.102   0.208   4.029 -0.2213 -0.5187 -0.7066
 1420TIP3    H2 4225  -0.027   0.199   4.107 -0.8721  0.3146 -1.6585
 1421TIP3   OH2 4226   2.062   4.135   4.770 -0.0116 -0.0609 -0.4211
 1421TIP3    H1 4227   2.012   4.189   4.831  1.6459  2.4938 -1.1367
 1421TIP3    H2 4228   2.150   4.172   4.772  0.8521 -1.8248 -2.1308
 1422TIP3   OH2 4229   3.395   4.169   3.871 -0.1190 -0.3219 -0.2049
 1422TIP3    H1 4230   3.317   4.177   3.817  0.5976  1.2440 -1.0747
 1422TIP3    H2 4231   3.369   4.206   3.956 -0.4296 -0.1856 -0.3581
 1423TIP3   OH2 4232   3.610   5.801   2.631  0.1922  0.0218 -0.5666
 1423TIP3    H1 4233   3.654   5.828   2.550 -0.1098  0.6762 -0.5263
 1423TIP3    H2 4234   3.552   5.875   2.652  0.7511  0.1618  0.6077
 1424TIP3   OH2 4235   2.422   0.918   2.643  0.0668 -0.0356 -0.1304
 1424TIP3    H1 4236   2.501   0.930   2.590 -0.1609 -0.3083 -0.5324
 1424TIP3    H2 4237   2.365   0.991   2.618  0.4581  0.5670  0.6670
 1425TIP3   OH2 4238   1.605   5.435   3.999 -0.3148 -0.0378 -0.3962
 1425TIP3    H1 4239   1.596   5.341   3.986 -0.1048 -0.3606  1.4077
 1425TIP3    H2 4240   1.665   5.443   4.073  0.2333  1.5454 -0.9645
 1426TIP3   OH2 4241   3.376   0.234   0.580  0.0100 -0.2292  0.2032
 1426TIP3    H1 4242   3.445   0.292   0.548  0.6495 -0.9328  0.2756
 1426TIP3    H2 4243   3.365   0.168   0.511  0.6417 -1.1267  0.9322
 1427TIP3   OH2 4244   3.996   0.699   5.495 -0.9302  0.0887  0.3798
 1427TIP3    H1 4245   3.992   0.793   5.512 -0.9201  0.0552  0.5664
 1427TIP3    H2 4246   4.089   0.683   5.476 -0.9169  0.1014  0.4331
 1428TIP3   OH2 4247   5.269   6.131   2.548 -0.6472  0.0806  0.3262
 1428TIP3    H1 4248   5.176   6.147   2.536 -0.8444 -0.3021  1.2499
 1428TIP3    H2 4249   5.312   6.187   2.483 -1.5476 -0.5005 -0.8243
 1429TIP3   OH2 4250   6.477   4.157   0.002 -0.6000  0.5312 -0.3648
 1429TIP3    H1 4251   6.469   4.167   0.097 -1.9980 -2.9260 -0.0132
 1429TIP3    H2 4252   6.423   4.228  -0.033 -1.8036  0.6098  1.4719
 1430TIP3   OH2 4253   5.213   4.681   4.190  0.1902  0.4516 -0.0314
 1430TIP3    H1 4254   5.217   4.777   4.190  0.0041  0.4641 -0.2816
 1430TIP3    H2 4255   5.302   4.652   4.207  0.2308  0.6712  0.1265
 1431TIP3   OH2 4256   0.980   0.540   0.902 -0.2426 -0.6735 -0.2785
 1431TIP3    H1 4257   0.989   0.448   0.926 -0.0015 -0.5702  0.0366
 1431TIP3    H2 4258   1.022   0.588   0.973  2.4471 -0.4394 -1.8598
 1432TIP3   OH2 4259   5.417   5.808   1.521  0.2688 -0.1183 -0.3490
 1432TIP3    H1 4260   5.394   5.794   1.430  0.2160 -0.4130 -0.2927
 1432TIP3    H2 4261   5.388   5.728   1.566 -0.7998  0.5150  0.1259
 1433TIP3   OH2 4262   4.762   1.326   4.871  0.3959 -0.7596 -0.3855
 1433TIP3    H1 4263   4.837   1.268   4.884  1.4792  0.7849  0.7455
 1433TIP3    H2 4264   4.790   1.387   4.802  0.7743  0.6289  0.9203
 1434TIP3   OH2 4265   2.633   6.178   1.628  0.2276  0.8824 -0.2771
 1434TIP3    H1 4266   2.615   6.085   1.644 -2.9025  1.5243  0.5312
 1434TIP3    H2 4267   2.661   6.182   1.537  0.6144 -0.8663 -0.2652
 1435TIP3   OH2 4268   2.889   3.005   5.268 -0.3549  0.1949 -0.1342
 1435TIP3    H1 4269   2.838   3.074   5.225 -0.5058 -0.8281 -1.6823
 1435TIP3    H2 4270   2.938   3.050   5.337 -1.6307  1.5704 -0.0843
 1436TIP3   OH2 4271   2.941   3.940   1.909 -0.3840  0.3383 -0.0428
 1436TIP3    H1 4272   2.896   3.974   1.831 -1.0397  1.1045  0.6472
 1436TIP3    H2 4273   3.008   4.006   1.927 -1.4405  1.1644  1.1029
 1437TIP3   OH2 4274   6.249   2.034   3.844 -0.4407 -0.4723  0.2071
 1437TIP3    H1 4275   6.289   1.962   3.795 -0.1223  0.0388 -0.3043
 1437TIP3    H2 4276   6.296   2.037   3.926 -0.2685 -0.6675  0.1167
 1438TIP3   OH2 4277   5.030   3.422   0.332  0.4369  0.1964 -0.0285
 1438TIP3    H1 4278   5.116   3.458   0.354  0.0543  1.1899 -0.1061
 1438TIP3    H2 4279   4.968   3.483   0.371 -0.2338 -0.0573 -0.6756
 1439TIP3   OH2 4280   0.165   0.521   2.755  0.4178  0.2390  0.3357
 1439TIP3    H1 4281   0.210   0.557   2.679 -3.3205  1.3893 -1.5568
 1439TIP3    H2 4282   0.170   0.590   2.821  1.7173  0.1563  0.3470
 1440TIP3   OH2 4283   2.399   3.553   1.741 -0.3825  0.1363 -0.0133
 1440TIP3    H1 4284   2.375   3.586   1.827 -0.1308  1.7068 -0.5268
 1440TIP3    H2 4285   2.320   3.565   1.687 -0.5902 -0.9796  0.0110
 1441TIP3   OH2 4286   3.396   2.806   1.999  0.2901 -0.4310 -0.2528
 1441TIP3    H1 4287   3.341   2.872   2.043  0.7937 -0.0211 -0.2297
 1441TIP3    H2 4288   3.344   2.726   2.003 -0.3865 -0.0112 -0.3888
 1442TIP3   OH2 4289   2.002   6.175   0.476 -0.4988 -0.6032  0.2816
 1442TIP3    H1 4290   2.005   6.202   0.568 -0.0137 -2.3585  0.8162
 1442TIP3    H2 4291   1.910   6.185   0.452 -0.3445  1.5465  0.3843
 1443TIP3   OH2 4292   6.331   3.571   0.103 -0.1251 -1.1601 -0.1934
 1443TIP3    H1 4293   6.324   3.622   0.184  2.6133  1.4567 -1.3845
 1443TIP3    H2 4294   6.240   3.555   0.077 -1.0777 -0.4847  2.4478
 1444TIP3   OH2 4295   0.102   5.505   2.578 -0.5573 -0.0839  0.4128
 1444TIP3    H1 4296   0.084   5.556   2.658 -2.3970 -0.4662  0.2637
 1444TIP3    H2 4297   0.046   5.544   2.511 -0.1220 -0.7166 -0.3359
 1445TIP3   OH2 4298   5.192   1.624   5.286 -0.1312  0.3385 -0.2097
 1445TIP3    H1 4299   5.138   1.627   5.366  1.4951 -0.1017  0.9475
 1445TIP3    H2 4300   5.224   1.714   5.276 -1.0416  0.6005 -0.8986
 1446TIP3   OH2 4301   5.484   1.121   0.636  0.5402  0.2295 -0.2027
 1446TIP3    H1 4302   5.436   1.064   0.696 -2.2459  1.4722 -1.0862
 1446TIP3    H2 4303   5.501   1.201   0.686 -2.3329  1.5119 -1.1028
 1447TIP3   OH2 4304   0.391   4.867   0.902  0.0162  0.2104 -0.4696
 1447TIP3    H1 4305   0.301   4.839   0.913 -0.2532  1.6250  1.3207
 1447TIP3    H2 4306   0.443   4.805   0.952  0.1299 -0.8358 -1.8158
 1448TIP3   OH2 4307   2.165   3.193   0.911 -0.1908  0.2345  0.2040
 1448TIP3    H1 4308   2.092   3.139   0.880 -0.5563  0.5984  0.4227
 1448TIP3    H2 4309   2.184   3.160   0.999  1.5472 -1.5096 -0.7674
 1449TIP3   OH2 4310   2.856   4.582   5.157 -0.5477  0.4213  0.0931
 1449TIP3    H1 4311   2.889   4.662   5.198 -0.2318  0.3204  0.0405
 1449TIP3    H2 4312   2.837   4.607   5.067 -0.3643  0.4146  0.0527
 1450TIP3   OH2 4313   6.132   5.154   5.662  0.1726  0.0397 -0.2198
 1450TIP3    H1 4314   6.147   5.198   5.746  0.5952 -0.8247  0.1728
 1450TIP3    H2 4315   6.200   5.190   5.605  0.8933 -0.5226  0.2665
 1451TIP3   OH2 4316   2.103   1.063   3.284 -0.8216 -0.3969  0.3043
 1451TIP3    H1 4317   2.067   1.056   3.196 -0.3033  0.2809  0.0325
 1451TIP3    H2 4318   2.104   1.157   3.302 -0.4485 -0.4984  0.8351
 1452TIP3   OH2 4319   2.705   2.462   1.084 -0.1145 -0.1197 -0.5856
 1452TIP3    H1 4320   2.762   2.538   1.071  0.1421 -0.3755 -0.9818
 1452TIP3    H2 4321   2.727   2.429   1.171  0.1573 -0.0576 -0.6306
 1453TIP3   OH2 4322   2.033   6.078   2.441  0.2693 -0.7838 -0.0946
 1453TIP3    H1 4323   2.033   6.169   2.414 -1.2809 -0.5174  0.7020
 1453TIP3    H2 4324   1.949   6.065   2.485  0.5170 -2.5525 -0.0431
 1454TIP3   OH2 4325   4.669   1.576   4.106 -0.0365 -0.3047 -0.0747
 1454TIP3    H1 4326   4.759   1.563   4.136  0.2013 -2.5570 -1.5360
 1454TIP3    H2 4327   4.647   1.665   4.134  1.9788 -0.3527  1.9212
 1455TIP3   OH2 4328   0.498   4.633   1.074  0.0541 -0.0011 -0.1488
 1455TIP3    H1 4329   0.446   4.601   1.000  0.5359  0.3467 -0.6410
 1455TIP3    H2 4330   0.509   4.556   1.130 -0.8203 -0.1314 -0.1289
 1456TIP3   OH2 4331   0.502   4.198   3.143 -0.0851  0.1813 -0.1190
 1456TIP3    H1 4332   0.497   4.154   3.058  1.0502 -0.1183 -0.0497
 1456TIP3    H2 4333   0.475   4.131   3.206 -2.2480  0.7947 -0.3156
 1457TIP3   OH2 4334   0.319   3.646   4.516  0.4686  0.2957  0.0045
 1457TIP3    H1 4335   0.304   3.681   4.604  1.1364  0.1328  0.1905
 1457TIP3    H2 4336   0.276   3.560   4.517 -1.0348  1.0256 -0.4036
 1458TIP3   OH2 4337   3.844   6.396   4.200 -0.0239 -0.3912  0.2694
 1458TIP3    H1 4338   3.872   6.435   4.117  1.3494  1.2079  1.4072
 1458TIP3    H2 4339   3.753   6.369   4.185 -0.4013  1.5180 -1.2134
 1459TIP3   OH2 4340   0.510   3.234   2.832  0.4738 -0.0092  1.1546
 1459TIP3    H1 4341   0.466   3.186   2.761  1.7386  0.7788 -0.2236
 1459TIP3    H2 4342   0.468   3.320   2.832  0.6682  0.0853  1.1628
 1460TIP3   OH2 4343   6.778   6.377   5.221  0.0233  0.7289  0.7131
 1460TIP3    H1 4344   6.871   6.356   5.228 -0.1781 -0.2702  0.5591
 1460TIP3    H2 4345   6.757   6.362   5.129 -0.1805  1.4463  0.6394
 1461TIP3   OH2 4346   1.265   6.580   3.969  0.1267 -0.1887  0.6395
 1461TIP3    H1 4347   1.289   6.652   3.912  0.4710  0.8966  2.0987
 1461TIP3    H2 4348   1.343   6.524   3.971 -0.1862 -0.7005 -0.5926
 1462TIP3   OH2 4349   6.767   5.435   3.201 -0.9630  0.0508 -0.1475
 1462TIP3    H1 4350   6.693   5.402   3.252 -0.3828  0.7319  1.1754
 1462TIP3    H2 4351   6.830   5.363   3.200 -1.4057 -0.3431 -0.8371
 1463TIP3   OH2 4352   4.189   2.361   1.472  0.1168 -0.0993 -0.7678
 1463TIP3    H1 4353   4.177   2.335   1.563 -0.0750  1.0510 -0.4517
 1463TIP3    H2 4354   4.276   2.401   1.470 -0.3059  0.8286 -0.8554
 1464TIP3   OH2 4355   6.372   3.994   1.523 -0.5176  0.2924  0.0658
 1464TIP3    H1 4356   6.460   4.012   1.555  0.3070 -1.0288 -1.3501
 1464TIP3    H2 4357   6.326   3.957   1.598 -0.2131  1.9128  1.0968
 1465TIP3   OH2 4358   1.565   3.062   3.711 -0.2331 -0.2291  0.3546
 1465TIP3    H1 4359   1.506   2.986   3.716  0.8425 -1.0443  1.4907
 1465TIP3    H2 4360   1.601   3.059   3.623 -0.6079 -0.7402  0.2171
 1466TIP3   OH2 4361   7.042   6.431   3.584 -0.3540  0.1980  0.3636
 1466TIP3    H1 4362   7.009   6.402   3.499 -2.4178  1.7142  0.5616
 1466TIP3    H2 4363   7.034   6.527   3.581  1.0777  0.3872  1.6732
 1467TIP3   OH2 4364   2.736   5.376   1.216 -0.0284 -0.1996  0.4229
 1467TIP3    H1 4365   2.657   5.321   1.212 -2.1289  2.6175  0.2730
 1467TIP3    H2 4366   2.782   5.346   1.294 -1.7097 -1.3597  1.0337
 1468TIP3   OH2 4367   1.656   4.393   4.429  0.1592 -0.0634  0.1692
 1468TIP3    H1 4368   1.680   4.317   4.481 -0.4721 -1.0245 -0.8898
 1468TIP3    H2 4369   1.684   4.371   4.340 -3.6820 -0.9351 -1.0258
 1469TIP3   OH2 4370   0.878   2.234   2.690  0.1854  0.7988  0.0512
 1469TIP3    H1 4371   0.789   2.203   2.672 -0.5021  1.8191  1.5354
 1469TIP3    H2 4372   0.923   2.227   2.605 -0.8957 -0.9920 -0.4300
 1470TIP3   OH2 4373   3.017   3.323   4.753 -0.3874 -0.4368  0.7041
 1470TIP3    H1 4374   3.018   3.324   4.849 -0.1684  1.0310  0.7126
 1470TIP3    H2 4375   3.054   3.407   4.728 -0.2582 -0.8805 -0.6876
 1471TIP3   OH2 4376   0.732   5.427   4.534 -0.0138 -0.2843 -0.6723
 1471TIP3    H1 4377   0.758   5.516   4.513  0.0977 -0.6555 -2.2414
 1471TIP3    H2 4378   0.781   5.406   4.614  1.0968  0.5503 -1.1105
 1472TIP3   OH2 4379   4.528   5.358   2.055  0.1491  0.5265  0.0337
 1472TIP3    H1 4380   4.488   5.355   2.141 -0.4701 -0.7202 -0.2749
 1472TIP3    H2 4381   4.613   5.400   2.069 -0.5517  1.6675  0.9796
 1473TIP3   OH2 4382   2.676   5.640   4.543 -0.0957  0.1175  0.2348
 1473TIP3    H1 4383   2.646   5.603   4.460  0.8785 -2.0540  0.7693
 1473TIP3    H2 4384   2.711   5.726   4.520  0.6146 -0.6366 -1.6936
 1474TIP3   OH2 4385   1.653   2.526   2.855 -0.1238 -0.1792  0.3419
 1474TIP3    H1 4386   1.613   2.537   2.769 -0.9921 -0.7333  0.6676
 1474TIP3    H2 4387   1.745   2.506   2.836 -0.5211 -1.2900 -0.4960
 1475TIP3   OH2 4388   3.649   0.793   5.469 -0.5463 -0.4511 -0.2566
 1475TIP3    H1 4389   3.566   0.804   5.515  0.3229 -0.6953  1.4681
 1475TIP3    H2 4390   3.706   0.748   5.533  0.8485 -0.4483 -1.4446
 1476TIP3   OH2 4391   6.059   2.682   0.494 -0.5972 -0.0581 -0.0499
 1476TIP3    H1 4392   6.152   2.692   0.475 -0.6845  0.4679 -0.2182
 1476TIP3    H2 4393   6.022   2.648   0.413 -0.0999 -3.1510  0.8984
 1477TIP3   OH2 4394   5.259   2.210   5.661  0.2647 -0.4226 -0.6146
 1477TIP3    H1 4395   5.205   2.136   5.635 -0.9171  0.9151 -2.2300
 1477TIP3    H2 4396   5.279   2.256   5.579  1.0696  0.9464  0.2981
 1478TIP3   OH2 4397   1.804   5.745   3.180 -0.0292 -0.6351 -0.0942
 1478TIP3    H1 4398   1.754   5.755   3.261 -0.7524 -1.0960 -0.4671
 1478TIP3    H2 4399   1.822   5.835   3.152  1.1688 -0.4739  1.1284
 1479TIP3   OH2 4400   2.417   4.903   1.480 -0.6220  0.1689  0.0755
 1479TIP3    H1 4401   2.352   4.972   1.470  0.0567  1.0983  1.6288
 1479TIP3    H2 4402   2.412   4.852   1.399 -2.4463  0.9102 -0.3144
 1480TIP3   OH2 4403   5.350   3.368   1.646  0.1590  1.0168 -0.0842
 1480TIP3    H1 4404   5.330   3.384   1.738  2.0167 -2.8798  1.2231
 1480TIP3    H2 4405   5.445   3.368   1.641  0.1094  0.6094 -1.9226
 1481TIP3   OH2 4406   3.138   1.622   3.831  0.5696  0.1775  0.2702
 1481TIP3    H1 4407   3.166   1.708   3.798  1.1224  0.3529  1.1490
 1481TIP3    H2 4408   3.208   1.562   3.803  0.2671  0.0450 -0.2006
 1482TIP3   OH2 4409   1.182   2.939   0.821  0.2162 -0.4252  0.1210
 1482TIP3    H1 4410   1.194   2.844   0.822  2.2051 -0.2130 -0.3280
 1482TIP3    H2 4411   1.270   2.975   0.825 -0.5312  1.4398  1.1575
 1483TIP3   OH2 4412   1.793   2.266   5.710 -0.0239  0.8313  0.6880
 1483TIP3    H1 4413   1.770   2.358   5.723  0.8741  1.1327  0.2139
 1483TIP3    H2 4414   1.756   2.244   5.624 -1.0117  0.4807  1.1884
 1484TIP3   OH2 4415   1.247   2.417   4.753  0.3321  0.3983 -0.2769
 1484TIP3    H1 4416   1.259   2.333   4.707 -0.4885 -0.2212  0.6037
 1484TIP3    H2 4417   1.172   2.457   4.708  1.6606  1.3960 -1.6983
 1485TIP3   OH2 4418   4.107   1.120   3.852  0.0552  0.2397  0.0248
 1485TIP3    H1 4419   4.040   1.055   3.832  0.6124 -1.0613  2.1072
 1485TIP3    H2 4420   4.146   1.141   3.767 -1.1471 -1.0257 -0.8804
 1486TIP3   OH2 4421   4.039   2.586   0.728  0.2605  0.5511 -0.0120
 1486TIP3    H1 4422   4.003   2.607   0.642  1.7961  1.5604 -0.4371
 1486TIP3    H2 4423   4.032   2.666   0.778 -0.3168  0.0615  0.7036
 1487TIP3   OH2 4424   6.910   2.797   4.557 -0.0193 -0.1301  0.5648
 1487TIP3    H1 4425   6.840   2.770   4.617  0.0292 -1.9650 -0.1602
 1487TIP3    H2 4426   6.867   2.806   4.472  0.1827  1.1221  0.5737
 1488TIP3   OH2 4427   1.381   5.113   2.575 -0.0214 -0.9632 -0.0065
 1488TIP3    H1 4428   1.400   5.092   2.667 -2.0299  0.5551  0.8335
 1488TIP3    H2 4429   1.306   5.058   2.553  0.6397 -1.5429 -0.8648
 1489TIP3   OH2 4430   5.645   2.375   5.564 -0.2412  0.2211  0.3327
 1489TIP3    H1 4431   5.675   2.362   5.474  1.5590 -0.7421  0.9978
 1489TIP3    H2 4432   5.629   2.469   5.571 -0.3036  0.3247 -0.9565
 1490TIP3   OH2 4433   6.557   4.670   0.172  0.1317 -0.1698  0.3970
 1490TIP3    H1 4434   6.595   4.597   0.123 -0.0580  0.0453 -0.0806
 1490TIP3    H2 4435   6.626   4.736   0.176 -0.5966  0.8014 -1.6998
 1491TIP3   OH2 4436   2.907   3.391   2.466 -0.2018 -0.2276 -0.4649
 1491TIP3    H1 4437   2.933   3.304   2.496  0.9653  0.2118 -0.1670
 1491TIP3    H2 4438   2.961   3.408   2.389  0.8234  0.8948  0.4511
 1492TIP3   OH2 4439   6.316   0.039   3.580  0.1969  0.5568 -0.0707
 1492TIP3    H1 4440   6.282   0.039   3.669  0.4405 -3.1950  0.1660
 1492TIP3    H2 4441   6.244   0.008   3.526  0.7706  0.4825 -0.8211
 1493TIP3   OH2 4442   5.187   5.101   2.927  0.5189  0.3324  0.1534
 1493TIP3    H1 4443   5.259   5.039   2.945  1.2107  0.3590 -2.2003
 1493TIP3    H2 4444   5.213   5.181   2.973 -0.0784 -0.8562  2.7258
 1494TIP3   OH2 4445   6.355   4.611   3.848 -0.2459 -0.0260 -0.2078
 1494TIP3    H1 4446   6.337   4.677   3.915 -1.0893  0.2411 -0.6932
 1494TIP3    H2 4447   6.272   4.599   3.803  0.7005  1.1219 -2.3916
 1495TIP3   OH2 4448   4.597   6.416   5.375  0.3736 -0.8454  0.1084
 1495TIP3    H1 4449   4.689   6.441   5.382  0.2999 -0.4332 -0.3838
 1495TIP3    H2 4450   4.562   6.429   5.463  1.3762 -3.4557  1.0154
 1496TIP3   OH2 4451   0.663   0.555   1.424 -0.2614 -0.0744  0.3683
 1496TIP3    H1 4452   0.616   0.536   1.506 -0.5782 -0.0799  0.1852
 1496TIP3    H2 4453   0.734   0.613   1.451  0.9019 -1.7010  0.9893
 1497TIP3   OH2 4454   1.421   1.493   0.695  0.1070 -0.2196  0.1897
 1497TIP3    H1 4455   1.463   1.456   0.772 -1.1192 -0.2495  0.8645
 1497TIP3    H2 4456   1.439   1.587   0.701 -0.5685 -0.1263  0.9030
 1498TIP3   OH2 4457   4.782   6.141   0.391  0.4444  0.3366  0.0094
 1498TIP3    H1 4458   4.850   6.082   0.361  1.4943  1.7458 -0.4754
 1498TIP3    H2 4459   4.813   6.171   0.477  1.2004  2.0800 -0.8250
 1499TIP3   OH2 4460   1.678   4.433   5.854 -0.3301 -0.3883 -0.3212
 1499TIP3    H1 4461   1.673   4.353   5.906 -0.6927  0.6122  1.2417
 1499TIP3    H2 4462   1.771   4.442   5.832  0.2280  0.3012  2.0555
 1500TIP3   OH2 4463   7.021   0.789   3.527  0.3441  0.2344  0.2021
 1500TIP3    H1 4464   7.081   0.750   3.590  0.3551  1.1101  0.7567
 1500TIP3    H2 4465   6.934   0.768   3.561  0.3426  1.6342  1.1401
 1501TIP3   OH2 4466   5.916   3.156   3.408  0.0287 -0.1766  0.4511
 1501TIP3    H1 4467   5.944   3.081   3.356 -0.2235  0.1294 -0.1357
 1501TIP3    H2 4468   5.963   3.147   3.491  1.8642  0.3044 -0.4695
 1502TIP3   OH2 4469   2.905   6.016   5.012  0.0524  0.5073 -0.0924
 1502TIP3    H1 4470   2.839   5.967   5.061  3.0145 -2.4750  1.2656
 1502TIP3    H2 4471   2.918   6.095   5.064 -0.7649  0.0249  0.9014
 1503TIP3   OH2 4472   3.094   4.432   0.051 -0.1435 -0.1672 -0.0873
 1503TIP3    H1 4473   3.104   4.523   0.080 -0.6101 -0.2447  0.3189
 1503TIP3    H2 4474   3.000   4.421   0.037 -0.0824 -0.5724 -0.1951
 1504TIP3   OH2 4475   5.001   0.053   0.876 -0.6858  0.3368  0.4233
 1504TIP3    H1 4476   4.980  -0.031   0.835 -1.2617  0.6808  0.0077
 1504TIP3    H2 4477   5.080   0.083   0.832 -0.2730 -0.1520  0.8174
 1505TIP3   OH2 4478   2.635   6.777   3.242  0.1876  0.0676 -0.3717
 1505TIP3    H1 4479   2.664   6.750   3.155  1.1883  0.4705 -0.1682
 1505TIP3    H2 4480   2.642   6.697   3.296 -1.3898 -0.4507 -0.8620
 1506TIP3   OH2 4481   0.923   5.275   0.038 -0.5701 -0.2411  0.1101
 1506TIP3    H1 4482   0.899   5.291  -0.053 -1.4715  0.0286  0.3839
 1506TIP3    H2 4483   0.877   5.195   0.062 -1.2474  0.2864  0.6433
 1507TIP3   OH2 4484   2.502   6.783   0.090  0.2752  0.5517  0.2343
 1507TIP3    H1 4485   2.554   6.713   0.128 -1.2294  0.7450  2.8484
 1507TIP3    H2 4486   2.565   6.854   0.074  1.1718 -0.0073  1.2140
 1508TIP3   OH2 4487   0.593   1.618   5.003  0.0911  0.0633 -0.1647
 1508TIP3    H1 4488   0.507   1.659   4.993  0.0826  0.0296 -0.2305
 1508TIP3    H2 4489   0.588   1.538   4.950  0.6151  0.7417 -1.2693
 1509TIP3   OH2 4490   2.811   0.626   3.694  0.1922  0.3425 -0.2912
 1509TIP3    H1 4491   2.877   0.581   3.642  1.7203  1.2887  0.7259
 1509TIP3    H2 4492   2.843   0.618   3.784 -0.7237  1.4146  0.1463
 1510TIP3   OH2 4493   1.981   3.362   5.514  0.6856 -0.0248  0.4232
 1510TIP3    H1 4494   1.916   3.397   5.575  1.4951  0.8334  0.8152
 1510TIP3    H2 4495   2.019   3.288   5.561  1.3756  0.6924  1.0288
 1511TIP3   OH2 4496   2.744   4.084   1.753  0.5240 -0.1215  0.3564
 1511TIP3    H1 4497   2.667   4.067   1.699  1.0322 -1.5816  0.0624
 1511TIP3    H2 4498   2.724   4.167   1.797 -1.2299 -0.4762  0.3071
 1512TIP3   OH2 4499   6.482   0.663   5.832 -0.3746  0.0560 -0.4601
 1512TIP3    H1 4500   6.439   0.742   5.865  0.6122 -1.0064  4.0102
 1512TIP3    H2 4501   6.574   0.675   5.855 -0.0631 -2.0538 -0.4295
 1513TIP3   OH2 4502   1.612   3.705   0.529 -0.2138 -0.3887 -0.2358
 1513TIP3    H1 4503   1.626   3.800   0.527  0.8231 -0.4545  1.2976
 1513TIP3    H2 4504   1.658   3.677   0.608 -0.2484 -2.2196 -0.8284
 1514TIP3   OH2 4505   2.177   4.047   3.619 -0.4609  0.2453 -0.5621
 1514TIP3    H1 4506   2.115   4.012   3.555 -2.6269  1.6975  0.6242
 1514TIP3    H2 4507   2.125   4.064   3.697  1.7610  0.1098  1.0702
 1515TIP3   OH2 4508   6.145   5.000   0.470 -0.4729  0.2070 -0.6438
 1515TIP3    H1 4509   6.068   5.040   0.431 -1.7198 -1.8779 -0.4755
 1515TIP3    H2 4510   6.177   5.064   0.534 -2.8462  0.6029  0.2177
 1516TIP3   OH2 4511   2.335   5.960   5.688 -0.0248 -0.1400  0.2790
 1516TIP3    H1 4512   2.249   5.946   5.727 -0.6025 -1.4451 -1.3529
 1516TIP3    H2 4513   2.317   5.993   5.599  1.1207 -1.1616 -0.3694
 1517TIP3   OH2 4514   3.305   5.424   2.186  0.4602  0.4284  0.2304
 1517TIP3    H1 4515   3.274   5.436   2.096  1.0849  1.6098  0.1542
 1517TIP3    H2 4516   3.400   5.415   2.178  0.3127 -1.9914  0.5685
 1518TIP3   OH2 4517   3.898   1.601   2.681 -0.0961  0.4017 -0.1977
 1518TIP3    H1 4518   3.846   1.545   2.624 -0.3365 -0.5316  0.8911
 1518TIP3    H2 4519   3.840   1.674   2.703  0.3427  1.3175 -1.9148
 1519TIP3   OH2 4520   7.068   2.976   4.728 -0.6166 -0.1567  0.1198
 1519TIP3    H1 4521   7.003   2.943   4.790 -2.3563 -0.5560 -1.8224
 1519TIP3    H2 4522   7.080   2.905   4.666 -0.3503  0.9016 -1.0818
 1520TIP3   OH2 4523   1.435   4.120   0.362 -0.0536  0.3038 -0.3729
 1520TIP3    H1 4524   1.520   4.127   0.319 -0.3981  0.4568 -1.0520
 1520TIP3    H2 4525   1.423   4.205   0.405  1.5608 -0.7782  2.5376
 1521TIP3   OH2 4526   5.771   1.402   3.623 -0.3728 -0.0530 -0.2399
 1521TIP3    H1 4527   5.719   1.328   3.653 -0.1047 -0.5520 -0.9983
 1521TIP3    H2 4528   5.773   1.393   3.528  0.1291  0.6161 -0.2983
 1522TIP3   OH2 4529   7.091   2.946   3.817  0.0480 -0.2797  0.0717
 1522TIP3    H1 4530   7.062   2.939   3.726 -2.5175  0.5046  0.7514
 1522TIP3    H2 4531   7.146   3.024   3.818  0.6302 -0.6546 -0.9160
 1523TIP3   OH2 4532   6.826   0.021   4.219 -0.5946  0.0933  0.4729
 1523TIP3    H1 4533   6.906   0.073   4.214 -0.5476  0.0157  0.4081
 1523TIP3    H2 4534   6.855  -0.069   4.204 -0.4644 -0.1510  2.0996
 1524TIP3   OH2 4535   1.742   4.655   5.019  0.4281  0.5624 -0.8424
 1524TIP3    H1 4536   1.737   4.646   5.115  1.0044 -0.3418 -0.8866
 1524TIP3    H2 4537   1.672   4.598   4.986  1.4359 -0.6306 -1.0000
 1525TIP3   OH2 4538   1.656   1.569   3.390 -0.0481  0.3703 -0.0448
 1525TIP3    H1 4539   1.712   1.503   3.349 -1.2323 -0.7847  0.1223
 1525TIP3    H2 4540   1.635   1.630   3.319 -0.5895 -0.5967 -0.7438
 1526TIP3   OH2 4541   6.749   4.989   3.531 -0.3038  0.0685 -0.0790
 1526TIP3    H1 4542   6.719   4.904   3.500  2.9531 -0.5442 -2.0900
 1526TIP3    H2 4543   6.762   5.041   3.452  0.5117  1.4135  0.8915
 1527TIP3   OH2 4544   5.291   5.942   4.074 -0.3102  0.2592  0.2357
 1527TIP3    H1 4545   5.328   5.854   4.080 -1.6808 -0.6476 -2.6289
 1527TIP3    H2 4546   5.365   6.001   4.085  1.3465 -1.3699 -1.6102
 1528TIP3   OH2 4547   6.477   6.749   4.836  0.2986  0.5323  0.3263
 1528TIP3    H1 4548   6.428   6.802   4.772  0.2417  0.0607 -0.0281
 1528TIP3    H2 4549   6.442   6.776   4.921 -1.7844 -0.9243  0.0303
 1529TIP3   OH2 4550   5.930   3.751   0.340 -0.6609  0.4219 -0.0472
 1529TIP3    H1 4551   5.894   3.758   0.251  0.6869  0.6436 -0.6058
 1529TIP3    H2 4552   5.880   3.815   0.391 -0.3634  1.4690 -1.0334
 1530TIP3   OH2 4553   5.065   2.919   1.480  0.2598 -0.3101 -0.0811
 1530TIP3    H1 4554   5.029   2.857   1.543  0.4861 -2.0218 -1.5399
 1530TIP3    H2 4555   5.078   3.000   1.529  0.9840 -1.7358  2.1987
 1531TIP3   OH2 4556   3.221   1.998   4.118  0.1429 -0.1366  0.2238
 1531TIP3    H1 4557   3.257   2.008   4.206  0.9323 -0.5653 -0.0444
 1531TIP3    H2 4558   3.146   2.059   4.115  0.5622  0.4191  0.9377
 1532TIP3   OH2 4559   6.032   2.921   3.287 -0.0935 -0.3206  0.2796
 1532TIP3    H1 4560   6.088   2.845   3.269  1.2093  0.3751  1.2073
 1532TIP3    H2 4561   6.094   2.992   3.305 -1.2933  0.6446  0.7231
 1533TIP3   OH2 4562   6.736   1.170   5.129 -0.8080 -0.0349  0.1820
 1533TIP3    H1 4563   6.770   1.134   5.210  0.1280 -2.1457 -1.0599
 1533TIP3    H2 4564   6.813   1.185   5.074 -1.3190  2.3943  0.0116
 1534TIP3   OH2 4565   5.906   4.529   2.704 -0.4587  0.0114  0.0236
 1534TIP3    H1 4566   5.854   4.522   2.784 -0.5076  1.6624  0.1747
 1534TIP3    H2 4567   5.843   4.554   2.637 -0.2215 -0.1646 -0.2643
 1535TIP3   OH2 4568   0.151   1.725   2.003  0.1149  0.1055 -0.1473
 1535TIP3    H1 4569   0.127   1.703   2.093 -3.3104  0.9441 -0.7062
 1535TIP3    H2 4570   0.217   1.794   2.013  0.3401 -0.2989  1.6827
 1536TIP3   OH2 4571   4.556   0.782   4.380  0.5161  0.3620  0.1822
 1536TIP3    H1 4572   4.479   0.779   4.324 -2.1363 -0.0192  3.5448
 1536TIP3    H2 4573   4.612   0.711   4.349 -1.8692 -1.2852 -0.5597
 1537TIP3   OH2 4574   4.375   3.480   4.835 -0.6710  0.0539 -0.1746
 1537TIP3    H1 4575   4.335   3.445   4.755 -0.3218  2.3394 -1.4252
 1537TIP3    H2 4576   4.343   3.570   4.840  2.0037  1.0564  0.3436
 1538TIP3   OH2 4577   3.236   4.012   1.024  0.2643  0.0185 -0.3610
 1538TIP3    H1 4578   3.228   4.085   1.085  0.2060  0.2557 -0.6518
 1538TIP3    H2 4579   3.251   3.936   1.080  0.1200  0.2206 -0.0444
 1539TIP3   OH2 4580   1.927   3.238   4.075 -0.1735  0.6054 -0.0651
 1539TIP3    H1 4581   1.840   3.243   4.114 -0.3849 -1.6655 -0.1283
 1539TIP3    H2 4582   1.984   3.279   4.140 -0.9914  0.0624  1.0489
 1540TIP3   OH2 4583   0.505   4.736   4.879 -0.5094 -0.5628  0.0761
 1540TIP3    H1 4584   0.556   4.659   4.906  1.1539  0.5294  0.1925
 1540TIP3    H2 4585   0.432   4.738   4.941 -0.7529 -2.1937 -0.1078
 1541TIP3   OH2 4586   2.977   2.880   2.579 -0.1777  0.2351 -0.2047
 1541TIP3    H1 4587   2.885   2.870   2.558  0.2010  0.2676 -2.1150
 1541TIP3    H2 4588   2.997   2.807   2.638 -1.3803  0.1740  0.1545
 1542TIP3   OH2 4589   4.053   6.222   5.192  0.4146  0.1916  0.4983
 1542TIP3    H1 4590   4.129   6.215   5.250  0.1382 -0.2462  0.8166
 1542TIP3    H2 4591   4.014   6.307   5.211  0.7164  0.3371  0.4658
 1543TIP3   OH2 4592   4.989   3.795   4.748 -0.4314  0.3515 -0.1526
 1543TIP3    H1 4593   5.056   3.845   4.702 -1.5547  1.5193 -0.5681
 1543TIP3    H2 4594   5.035   3.718   4.782  1.1316  1.1991 -0.2971
 1544TIP3   OH2 4595   0.217   1.693   1.482  0.4536 -0.1774  0.1812
 1544TIP3    H1 4596   0.297   1.744   1.498 -0.0683  0.6927  0.0750
 1544TIP3    H2 4597   0.158   1.719   1.553 -0.1353  0.0378 -0.3830
 1545TIP3   OH2 4598   5.435   4.283   1.760 -0.0749  0.2895 -0.2744
 1545TIP3    H1 4599   5.418   4.338   1.684  0.7926  2.0555  0.7682
 1545TIP3    H2 4600   5.474   4.203   1.723 -1.3279  0.3303 -1.8035
 1546TIP3   OH2 4601   6.585   0.306   3.077 -0.2094 -0.7875 -0.5783
 1546TIP3    H1 4602   6.660   0.364   3.062 -2.1164  1.7602 -0.8574
 1546TIP3    H2 4603   6.561   0.275   2.990 -2.5571  2.5919 -1.2852
 1547TIP3   OH2 4604   5.030   6.754   2.722  0.2435  0.0697  0.2031
 1547TIP3    H1 4605   4.956   6.744   2.781 -0.5640  1.8197 -0.4420
 1547TIP3    H2 4606   5.004   6.705   2.643 -1.1294  2.1385 -0.7344
 1548TIP3   OH2 4607   2.535   1.235   2.940  0.1127  0.3117 -0.0772
 1548TIP3    H1 4608   2.529   1.313   2.884  0.8647 -0.1634 -0.8442
 1548TIP3    H2 4609   2.608   1.186   2.904 -0.6323 -0.9786  0.1051
 1549TIP3   OH2 4610   6.764   4.448   3.752  0.3960  0.0215  0.2943
 1549TIP3    H1 4611   6.809   4.524   3.713 -2.2295  0.7544 -1.5743
 1549TIP3    H2 4612   6.675   4.454   3.719 -0.8003 -2.0345  2.8573
 1550TIP3   OH2 4613   1.356   1.943   3.785  0.5230  0.6394 -0.5050
 1550TIP3    H1 4614   1.299   2.019   3.800 -0.1370  0.0975 -0.2606
 1550TIP3    H2 4615   1.302   1.867   3.807  0.8703  0.0328 -1.6486
 1551TIP3   OH2 4616   4.558   2.090   5.752  0.0600  0.1287 -0.9871
 1551TIP3    H1 4617   4.515   2.158   5.804  0.8408  0.1822 -0.3890
 1551TIP3    H2 4618   4.646   2.082   5.790 -0.2780 -1.7975 -0.5188
 1552TIP3   OH2 4619   2.785   2.635   5.729  0.7538  0.8041 -0.3700
 1552TIP3    H1 4620   2.859   2.658   5.785 -0.0871  2.8241 -0.0021
 1552TIP3    H2 4621   2.723   2.590   5.787  1.5504 -0.7341 -0.6417
 1553TIP3   OH2 4622   0.337   4.862   4.307  0.1248 -0.0120  0.1524
 1553TIP3    H1 4623   0.317   4.778   4.348  0.4301 -1.7670 -2.9711
 1553TIP3    H2 4624   0.417   4.891   4.350  0.4416 -1.7106  0.7841
 1554TIP3   OH2 4625   4.321   4.538   2.969 -0.6764  0.2969 -0.3740
 1554TIP3    H1 4626   4.395   4.588   2.933 -0.6370 -0.6223 -1.6341
 1554TIP3    H2 4627   4.244   4.578   2.930 -1.0200  2.0691  1.8971
 1555TIP3   OH2 4628   1.124   6.326   2.311 -0.6745  0.0385  0.0694
 1555TIP3    H1 4629   1.086   6.362   2.391  1.5733  1.5028  0.5626
 1555TIP3    H2 4630   1.100   6.233   2.313 -1.7806  0.3034  1.7291
 1556TIP3   OH2 4631   0.028   5.763   1.187 -0.6796  0.0157  0.4890
 1556TIP3    H1 4632  -0.043   5.790   1.128 -1.1507  0.4184  1.2140
 1556TIP3    H2 4633   0.102   5.745   1.129 -1.1802  0.2227 -0.2352
 1557TIP3   OH2 4634   3.530   6.219   5.495 -0.1236  0.1317  0.4452
 1557TIP3    H1 4635   3.445   6.216   5.450 -0.7981  1.0019  1.6032
 1557TIP3    H2 4636   3.513   6.268   5.575  1.1973 -0.7715  1.3200
 1558TIP3   OH2 4637   1.679   0.620   5.822  0.5264 -0.2401  0.2197
 1558TIP3    H1 4638   1.702   0.592   5.911  0.4937  0.8458  0.5879
 1558TIP3    H2 4639   1.650   0.541   5.778 -1.3654 -0.4779  1.7767
 1559TIP3   OH2 4640   5.435   6.709   1.948 -0.4896  0.6753  0.0647
 1559TIP3    H1 4641   5.483   6.790   1.930  0.2403  0.5004  1.1443
 1559TIP3    H2 4642   5.386   6.727   2.028 -2.0130  0.7422 -0.8495
 1560TIP3   OH2 4643   6.216   1.661   4.903 -0.0844  0.4317  0.1420
 1560TIP3    H1 4644   6.277   1.710   4.959  1.3731 -0.7945 -0.3069
 1560TIP3    H2 4645   6.214   1.573   4.941  0.5487 -0.2902 -1.3976
 1561TIP3   OH2 4646   4.349   5.476   1.078  1.0176  0.3709  0.4949
 1561TIP3    H1 4647   4.398   5.400   1.046 -0.6577  0.2391 -1.9690
 1561TIP3    H2 4648   4.349   5.464   1.173  1.4157 -2.3413  0.2546
 1562TIP3   OH2 4649   6.424   2.166   5.396 -0.0539  0.1577 -0.0585
 1562TIP3    H1 4650   6.493   2.166   5.463  0.2014  1.0193 -0.3077
 1562TIP3    H2 4651   6.400   2.073   5.386 -0.6871  0.0865  1.8065
 1563TIP3   OH2 4652   0.459   1.738   4.565  0.1419  0.1335 -0.5220
 1563TIP3    H1 4653   0.553   1.727   4.547  0.0854  0.5321 -1.0905
 1563TIP3    H2 4654   0.416   1.709   4.485 -0.2413 -0.3859 -0.1295
 1564TIP3   OH2 4655   0.855   3.397   2.111 -0.6579 -0.9771  0.1559
 1564TIP3    H1 4656   0.934   3.392   2.163 -0.3838 -2.1712 -0.3478
 1564TIP3    H2 4657   0.874   3.346   2.032 -0.5690  1.8332 -1.7982
 1565TIP3   OH2 4658   3.203   1.868   1.191  0.0421 -0.5082 -0.2437
 1565TIP3    H1 4659   3.138   1.931   1.160 -0.3098 -0.4684  0.5487
 1565TIP3    H2 4660   3.153   1.789   1.211 -0.0234 -0.0032  1.7838
 1566TIP3   OH2 4661   6.607   5.234   0.779  0.4767 -0.2092 -0.4551
 1566TIP3    H1 4662   6.632   5.239   0.871 -2.0315  1.4180  0.2408
 1566TIP3    H2 4663   6.600   5.140   0.762 -0.2470 -0.5529  1.4397
 1567TIP3   OH2 4664   4.346   0.828   4.203 -0.1010 -0.4160 -0.3520
 1567TIP3    H1 4665   4.284   0.813   4.131  0.1348  0.3893 -0.7237
 1567TIP3    H2 4666   4.294   0.872   4.271 -0.0862 -0.3164 -0.4062
 1568TIP3   OH2 4667   1.502   0.275   3.230 -0.0322 -0.0664 -0.0644
 1568TIP3    H1 4668   1.593   0.258   3.253  0.0954  0.2337 -0.3455
 1568TIP3    H2 4669   1.474   0.196   3.182 -0.1377 -0.4595  0.6239
 1569TIP3   OH2 4670   0.763   5.599   3.395  0.4070 -0.2923  0.2855
 1569TIP3    H1 4671   0.780   5.504   3.398 -1.5638 -0.6743  2.3294
 1569TIP3    H2 4672   0.669   5.606   3.380  0.6851  1.3958 -0.8740
 1570TIP3   OH2 4673   5.276   3.150   0.180 -0.1405  0.0466 -0.2567
 1570TIP3    H1 4674   5.219   3.073   0.184 -1.7168  1.1710  0.2234
 1570TIP3    H2 4675   5.237   3.205   0.113  0.5868  0.7093 -0.1491
 1571TIP3   OH2 4676   6.202   3.607   1.664  0.5424 -0.3458  0.1858
 1571TIP3    H1 4677   6.131   3.585   1.603  0.0174  1.8287 -0.0569
 1571TIP3    H2 4678   6.281   3.602   1.611  0.4387 -1.2915  0.0866
 1572TIP3   OH2 4679   5.997   5.159   1.951 -0.0118  0.2674 -0.4772
 1572TIP3    H1 4680   5.931   5.205   2.003  0.0504  0.8541 -0.9040
 1572TIP3    H2 4681   5.967   5.168   1.861  0.6539  0.5373 -0.6747
 1573TIP3   OH2 4682   5.261   1.720   1.092  0.6289  0.5858 -0.2569
 1573TIP3    H1 4683   5.350   1.742   1.066  1.1792  0.1620  1.1381
 1573TIP3    H2 4684   5.210   1.723   1.011  2.3842 -1.6060 -1.5664
 1574TIP3   OH2 4685   4.997   0.084   4.903  0.3502 -0.0821  0.8912
 1574TIP3    H1 4686   4.937   0.139   4.853 -1.8368 -2.0992  1.1315
 1574TIP3    H2 4687   5.035   0.026   4.837 -0.3351 -0.8300  1.1408
 1575TIP3   OH2 4688   2.910   4.470   4.260 -0.3950 -0.3324 -0.3517
 1575TIP3    H1 4689   2.828   4.435   4.295  0.1940 -3.1914 -1.5857
 1575TIP3    H2 4690   2.929   4.416   4.183  3.3496 -0.7586  0.6492
 1576TIP3   OH2 4691   1.260   0.712   1.935  0.7428  0.1384  0.3177
 1576TIP3    H1 4692   1.292   0.624   1.958 -1.0368 -0.7251 -0.3475
 1576TIP3    H2 4693   1.315   0.739   1.862  0.2861 -1.1202 -0.5204
 1577TIP3   OH2 4694   3.301   2.502   3.691  0.8152  0.0047 -0.8693
 1577TIP3    H1 4695   3.365   2.532   3.755 -1.0672  2.7929 -0.0782
 1577TIP3    H2 4696   3.288   2.577   3.632 -3.3175  0.6593  0.4763
 1578TIP3   OH2 4697   6.061   2.007   5.379  0.1200 -0.2910 -0.1319
 1578TIP3    H1 4698   5.995   1.943   5.354 -0.6185  1.0479 -1.7979
 1578TIP3    H2 4699   6.086   2.050   5.297  2.0984  0.1444  0.6523
 1579TIP3   OH2 4700   6.276   3.380   3.567 -0.0594  0.4830  0.1375
 1579TIP3    H1 4701   6.355   3.329   3.586  0.8777  1.6314 -0.5535
 1579TIP3    H2 4702   6.308   3.466   3.542 -1.6240  2.3141  3.6812
 1580TIP3   OH2 4703   0.150   4.034   4.140 -0.6718 -0.5533  0.3607
 1580TIP3    H1 4704   0.108   4.050   4.225  2.0171  0.5733  1.5823
 1580TIP3    H2 4705   0.239   4.006   4.161 -0.2095 -1.2090 -2.1101
 1581TIP3   OH2 4706   2.500   5.964   2.708  0.3487  0.4699 -0.5541
 1581TIP3    H1 4707   2.574   5.951   2.649  0.9998  0.4481  0.2512
 1581TIP3    H2 4708   2.537   5.954   2.796 -1.2112 -3.1903 -0.1072
 1582TIP3   OH2 4709   3.735   5.538   3.461  0.3536 -0.0398 -0.5375
 1582TIP3    H1 4710   3.755   5.630   3.477  1.9903 -0.2582 -1.1100
 1582TIP3    H2 4711   3.680   5.538   3.383 -1.5615  0.5664  0.7655
 1583TIP3   OH2 4712   7.193   3.810   1.028  0.2758  0.1914 -0.1890
 1583TIP3    H1 4713   7.106   3.831   0.993  0.3380  0.9228  0.0793
 1583TIP3    H2 4714   7.245   3.789   0.950  0.0247  0.3544 -0.4031
 1584TIP3   OH2 4715   5.937   3.758   2.551 -0.2527  0.3149 -0.4249
 1584TIP3    H1 4716   5.981   3.676   2.526 -0.3451  0.5631 -1.4566
 1584TIP3    H2 4717   5.893   3.738   2.633 -1.0342 -0.9457 -1.1296
 1585TIP3   OH2 4718   5.235   3.195   4.273  0.0566 -0.3297  0.0961
 1585TIP3    H1 4719   5.318   3.184   4.227  0.7355 -1.9871  1.6056
 1585TIP3    H2 4720   5.230   3.289   4.292  0.1748  0.2566 -2.4703
 1586TIP3   OH2 4721   6.578   2.724   1.734 -0.4044 -0.2169 -0.6323
 1586TIP3    H1 4722   6.536   2.655   1.682 -0.1880  0.0470 -1.1603
 1586TIP3    H2 4723   6.509   2.753   1.795 -2.0500  2.2374 -3.3702
 1587TIP3   OH2 4724   5.696   3.735   1.877  0.0047  0.0946  0.0972
 1587TIP3    H1 4725   5.778   3.765   1.915 -0.0660  1.3384 -0.6739
 1587TIP3    H2 4726   5.647   3.698   1.951  1.2538 -0.7080  0.5432
 1588TIP3   OH2 4727   4.319   4.766   0.632  0.5540 -0.2164  0.2238
 1588TIP3    H1 4728   4.255   4.836   0.648  0.2404 -0.1916 -1.0164
 1588TIP3    H2 4729   4.404   4.806   0.651  0.4072  0.6238 -0.7638
 1589TIP3   OH2 4730   5.054   0.641   5.560  0.3037 -0.1463 -0.0047
 1589TIP3    H1 4731   5.094   0.707   5.503  1.1191 -1.1047 -0.5819
 1589TIP3    H2 4732   5.127   0.610   5.615  0.0850 -1.0313 -0.2011
 1590TIP3   OH2 4733   4.386   5.908   2.711 -0.2747  0.6733 -0.2176
 1590TIP3    H1 4734   4.311   5.957   2.744 -1.0231 -0.0842 -0.7719
 1590TIP3    H2 4735   4.413   5.853   2.784 -2.4687 -1.6532 -0.9960
 1591TIP3   OH2 4736   1.192   1.984   0.964 -0.4263 -0.3878  0.0559
 1591TIP3    H1 4737   1.153   2.020   0.885  0.4243  1.5723  0.4660
 1591TIP3    H2 4738   1.286   1.980   0.945  0.0552  1.8461  1.4862
 1592TIP3   OH2 4739   1.150   5.176   3.914  0.3453 -0.3320 -0.2139
 1592TIP3    H1 4740   1.232   5.197   3.869 -0.1373  0.4705 -0.7457
 1592TIP3    H2 4741   1.176   5.118   3.986  1.7957  2.1149  1.3713
 1593TIP3   OH2 4742   1.250   6.329   0.881 -0.0818  0.3006  0.6571
 1593TIP3    H1 4743   1.217   6.248   0.922  1.5178  0.3349  2.1212
 1593TIP3    H2 4744   1.305   6.298   0.809  2.0090 -0.0861  2.3141
 1594TIP3   OH2 4745   1.930   0.580   4.778  0.0183  0.2972 -0.6957
 1594TIP3    H1 4746   1.956   0.515   4.844  0.0042  1.7203  0.7801
 1594TIP3    H2 4747   1.988   0.654   4.794  0.7539  0.3055 -3.0387
 1595TIP3   OH2 4748   4.232   5.626   2.729 -0.9268 -0.4012 -0.3253
 1595TIP3    H1 4749   4.286   5.648   2.805 -2.3845 -0.2690  0.7056
 1595TIP3    H2 4750   4.230   5.706   2.677 -2.7302  0.6884  1.2717
 1596TIP3   OH2 4751   0.293   0.098   2.091  0.4448 -0.2570  0.5667
 1596TIP3    H1 4752   0.218   0.127   2.142  0.7157  0.9915  0.2762
 1596TIP3    H2 4753   0.356   0.170   2.098 -0.0274  0.6047 -2.6366
 1597TIP3   OH2 4754   5.634   0.596   2.291  0.2911  0.5209 -0.0777
 1597TIP3    H1 4755   5.652   0.506   2.318 -3.0639 -0.3583 -0.4141
 1597TIP3    H2 4756   5.710   0.621   2.239  1.3490 -2.0658  0.0843
 1598TIP3   OH2 4757   5.818   0.121   5.083  0.3854  0.5163 -0.0062
 1598TIP3    H1 4758   5.778   0.207   5.094 -1.5815 -0.3222 -0.1078
 1598TIP3    H2 4759   5.811   0.103   4.989  1.1653  0.4029 -0.0502
 1599TIP3   OH2 4760   4.118   5.293   1.036  0.0302 -0.5443 -0.3745
 1599TIP3    H1 4761   4.092   5.283   1.127 -0.5158 -0.2788 -0.4982
 1599TIP3    H2 4762   4.185   5.361   1.036  1.2354 -1.6754  0.0299
 1600TIP3   OH2 4763   6.436   6.527   4.500  0.2444 -0.1798  0.3196
 1600TIP3    H1 4764   6.471   6.445   4.467  0.1097  0.4378 -1.4329
 1600TIP3    H2 4765   6.344   6.527   4.472 -0.1334 -0.0267  1.4924
 1601TIP3   OH2 4766   6.522   1.338   4.154 -0.3695  0.1871 -0.3636
 1601TIP3    H1 4767   6.543   1.425   4.187  0.2470 -0.0170 -0.2038
 1601TIP3    H2 4768   6.439   1.315   4.196  0.1732  0.1206  0.6846
 1602TIP3   OH2 4769   4.860   3.616   0.448  0.1591  0.0074  0.0593
 1602TIP3    H1 4770   4.844   3.702   0.408 -0.1741 -0.0280  0.1148
 1602TIP3    H2 4771   4.929   3.633   0.512  1.4928 -0.1448 -1.2796
 1603TIP3   OH2 4772   4.769   4.152   2.023 -0.3366 -0.5608 -0.4623
 1603TIP3    H1 4773   4.730   4.147   1.936 -0.8310  0.7111 -0.3398
 1603TIP3    H2 4774   4.862   4.133   2.009 -0.0179  1.5558 -1.6143
 1604TIP3   OH2 4775   6.809   1.286   4.278  0.0305  0.2056  0.2722
 1604TIP3    H1 4776   6.731   1.341   4.274 -1.4138 -1.7366  0.7903
 1604TIP3    H2 4777   6.830   1.266   4.187  0.0108  0.8069  0.1311
 1605TIP3   OH2 4778   2.640   2.118   1.635 -0.2019 -0.5489  0.0581
 1605TIP3    H1 4779   2.554   2.082   1.612  0.0192 -0.3812 -1.0984
 1605TIP3    H2 4780   2.627   2.213   1.630 -0.0513 -0.5160  0.2920
 1606TIP3   OH2 4781   0.219   4.081   4.746  0.7879 -0.7063 -0.6646
 1606TIP3    H1 4782   0.184   3.993   4.733  0.8847 -0.8649  0.1298
 1606TIP3    H2 4783   0.142   4.138   4.740  0.7826 -0.7910 -1.5987
 1607TIP3   OH2 4784   2.248   2.832   4.939 -0.2332  0.5486 -0.1311
 1607TIP3    H1 4785   2.275   2.753   4.987  0.4911  2.1867  2.3371
 1607TIP3    H2 4786   2.167   2.859   4.981 -1.3610  0.3139 -2.0207
 1608TIP3   OH2 4787   1.817   0.758   0.482  0.3203  0.3675  0.5189
 1608TIP3    H1 4788   1.796   0.669   0.512  1.2001  0.1876  0.6340
 1608TIP3    H2 4789   1.778   0.763   0.394 -2.3923  0.9477  1.6545
 1609TIP3   OH2 4790   7.153   4.721   3.686  0.5536 -0.0362 -0.5909
 1609TIP3    H1 4791   7.124   4.768   3.609 -2.0858 -1.3446 -0.4897
 1609TIP3    H2 4792   7.153   4.787   3.756  0.9828  0.6951 -1.2645
 1610TIP3   OH2 4793   6.834   3.182   4.326 -0.2242  0.0327 -0.0413
 1610TIP3    H1 4794   6.887   3.260   4.340  1.1378 -0.8276 -0.2505
 1610TIP3    H2 4795   6.795   3.163   4.411 -1.6968  1.7125 -0.2935
 1611TIP3   OH2 4796   1.099   6.633   5.611 -0.2195  0.4901  0.0601
 1611TIP3    H1 4797   1.089   6.613   5.705  0.0555 -2.0399 -0.3678
 1611TIP3    H2 4798   1.010   6.625   5.576 -0.0216 -0.6593 -0.2134
 1612TIP3   OH2 4799   6.377   0.973   0.316  0.0901 -0.1860  0.0199
 1612TIP3    H1 4800   6.405   1.064   0.324  2.3677 -0.7483 -0.9276
 1612TIP3    H2 4801   6.433   0.925   0.377  0.1457 -1.1831 -0.7931
 1613TIP3   OH2 4802   6.921   2.587   3.501 -0.1936  0.0506  0.3135
 1613TIP3    H1 4803   6.984   2.560   3.567 -0.0263  0.8934  0.5044
 1613TIP3    H2 4804   6.865   2.650   3.545  0.0611  0.7998 -0.4065
 1614TIP3   OH2 4805   6.213   0.507   3.301 -0.8869 -0.4780  0.4030
 1614TIP3    H1 4806   6.258   0.482   3.220 -1.2571 -0.8196  0.3000
 1614TIP3    H2 4807   6.208   0.426   3.351 -1.5494 -0.4855  0.3325
 1615TIP3   OH2 4808   6.281   5.098   1.639  0.0131 -0.7775  0.7983
 1615TIP3    H1 4809   6.221   5.147   1.584  1.0155 -1.4298 -0.9510
 1615TIP3    H2 4810   6.308   5.161   1.706  0.8053  0.9240 -1.0122
 1616TIP3   OH2 4811   1.546   3.494   4.717 -0.2003 -0.3647  0.1268
 1616TIP3    H1 4812   1.564   3.495   4.811  2.5693 -1.5680 -0.2844
 1616TIP3    H2 4813   1.572   3.580   4.686  2.3569 -1.1184  0.0038
 1617TIP3   OH2 4814   6.952   6.465   3.161 -0.6535 -0.1340  0.3656
 1617TIP3    H1 4815   7.031   6.459   3.108  0.1450  0.5226  1.4454
 1617TIP3    H2 4816   6.883   6.489   3.098 -0.0075 -0.6823 -0.5792
 1618TIP3   OH2 4817   5.111   1.739   1.309 -0.5156 -0.5195 -0.2137
 1618TIP3    H1 4818   5.151   1.737   1.221  0.0807  0.3828  0.0174
 1618TIP3    H2 4819   5.038   1.800   1.300 -0.3245 -0.2608 -0.0443
 1619TIP3   OH2 4820   4.748   6.563   1.543  0.1116  0.2263 -0.1000
 1619TIP3    H1 4821   4.731   6.485   1.596  0.7579 -0.9223 -1.5277
 1619TIP3    H2 4822   4.841   6.583   1.557  0.1617  0.2201 -0.4199
 1620TIP3   OH2 4823   5.196   2.920   0.813 -0.2594 -0.4820  0.1611
 1620TIP3    H1 4824   5.193   2.882   0.726  2.1991 -2.3486  0.7796
 1620TIP3    H2 4825   5.127   2.986   0.813  0.1633  0.1322 -3.4093
 1621TIP3   OH2 4826   6.438   2.195   1.446  0.9205  0.0501  0.1647
 1621TIP3    H1 4827   6.362   2.247   1.422  1.8288  1.6245  0.5323
 1621TIP3    H2 4828   6.502   2.211   1.376  0.1388 -3.1826 -1.4476
 1622TIP3   OH2 4829   5.123   4.287   5.607  0.6075 -0.0349 -0.2557
 1622TIP3    H1 4830   5.065   4.353   5.569 -0.8214 -0.6341  0.7805
 1622TIP3    H2 4831   5.071   4.207   5.606 -0.0393  0.1135  3.8550
 1623TIP3   OH2 4832   5.966   1.181   1.690 -0.3913  0.0266  0.0467
 1623TIP3    H1 4833   5.932   1.111   1.634 -0.5793 -0.0704  0.2787
 1623TIP3    H2 4834   5.893   1.203   1.748 -0.6427  1.0632 -0.6368
 1624TIP3   OH2 4835   5.941   1.759   5.670  0.1346 -0.1691 -0.2188
 1624TIP3    H1 4836   5.972   1.799   5.751 -1.2335  0.1744  0.1606
 1624TIP3    H2 4837   5.858   1.804   5.651 -0.1247 -1.0189 -1.2016
 1625TIP3   OH2 4838   1.647   0.233   2.848 -0.1903 -0.0904 -0.0782
 1625TIP3    H1 4839   1.625   0.326   2.841 -0.0291 -0.1089 -0.9303
 1625TIP3    H2 4840   1.612   0.194   2.768 -2.1284 -1.1627  1.2140
 1626TIP3   OH2 4841   3.734   1.692   5.563  0.3382  0.4875 -0.5325
 1626TIP3    H1 4842   3.821   1.652   5.571  0.8984  1.6256 -0.7104
 1626TIP3    H2 4843   3.733   1.730   5.475 -0.5135  0.1138 -0.6934
 1627TIP3   OH2 4844   4.554   0.683   5.785 -0.1413  0.6318  0.6226
 1627TIP3    H1 4845   4.580   0.591   5.784 -1.5796  0.1811  1.7523
 1627TIP3    H2 4846   4.460   0.683   5.765  0.3805  2.1302 -2.4443
 1628TIP3   OH2 4847   5.868   5.487   2.719 -0.6096 -0.2677  0.3455
 1628TIP3    H1 4848   5.947   5.447   2.754  0.1833  0.7410 -0.2442
 1628TIP3    H2 4849   5.810   5.498   2.795  0.9930  1.7291  1.3636
 1629TIP3   OH2 4850   5.968   3.947   1.225 -0.0392  0.5317  0.2858
 1629TIP3    H1 4851   5.897   3.909   1.277  0.5334 -0.6964  0.2049
 1629TIP3    H2 4852   6.048   3.907   1.260  0.5985  1.6552  0.1690
 1630TIP3   OH2 4853   5.511   1.756   1.089  0.0254  0.5572  0.0545
 1630TIP3    H1 4854   5.588   1.700   1.095 -0.1849  0.3606  0.9867
 1630TIP3    H2 4855   5.518   1.816   1.162 -1.5376 -0.5399  1.1774
 1631TIP3   OH2 4856   3.078   2.556   5.493  0.7409  0.0270 -0.1712
 1631TIP3    H1 4857   3.146   2.588   5.552 -0.4393  1.1627  0.6589
 1631TIP3    H2 4858   3.106   2.584   5.406  1.4415  0.2789  0.1281
 1632TIP3   OH2 4859   1.908   6.274   1.597 -0.3195  0.0316  0.4013
 1632TIP3    H1 4860   1.835   6.236   1.645 -0.8820  1.4223  0.6843
 1632TIP3    H2 4861   1.974   6.292   1.664 -0.5072  0.5882  0.4397
 1633TIP3   OH2 4862   6.360   1.578   4.475 -0.2811  0.2271 -0.2476
 1633TIP3    H1 4863   6.303   1.513   4.436 -0.6721  0.8780 -0.7842
 1633TIP3    H2 4864   6.304   1.625   4.537 -0.2420  0.6414 -0.5218
 1634TIP3   OH2 4865   5.235   1.596   1.796  0.3226 -0.2578 -0.4088
 1634TIP3    H1 4866   5.206   1.516   1.838 -0.9212  0.2153 -0.3188
 1634TIP3    H2 4867   5.198   1.591   1.707  0.9058 -0.1466 -0.6614
 1635TIP3   OH2 4868   2.213   5.471   2.174  0.2438  0.1137  0.4066
 1635TIP3    H1 4869   2.265   5.512   2.243 -3.2475  1.5316  2.4246
 1635TIP3    H2 4870   2.172   5.544   2.128  0.3035 -0.9238 -1.3856
 1636TIP3   OH2 4871   2.314   5.920   3.140 -0.3256  0.0710  0.0554
 1636TIP3    H1 4872   2.347   5.839   3.179 -1.2612  0.3599  1.5453
 1636TIP3    H2 4873   2.238   5.943   3.194 -0.0279  1.9933 -0.2714
 1637TIP3   OH2 4874   4.167   6.331   2.524  0.0827  0.5712  0.0811
 1637TIP3    H1 4875   4.138   6.375   2.604  0.5275 -1.1403  1.2526
 1637TIP3    H2 4876   4.239   6.385   2.492  0.9755  0.4707  1.7755
 1638TIP3   OH2 4877   1.081   6.650   0.676 -0.0261  0.2113  0.7785
 1638TIP3    H1 4878   1.017   6.701   0.725 -0.0279 -0.7031  1.7531
 1638TIP3    H2 4879   1.030   6.577   0.640  0.1938  0.2657  0.3535
 1639TIP3   OH2 4880   6.318   5.870   4.293  0.2607 -1.1221 -0.0003
 1639TIP3    H1 4881   6.396   5.914   4.259  1.2144 -0.8474  2.3569
 1639TIP3    H2 4882   6.256   5.941   4.311  0.2756 -1.1347  0.1000
 1640TIP3   OH2 4883   2.212   1.821   4.021  0.0432  0.2863  0.0396
 1640TIP3    H1 4884   2.264   1.897   4.044 -1.3431  1.6395 -1.0251
 1640TIP3    H2 4885   2.174   1.791   4.104  0.1243  1.1511  0.3979
 1641TIP3   OH2 4886   1.513   5.800   3.127  0.2576 -0.2929 -0.2926
 1641TIP3    H1 4887   1.571   5.871   3.099 -0.9316  1.3479  1.1529
 1641TIP3    H2 4888   1.491   5.822   3.217 -2.8786 -0.6066 -0.8716
 1642TIP3   OH2 4889   3.310   2.346   4.403 -0.6075  0.1611  0.1940
 1642TIP3    H1 4890   3.370   2.280   4.367 -0.0215  0.3580  0.7828
 1642TIP3    H2 4891   3.250   2.297   4.458 -0.0421  0.1352  0.7969
 1643TIP3   OH2 4892   6.452   4.406   1.289  0.0493  0.4947 -0.0728
 1643TIP3    H1 4893   6.435   4.313   1.275  1.2184  0.3803 -0.9056
 1643TIP3    H2 4894   6.366   4.444   1.307 -0.3563 -0.8414  0.9430
 1644TIP3   OH2 4895   3.438   4.754   4.163 -0.4110 -0.7296  0.2237
 1644TIP3    H1 4896   3.361   4.699   4.146  0.8814 -2.4242 -0.4077
 1644TIP3    H2 4897   3.454   4.799   4.081  1.1131 -2.8520 -0.7416
 1645TIP3   OH2 4898   4.889   0.066   4.334  0.1102 -0.6265 -0.0300
 1645TIP3    H1 4899   4.946  -0.002   4.370  1.3867  0.1799 -0.4705
 1645TIP3    H2 4900   4.884   0.046   4.240  0.6094 -0.0427 -0.1858
 1646TIP3   OH2 4901   3.936   5.973   3.104  0.2633 -0.5664 -0.1875
 1646TIP3    H1 4902   3.935   5.877   3.105  1.3080 -0.6301 -1.8124
 1646TIP3    H2 4903   4.026   5.996   3.082 -0.2299  0.7593 -0.9871
 1647TIP3   OH2 4904   3.175   3.792   1.901 -0.2148  0.0815  0.8295
 1647TIP3    H1 4905   3.086   3.825   1.913 -0.6374 -0.9730  0.6898
 1647TIP3    H2 4906   3.163   3.706   1.861  0.9516  1.4110 -2.7650
 1648TIP3   OH2 4907   4.786   0.967   0.502 -0.3644  0.3074 -0.1701
 1648TIP3    H1 4908   4.712   0.929   0.550 -0.3001  0.2774 -0.0956
 1648TIP3    H2 4909   4.773   0.937   0.412  0.6969 -1.4400  0.2189
 1649TIP3   OH2 4910   2.598   4.425   1.555  0.0076  0.3446  0.0460
 1649TIP3    H1 4911   2.518   4.461   1.518 -0.6552 -0.6094  0.5247
 1649TIP3    H2 4912   2.639   4.379   1.482 -0.7635 -0.6288  0.2047
 1650TIP3   OH2 4913   1.609   1.081   5.795 -0.5568  0.2633  0.7688
 1650TIP3    H1 4914   1.551   1.078   5.871 -1.5554  1.4369  0.0835
 1650TIP3    H2 4915   1.550   1.090   5.721  0.4274 -0.4985 -0.1337
 1651TIP3   OH2 4916   2.567   2.352   4.506 -0.3796 -0.2511 -0.1243
 1651TIP3    H1 4917   2.561   2.358   4.411 -0.6560  1.2331 -0.0474
 1651TIP3    H2 4918   2.494   2.296   4.532  0.5249 -1.8430 -0.8563
 1652TIP3   OH2 4919   1.774   3.214   1.099  0.4785  0.0320 -0.0204
 1652TIP3    H1 4920   1.824   3.177   1.172 -0.8682 -0.2060  0.8100
 1652TIP3    H2 4921   1.693   3.245   1.138 -0.7462 -1.0448 -1.5722
 1653TIP3   OH2 4922   1.162   3.569   5.545  0.2977  0.0807  0.6301
 1653TIP3    H1 4923   1.084   3.614   5.513  1.9520  2.8167  0.1325
 1653TIP3    H2 4924   1.167   3.488   5.493 -0.3425  1.5394 -1.8608
 1654TIP3   OH2 4925   0.243   6.713   3.520  0.3890 -0.5750  0.1220
 1654TIP3    H1 4926   0.256   6.762   3.439 -0.1600 -0.5060  0.0739
 1654TIP3    H2 4927   0.331   6.706   3.558  0.5251  0.1125 -0.0606
 1655TIP3   OH2 4928   0.891   0.327   2.154  0.0233 -0.1838 -0.4624
 1655TIP3    H1 4929   0.986   0.325   2.144  0.2159 -0.0909  1.1327
 1655TIP3    H2 4930   0.871   0.249   2.206 -0.5151  0.8742  0.9729
 1656TIP3   OH2 4931   5.711   5.958   3.969 -0.4530  0.2122  0.0231
 1656TIP3    H1 4932   5.699   6.047   3.936 -0.4771  0.7175  1.3427
 1656TIP3    H2 4933   5.691   5.901   3.894  0.4063  1.3220 -1.0875
 1657TIP3   OH2 4934   2.102   6.238   3.401 -0.1053  0.4477  0.0687
 1657TIP3    H1 4935   2.131   6.158   3.446 -0.0743 -0.8216 -2.0511
 1657TIP3    H2 4936   2.012   6.251   3.430 -0.0810 -0.3203  0.5272
 1658TIP3   OH2 4937   0.549   0.463   0.486 -0.0769 -0.3348 -0.4784
 1658TIP3    H1 4938   0.469   0.500   0.522  0.0459 -0.4631 -0.0760
 1658TIP3    H2 4939   0.618   0.523   0.513  0.1308 -0.8738  0.2233
 1659TIP3   OH2 4940   5.234   2.253   4.342 -0.3612 -0.4166  0.1737
 1659TIP3    H1 4941   5.148   2.246   4.301  0.3227  0.3745 -1.5026
 1659TIP3    H2 4942   5.253   2.165   4.374 -1.0570 -1.0128 -1.0003
 1660TIP3   OH2 4943   1.932   6.398   3.831  0.1922  0.1839 -0.4970
 1660TIP3    H1 4944   2.008   6.451   3.807  0.1639  0.5363  0.1408
 1660TIP3    H2 4945   1.952   6.310   3.799  0.8428  0.2850 -0.3865
 1661TIP3   OH2 4946   4.150   5.868   5.230  0.8399  0.5620 -0.5903
 1661TIP3    H1 4947   4.086   5.938   5.241 -1.3607 -1.3599 -0.4722
 1661TIP3    H2 4948   4.129   5.805   5.299  2.2957 -0.5361 -1.1020
 1662TIP3   OH2 4949   1.108   3.335   3.545  0.5657 -0.3818 -0.2927
 1662TIP3    H1 4950   1.068   3.421   3.552  0.5985 -0.3390 -0.6262
 1662TIP3    H2 4951   1.099   3.297   3.633  0.9202  0.1180 -0.0340
 1663TIP3   OH2 4952   2.518   2.509   3.001 -0.4630 -0.4964  0.3389
 1663TIP3    H1 4953   2.487   2.518   3.091  3.1645 -0.1246  1.7360
 1663TIP3    H2 4954   2.501   2.595   2.961  1.0941  0.6088  1.9053
 1664TIP3   OH2 4955   3.652   3.618   2.918  0.1161  0.0376  0.0895
 1664TIP3    H1 4956   3.654   3.620   2.822 -0.2778 -2.2165 -0.0335
 1664TIP3    H2 4957   3.578   3.673   2.942 -0.6488 -0.4835 -1.0022
 1665TIP3   OH2 4958   2.799   3.358   3.567 -0.5545 -0.2608 -0.3193
 1665TIP3    H1 4959   2.759   3.283   3.525 -1.0941  0.2007 -0.6412
 1665TIP3    H2 4960   2.875   3.322   3.614 -0.7935 -0.9920 -0.4852
 1666TIP3   OH2 4961   4.388   4.083   4.232 -0.2196  0.1142  0.4510
 1666TIP3    H1 4962   4.402   4.177   4.223  0.8475  0.3151  3.3183
 1666TIP3    H2 4963   4.473   4.044   4.211 -0.9818 -0.3930 -1.9853
 1667TIP3   OH2 4964   2.325   2.847   4.160 -0.1492 -0.5149 -0.3983
 1667TIP3    H1 4965   2.370   2.842   4.076 -0.3594  1.1758 -0.6416
 1667TIP3    H2 4966   2.388   2.813   4.223  1.1796  0.9736 -0.8564
 1668TIP3   OH2 4967   2.613   1.599   1.455  0.6808 -0.2448  0.6294
 1668TIP3    H1 4968   2.519   1.592   1.436  1.0695 -0.2151 -1.4443
 1668TIP3    H2 4969   2.625   1.690   1.482  0.0484 -0.3773  1.3946
 1669TIP3   OH2 4970   4.734   4.861   1.494 -0.5303  0.5780 -0.3316
 1669TIP3    H1 4971   4.791   4.912   1.552 -1.2302  1.4157 -0.3631
 1669TIP3    H2 4972   4.725   4.776   1.537  1.4990  0.0701 -0.7909
 1670TIP3   OH2 4973   3.813   2.995   5.487  0.4275 -0.2896 -0.2783
 1670TIP3    H1 4974   3.884   2.961   5.541  0.3644  0.4867  0.3106
 1670TIP3    H2 4975   3.774   2.918   5.446 -1.4886 -1.3443  3.1350
 1671TIP3   OH2 4976   2.293   6.406   0.881 -0.1574  0.6046  0.6144
 1671TIP3    H1 4977   2.245   6.485   0.856  0.9069  1.1236  0.1664
 1671TIP3    H2 4978   2.252   6.378   0.963 -1.1785  1.0571  0.2759
 1672TIP3   OH2 4979   0.975   2.789   1.076 -0.6063  0.1723 -0.3028
 1672TIP3    H1 4980   0.953   2.704   1.114 -0.9187  0.8441  1.0637
 1672TIP3    H2 4981   1.070   2.797   1.089 -0.9833  1.2367  2.1844
 1673TIP3   OH2 4982   3.536   5.895   5.693 -0.3772  0.6301  0.1398
 1673TIP3    H1 4983   3.623   5.918   5.726 -0.8732  0.9150  1.2831
 1673TIP3    H2 4984   3.517   5.810   5.733 -1.3974  1.4371  1.4174
 1674TIP3   OH2 4985   5.299   3.629   0.724 -0.3098 -0.3248  0.3840
 1674TIP3    H1 4986   5.315   3.551   0.777 -0.8908 -0.9276 -0.3101
 1674TIP3    H2 4987   5.341   3.700   0.773  0.6737 -1.1454  0.7710
 1675TIP3   OH2 4988   1.076   2.669   3.603 -0.0926 -0.3090 -0.4780
 1675TIP3    H1 4989   1.029   2.586   3.615 -1.1311  0.3582  0.1168
 1675TIP3    H2 4990   1.111   2.689   3.690 -2.1243  1.2218  0.0514
 1676TIP3   OH2 4991   5.304   5.013   1.636  0.5199  0.1650  0.0771
 1676TIP3    H1 4992   5.363   4.949   1.675  2.5420  1.7340 -0.1758
 1676TIP3    H2 4993   5.331   5.096   1.675 -1.0977  1.0348 -0.5804
 1677TIP3   OH2 4994   5.734   6.217   2.103 -0.5319 -0.0033 -0.9156
 1677TIP3    H1 4995   5.686   6.238   2.183  0.7265 -1.4880  0.2923
 1677TIP3    H2 4996   5.667   6.213   2.035 -1.9117 -0.5118  0.4193
 1678TIP3   OH2 4997   6.849   3.826   3.506 -0.0024  0.1353 -0.0238
 1678TIP3    H1 4998   6.942   3.802   3.507  0.0226  0.2365  0.1012
 1678TIP3    H2 4999   6.819   3.810   3.595  0.6191  2.8942  0.7974
 1679TIP3   OH2 5000   6.541   2.677   5.774 -0.0712  0.2869  0.0851
 1679TIP3    H1 5001   6.539   2.740   5.703 -2.9515  0.1423 -0.0623
 1679TIP3    H2 5002   6.488   2.716   5.843  1.4913 -0.2017  1.6366
 1680TIP3   OH2 5003   2.913   2.299   0.459  0.1770  0.9842 -0.5569
 1680TIP3    H1 5004   2.855   2.350   0.515 -0.3827  1.1973 -1.3111
 1680TIP3    H2 5005   2.880   2.314   0.370 -0.2786 -1.0296 -0.7857
 1681TIP3   OH2 5006   3.266   0.887   3.630 -0.2307 -0.1328  0.3033
 1681TIP3    H1 5007   3.251   0.880   3.536 -1.0512  1.2406  0.3059
 1681TIP3    H2 5008   3.291   0.978   3.644 -0.3607 -0.2507  1.4455
 1682TIP3   OH2 5009   2.861   6.618   1.812  0.2062 -0.9607  0.1728
 1682TIP3    H1 5010   2.797   6.550   1.833  0.1852 -1.0929 -0.3153
 1682TIP3    H2 5011   2.868   6.669   1.893 -0.0271 -1.3381  0.4387
 1683TIP3   OH2 5012   3.565   4.583   1.475  0.0594 -0.0458  0.5620
 1683TIP3    H1 5013   3.601   4.545   1.556 -0.1867 -1.1659  0.1569
 1683TIP3    H2 5014   3.617   4.544   1.405 -1.0212 -0.5964  0.0607
 1684TIP3   OH2 5015   5.381   2.626   2.689  0.0662  0.0994 -0.4494
 1684TIP3    H1 5016   5.339   2.553   2.643 -1.1410  0.2784  0.3171
 1684TIP3    H2 5017   5.433   2.584   2.757  0.9990 -0.1196 -1.2838
 1685TIP3   OH2 5018   5.914   3.161   5.098 -0.5220 -0.8980  0.5248
 1685TIP3    H1 5019   5.855   3.088   5.121 -0.4630 -1.5890 -1.3694
 1685TIP3    H2 5020   5.894   3.180   5.007  0.2107  0.8016  0.6860
 1686TIP3   OH2 5021   4.052   0.673   4.212 -0.0054  0.5461 -0.2612
 1686TIP3    H1 5022   4.112   0.599   4.220 -2.0834 -1.2452 -0.1828
 1686TIP3    H2 5023   4.100   0.747   4.249  1.2548 -1.2893  2.0379
 1687TIP3   OH2 5024   6.916   5.796   2.792  0.0795 -0.0310 -0.4955
 1687TIP3    H1 5025   6.894   5.874   2.741 -1.8303  0.0037  0.3002
 1687TIP3    H2 5026   6.832   5.754   2.810  0.9203 -1.3803  0.5301
 1688TIP3   OH2 5027   4.385   1.406   3.728  0.0662 -0.3110 -0.0440
 1688TIP3    H1 5028   4.351   1.333   3.675 -1.4524  1.4996 -1.7415
 1688TIP3    H2 5029   4.469   1.428   3.687  1.1891 -1.8832  1.3046
 1689TIP3   OH2 5030   0.903   2.424   4.358 -0.0661 -0.1356  0.3100
 1689TIP3    H1 5031   0.830   2.363   4.367 -0.1174  0.0921  1.6639
 1689TIP3    H2 5032   0.926   2.420   4.265 -1.0254 -1.0943  0.0880
 1690TIP3   OH2 5033   0.810   3.552   5.127 -0.6535 -0.7906 -0.1181
 1690TIP3    H1 5034   0.763   3.627   5.162 -0.2236 -0.5930  0.0429
 1690TIP3    H2 5035   0.892   3.550   5.176  0.1473 -0.2674 -1.3989
 1691TIP3   OH2 5036   3.610   6.468   2.566 -0.6126  0.2471  0.1141
 1691TIP3    H1 5037   3.613   6.434   2.477 -0.9962  0.3925  0.0460
 1691TIP3    H2 5038   3.582   6.393   2.619  0.6136 -0.1281  0.2612
 1692TIP3   OH2 5039   3.778   1.801   5.294  0.0538 -1.3966  0.4689
 1692TIP3    H1 5040   3.693   1.825   5.258 -0.2239 -1.9643  0.7184
 1692TIP3    H2 5041   3.828   1.882   5.294 -0.9422 -0.7426  1.5653
 1693TIP3   OH2 5042   1.827   2.779   3.990  0.1128 -0.4363 -0.1880
 1693TIP3    H1 5043   1.751   2.831   4.020 -0.3628 -0.4697 -1.2901
 1693TIP3    H2 5044   1.846   2.814   3.903  0.5699 -1.2905 -0.4315
 1694TIP3   OH2 5045   5.037   3.510   2.368 -0.0331  0.5010 -0.5715
 1694TIP3    H1 5046   5.049   3.438   2.429 -1.5373 -0.4872 -1.3770
 1694TIP3    H2 5047   4.950   3.544   2.387  0.4847  1.8401 -0.4983
 1695TIP3   OH2 5048   6.181   5.833   4.788  0.1473  0.2422 -0.8238
 1695TIP3    H1 5049   6.172   5.781   4.867 -1.0280  0.1204 -1.0195
 1695TIP3    H2 5050   6.223   5.914   4.817 -2.2317  1.1407  0.3777
 1696TIP3   OH2 5051   0.818   3.413   0.910  0.1245 -0.1663 -0.0326
 1696TIP3    H1 5052   0.820   3.433   0.816 -1.6762  0.7374  0.0782
 1696TIP3    H2 5053   0.811   3.318   0.915 -2.2396 -0.1005 -0.9271
 1697TIP3   OH2 5054   2.297   2.467   5.890 -0.2626  0.4673  0.2346
 1697TIP3    H1 5055   2.278   2.390   5.836 -0.1159  0.2143  0.5416
 1697TIP3    H2 5056   2.388   2.454   5.918 -1.4140 -1.3978  3.7211
 1698TIP3   OH2 5057   5.595   4.146   0.614  0.4517  0.4817 -0.2479
 1698TIP3    H1 5058   5.635   4.127   0.529 -0.8949 -1.6448 -0.4815
 1698TIP3    H2 5059   5.574   4.240   0.610  1.2067  0.6147 -1.8979
 1699TIP3   OH2 5060   3.679   4.763   2.439 -0.3186 -0.2131  0.7123
 1699TIP3    H1 5061   3.604   4.711   2.470  0.1206  0.2739  2.6764
 1699TIP3    H2 5062   3.754   4.728   2.486  0.7615 -0.7162 -1.2658
 1700TIP3   OH2 5063   1.513   5.407   0.974  0.0889  0.5053 -0.0777
 1700TIP3    H1 5064   1.423   5.432   0.955  0.2518  0.4915 -0.9097
 1700TIP3    H2 5065   1.556   5.404   0.888  1.2123  1.8040  0.3935
 1701TIP3   OH2 5066   1.595   3.226   2.050 -0.5375 -0.2504  0.1476
 1701TIP3    H1 5067   1.538   3.303   2.043 -0.1512 -0.0922 -1.9506
 1701TIP3    H2 5068   1.673   3.250   2.000  0.3453 -1.3674  0.9557
 1702TIP3   OH2 5069   2.795   5.751   1.803  0.1437  0.6115 -0.4366
 1702TIP3    H1 5070   2.842   5.759   1.886 -0.8439  1.4921  0.0563
 1702TIP3    H2 5071   2.797   5.657   1.784 -0.5179  0.2455  1.1268
 1703TIP3   OH2 5072   2.024   2.692   4.151 -0.3201 -0.1544 -0.2164
 1703TIP3    H1 5073   1.946   2.705   4.098 -0.0285  0.0879 -0.5962
 1703TIP3    H2 5074   2.000   2.625   4.215 -0.6403 -0.5354 -0.7311
 1704TIP3   OH2 5075   4.124   5.143   0.466 -0.4877 -0.0673 -0.0271
 1704TIP3    H1 5076   4.034   5.174   0.464 -0.3756  0.2456 -0.4663
 1704TIP3    H2 5077   4.134   5.092   0.386 -0.2020  0.1125 -0.1090
 1705TIP3   OH2 5078   2.395   3.879   0.701  0.2407 -0.0491  0.4002
 1705TIP3    H1 5079   2.334   3.863   0.772 -0.8138 -1.4810 -0.7509
 1705TIP3    H2 5080   2.417   3.972   0.707 -1.4715  0.3310  1.3006
 1706TIP3   OH2 5081   4.506   4.357   4.772 -0.0014 -0.4822 -0.1315
 1706TIP3    H1 5082   4.527   4.359   4.679 -0.1508 -3.1669 -0.2929
 1706TIP3    H2 5083   4.478   4.446   4.792  0.3168  0.2341 -2.5676
 1707TIP3   OH2 5084   2.685   3.933   5.316 -0.1813  0.3612  0.0439
 1707TIP3    H1 5085   2.608   3.886   5.348  0.5738  0.0387  1.4324
 1707TIP3    H2 5086   2.650   3.995   5.252 -1.5012 -0.2768  0.1157
 1708TIP3   OH2 5087   5.546   4.749   1.433  0.1926  0.3099  0.1343
 1708TIP3    H1 5088   5.481   4.770   1.366  0.4052  0.2151 -0.1044
 1708TIP3    H2 5089   5.511   4.673   1.479 -0.8868  1.5289  1.4162
 1709TIP3   OH2 5090   4.218   3.893   0.614  0.2182  0.2509  0.1277
 1709TIP3    H1 5091   4.135   3.931   0.584  0.2925  1.2962  1.1921
 1709TIP3    H2 5092   4.247   3.950   0.685  1.5085 -0.5020  0.2451
 1710TIP3   OH2 5093   3.100   4.912   1.819  0.7259  0.1495  0.2041
 1710TIP3    H1 5094   3.047   4.982   1.857 -0.1759 -0.3631 -0.0895
 1710TIP3    H2 5095   3.056   4.831   1.843  1.4480 -0.3025  0.0578
 1711TIP3   OH2 5096   6.697   6.490   3.825 -0.6659  0.5478 -0.3486
 1711TIP3    H1 5097   6.693   6.527   3.913  1.0565 -2.1075  1.0102
 1711TIP3    H2 5098   6.767   6.539   3.782  0.6495 -0.1208  0.9180
 1712TIP3   OH2 5099   1.722   5.238   3.500  0.1707 -0.3402  0.3517
 1712TIP3    H1 5100   1.745   5.152   3.463 -0.9629 -1.0338  1.2001
 1712TIP3    H2 5101   1.776   5.246   3.578  0.4590 -0.1569  0.1373
 1713TIP3   OH2 5102   2.265   3.451   0.928  0.2499  0.4069  0.1379
 1713TIP3    H1 5103   2.215   3.369   0.923  3.7125 -2.2808  3.5273
 1713TIP3    H2 5104   2.333   3.442   0.860 -0.4533  1.4268 -0.7321
 1714TIP3   OH2 5105   2.960   4.194   2.855  0.3886 -0.8756  0.5500
 1714TIP3    H1 5106   2.980   4.252   2.929 -1.0873 -0.2482  0.4851
 1714TIP3    H2 5107   2.957   4.107   2.894  2.1034 -0.8916  0.7434
 1715TIP3   OH2 5108   5.795   4.996   2.134  0.6853 -0.0433  0.2620
 1715TIP3    H1 5109   5.794   4.972   2.041 -1.0049 -1.4092  0.5923
 1715TIP3    H2 5110   5.730   4.938   2.175 -0.2912  2.0928  1.9112
 1716TIP3   OH2 5111   6.838   3.889   1.457  0.1338 -0.2269  0.2771
 1716TIP3    H1 5112   6.748   3.859   1.444  0.2546 -1.3592  1.6641
 1716TIP3    H2 5113   6.836   3.983   1.442 -1.1384 -0.3542 -0.3839
 1717TIP3   OH2 5114   6.235   1.524   4.149  0.9579 -0.2924  0.5144
 1717TIP3    H1 5115   6.190   1.464   4.209  0.8963 -0.4846  0.2772
 1717TIP3    H2 5116   6.260   1.470   4.075 -0.4477  0.2661 -0.4141
 1718TIP3   OH2 5117   3.971   0.972   5.511  0.2855  0.3094  0.5594
 1718TIP3    H1 5118   3.946   0.966   5.604  1.8309 -3.1199  0.8773
 1718TIP3    H2 5119   3.890   0.996   5.466 -1.1360 -0.5647  2.5310
 1719TIP3   OH2 5120   5.700   6.571   4.789 -0.2012  0.0298  0.3899
 1719TIP3    H1 5121   5.694   6.647   4.846  0.9315  0.4426 -0.0178
 1719TIP3    H2 5122   5.750   6.507   4.840  1.1805  0.5533 -0.2767
 1720TIP3   OH2 5123   3.913   4.457   0.162  0.1463 -0.3702  0.1788
 1720TIP3    H1 5124   3.990   4.452   0.218 -0.1079  0.9701  0.6975
 1720TIP3    H2 5125   3.856   4.387   0.193  0.2386  0.0110  1.2628
 1721TIP3   OH2 5126   0.157   0.328   5.754  0.0263 -0.1095  0.3273
 1721TIP3    H1 5127   0.215   0.269   5.704 -0.7086 -1.8608  1.4334
 1721TIP3    H2 5128   0.164   0.296   5.844 -2.4569 -0.2173  0.5322
 1722TIP3   OH2 5129   4.614   5.875   1.334 -0.1475 -0.3992  0.2339
 1722TIP3    H1 5130   4.689   5.887   1.393  1.4476  1.2174 -1.9735
 1722TIP3    H2 5131   4.594   5.782   1.339  2.8579 -1.1484 -0.0400
 1723TIP3   OH2 5132   6.135   1.142   2.161  0.1118  0.1695 -0.3854
 1723TIP3    H1 5133   6.172   1.058   2.132 -3.4236 -1.5798 -0.4235
 1723TIP3    H2 5134   6.118   1.190   2.081  1.7297  0.7634 -0.3925
 1724TIP3   OH2 5135   6.993   2.999   2.075 -0.0571  1.1745 -0.1583
 1724TIP3    H1 5136   6.925   2.964   2.017 -1.0633  2.0787  0.4354
 1724TIP3    H2 5137   7.021   3.080   2.033  1.3661  0.3475 -0.8837
 1725TIP3   OH2 5138   4.366   6.449   5.206  0.2311  0.7785 -0.7685
 1725TIP3    H1 5139   4.358   6.367   5.158  0.9173  1.5349 -2.2337
 1725TIP3    H2 5140   4.448   6.441   5.255 -0.1991  0.2177 -0.1258
 1726TIP3   OH2 5141   0.397   6.519   5.050  0.1409 -0.1556 -0.5973
 1726TIP3    H1 5142   0.421   6.586   5.114 -0.3298 -0.5412 -0.0121
 1726TIP3    H2 5143   0.340   6.459   5.097 -0.9244  0.0226 -1.6050
 1727TIP3   OH2 5144   0.687   2.399   0.041  0.5536  0.0077  0.5468
 1727TIP3    H1 5145   0.772   2.386  -0.002  0.4038 -0.6088  0.4317
 1727TIP3    H2 5146   0.679   2.324   0.100  0.9948  1.1051  2.0459
 1728TIP3   OH2 5147   5.484   3.203   3.225  0.4322  0.4738 -0.4735
 1728TIP3    H1 5148   5.443   3.117   3.238  1.4921  0.3334  2.9529
 1728TIP3    H2 5149   5.569   3.182   3.185  1.2364 -0.3000  1.5074
 1729TIP3   OH2 5150   3.253   5.977   5.652  0.1551  0.3702 -0.1493
 1729TIP3    H1 5151   3.342   5.944   5.663  0.0322  0.3276  0.7507
 1729TIP3    H2 5152   3.243   6.044   5.719 -1.0316 -0.7413  0.8397
 1730TIP3   OH2 5153   5.444   2.268   3.299 -0.3711 -0.4389  0.4892
 1730TIP3    H1 5154   5.470   2.337   3.237 -1.0361 -0.5121  0.1120
 1730TIP3    H2 5155   5.445   2.188   3.247 -1.4493 -0.4223  0.4225
 1731TIP3   OH2 5156   0.719   5.095   3.779 -0.1425 -0.3564 -0.0770
 1731TIP3    H1 5157   0.809   5.077   3.753 -0.3767 -2.7360  0.5339
 1731TIP3    H2 5158   0.727   5.137   3.865  0.4022  2.0243 -1.1907
 1732TIP3   OH2 5159   1.580   2.166   1.432 -0.4799  0.3979 -0.2333
 1732TIP3    H1 5160   1.635   2.238   1.462  0.3140  0.0336 -0.7598
 1732TIP3    H2 5161   1.586   2.169   1.337 -1.7600  0.6322 -0.3169
 1733TIP3   OH2 5162   3.391   2.322   2.189  0.8446  0.6253  0.3811
 1733TIP3    H1 5163   3.328   2.252   2.206 -0.7318  1.5560 -1.2317
 1733TIP3    H2 5164   3.365   2.393   2.248  0.7349  0.8007  0.1253
 1734TIP3   OH2 5165   0.982   4.774   4.668  0.1752 -0.4673 -0.4196
 1734TIP3    H1 5166   0.939   4.746   4.588 -0.2577  0.8246 -0.6530
 1734TIP3    H2 5167   0.930   4.847   4.700  2.4816  1.6009 -1.0657
 1735TIP3   OH2 5168   5.093   0.669   0.590  0.3961  0.5537  0.0094
 1735TIP3    H1 5169   5.104   0.700   0.501  2.0281 -0.2318 -0.0850
 1735TIP3    H2 5170   5.000   0.685   0.610  0.3108  1.9137 -1.3499
 1736TIP3   OH2 5171   0.161   0.159   1.387 -0.1214 -0.3854  0.6943
 1736TIP3    H1 5172   0.201   0.194   1.307  1.1755 -2.7503  0.2316
 1736TIP3    H2 5173   0.196   0.215   1.457  1.1489 -0.1511 -0.0921
 1737TIP3   OH2 5174   2.768   4.324   3.630  0.0541 -0.6588 -0.0471
 1737TIP3    H1 5175   2.849   4.370   3.652  0.4441 -0.5579 -1.5967
 1737TIP3    H2 5176   2.705   4.393   3.608  0.3198 -0.7970 -1.3144
 1738TIP3   OH2 5177   5.671   6.681   1.031 -0.4638  0.3286  0.2515
 1738TIP3    H1 5178   5.601   6.745   1.033  0.4933  1.5099 -1.3923
 1738TIP3    H2 5179   5.745   6.723   1.075 -0.2397 -0.1860  0.3850
 1739TIP3   OH2 5180   1.227   6.754   1.939  0.1554 -0.2813  0.0815
 1739TIP3    H1 5181   1.183   6.669   1.951  0.9858 -0.6508  0.5914
 1739TIP3    H2 5182   1.287   6.760   2.013 -2.0923  2.2045  1.9170
 1740TIP3   OH2 5183   2.658   4.954   3.228  0.1859  0.2686 -0.8169
 1740TIP3    H1 5184   2.698   4.889   3.285  0.6120 -0.2766 -1.7153
 1740TIP3    H2 5185   2.580   4.910   3.193 -1.4557  1.4276  1.1664
 1741TIP3   OH2 5186   4.983   5.871   0.335  0.1456  0.3240  0.1621
 1741TIP3    H1 5187   4.985   5.776   0.325  0.2611  0.2265  1.0845
 1741TIP3    H2 5188   4.968   5.886   0.428  4.2280  1.2122  0.8515
 1742TIP3   OH2 5189   0.286   1.704   4.339 -0.0040  0.1234 -0.0773
 1742TIP3    H1 5190   0.342   1.759   4.284  0.0902 -1.5787 -1.7934
 1742TIP3    H2 5191   0.204   1.752   4.344  0.5359  1.1044 -0.3001
 1743TIP3   OH2 5192   3.761   2.109   5.198  0.0952  0.3977  0.2513
 1743TIP3    H1 5193   3.685   2.087   5.144  0.7388  0.3772 -0.6534
 1743TIP3    H2 5194   3.823   2.038   5.184 -0.3218 -0.4508  2.2522
 1744TIP3   OH2 5195   1.141   5.038   2.878 -0.2433 -0.3990  0.3425
 1744TIP3    H1 5196   1.174   5.126   2.898 -0.5316  0.2950 -1.9784
 1744TIP3    H2 5197   1.219   4.983   2.873 -0.0477 -0.2761  1.6495
 1745TIP3   OH2 5198   5.336   1.644   2.239 -0.4589 -0.2872  0.0147
 1745TIP3    H1 5199   5.244   1.646   2.265 -1.0618 -0.3948 -1.9547
 1745TIP3    H2 5200   5.363   1.736   2.241 -1.0860 -0.0775 -0.9609
 1746TIP3   OH2 5201   0.657   3.212   3.906 -0.7472  0.2659  0.3247
 1746TIP3    H1 5202   0.627   3.121   3.906  0.6859 -0.2572 -1.3773
 1746TIP3    H2 5203   0.596   3.258   3.850 -0.6957  0.0616  0.1005
 1747TIP3   OH2 5204   5.258   6.622   4.351 -0.1366  0.4257 -0.2329
 1747TIP3    H1 5205   5.285   6.714   4.355  0.3531  0.3230 -0.9107
 1747TIP3    H2 5206   5.267   6.599   4.258  2.2692 -1.0498  0.2899
 1748TIP3   OH2 5207   3.086   1.235   3.091  0.4501  0.3136 -0.6796
 1748TIP3    H1 5208   3.131   1.176   3.031  0.5500 -0.5520  0.2379
 1748TIP3    H2 5209   3.156   1.278   3.140  0.3260 -0.7941  0.5186
 1749TIP3   OH2 5210   4.979   5.934   0.019  0.5514  0.0559  0.3673
 1749TIP3    H1 5211   5.023   5.864  -0.029 -1.7906 -0.9884 -0.4256
 1749TIP3    H2 5212   4.996   5.914   0.111 -0.6099 -2.0036  0.1898
 1750TIP3   OH2 5213   6.356   0.567   1.971 -0.1907 -0.3317  0.2967
 1750TIP3    H1 5214   6.271   0.601   2.001  0.1386  0.9066 -0.1049
 1750TIP3    H2 5215   6.345   0.555   1.877 -0.4642 -1.9021  0.5079
 1751TIP3   OH2 5216   4.278   1.032   1.913  0.0476 -0.0042  0.1448
 1751TIP3    H1 5217   4.264   1.048   2.006 -1.1665 -0.5035  0.0691
 1751TIP3    H2 5218   4.372   1.015   1.905 -0.1399 -2.2514  1.6576
 1752TIP3   OH2 5219   4.192   2.690   0.282 -0.1117 -0.7512 -0.2789
 1752TIP3    H1 5220   4.164   2.635   0.209  0.6422  1.0740 -2.0397
 1752TIP3    H2 5221   4.177   2.780   0.251 -0.8208  0.0755  2.2651
 1753TIP3   OH2 5222   0.113   2.790   5.638 -0.7489 -0.1354 -0.2316
 1753TIP3    H1 5223   0.073   2.787   5.725 -0.7890 -1.0942 -0.2690
 1753TIP3    H2 5224   0.124   2.698   5.613  0.9800  0.0988 -0.4620
 1754TIP3   OH2 5225   3.215   1.789   4.823 -0.2498 -0.0364 -0.8538
 1754TIP3    H1 5226   3.169   1.870   4.801  2.9090  1.8467 -1.1870
 1754TIP3    H2 5227   3.224   1.791   4.918 -0.8471 -0.4453 -0.7806
 1755TIP3   OH2 5228   4.741   5.119   0.954  0.1004 -0.3066 -0.1694
 1755TIP3    H1 5229   4.766   5.087   0.868  0.8679  0.4212 -0.2262
 1755TIP3    H2 5230   4.812   5.092   1.012  1.1018  1.7933 -0.3362
 1756TIP3   OH2 5231   6.910   5.394   3.658  0.1509 -0.0897 -0.2037
 1756TIP3    H1 5232   6.906   5.374   3.752 -1.4375  1.9702  0.2614
 1756TIP3    H2 5233   6.867   5.480   3.651  1.0692  0.2300 -2.7070
 1757TIP3   OH2 5234   5.809   2.715   5.346  0.3264  0.0351 -0.7931
 1757TIP3    H1 5235   5.733   2.697   5.402 -1.2226  1.1595 -2.3898
 1757TIP3    H2 5236   5.883   2.677   5.392 -1.1110 -0.5396  1.1719
 1758TIP3   OH2 5237   3.435   1.183   0.413  0.0506  0.0143 -0.7974
 1758TIP3    H1 5238   3.467   1.226   0.334  0.2378  0.9132 -0.2428
 1758TIP3    H2 5239   3.374   1.246   0.452 -1.1410 -0.9885 -0.9606
 1759TIP3   OH2 5240   5.143   5.513   0.588  0.1001  0.1910 -0.2296
 1759TIP3    H1 5241   5.181   5.565   0.518  2.0880 -0.6269  0.1622
 1759TIP3    H2 5242   5.114   5.577   0.653  1.1350  0.8798 -0.4252
 1760TIP3   OH2 5243   2.495   3.911   3.731 -0.2300  0.5592  0.2327
 1760TIP3    H1 5244   2.434   3.898   3.658  2.2105 -0.3378 -1.8009
 1760TIP3    H2 5245   2.548   3.987   3.705 -0.8505  1.7823  2.2828
 1761TIP3   OH2 5246   5.924   4.335   4.803 -0.0987  0.1432  0.4855
 1761TIP3    H1 5247   5.963   4.348   4.889 -0.1301 -0.1604  0.5454
 1761TIP3    H2 5248   5.913   4.240   4.795 -1.9574  0.2558  1.0014
 1762TIP3   OH2 5249   5.694   3.681   5.418  0.0366  0.0539 -0.1558
 1762TIP3    H1 5250   5.648   3.735   5.353 -0.5961 -1.8454 -1.3534
 1762TIP3    H2 5251   5.629   3.620   5.450  0.8344 -0.2769  0.8966
 1763TIP3   OH2 5252   2.849   6.765   1.084  0.1057 -0.3680 -0.0380
 1763TIP3    H1 5253   2.920   6.826   1.066 -0.2933  0.1604  0.1512
 1763TIP3    H2 5254   2.833   6.774   1.178 -0.6633  0.0154 -0.1971
 1764TIP3   OH2 5255   1.526   5.509   5.823 -0.0673  0.6014  0.2181
 1764TIP3    H1 5256   1.524   5.553   5.737 -1.5116  0.2527  0.0551
 1764TIP3    H2 5257   1.551   5.419   5.802  2.9946  1.2662  0.5621
 1765TIP3   OH2 5258   2.956   1.515   4.769  0.2444 -0.3328  0.4462
 1765TIP3    H1 5259   2.874   1.472   4.744  0.5355  0.5667 -2.3186
 1765TIP3    H2 5260   2.931   1.606   4.786  0.4157 -0.4635  1.5156
 1766TIP3   OH2 5261   0.443   2.823   5.165 -0.1491  0.5603 -0.1777
 1766TIP3    H1 5262   0.429   2.732   5.140 -2.0158 -0.0026  2.4792
 1766TIP3    H2 5263   0.365   2.847   5.215  0.4197  3.5597 -0.5296
 1767TIP3   OH2 5264   4.721   4.057   3.971 -0.3600  0.1233  0.0094
 1767TIP3    H1 5265   4.682   4.023   3.891 -0.8956  0.9154 -0.0707
 1767TIP3    H2 5266   4.669   4.133   3.994  0.7264  0.8218  0.2681
 1768TIP3   OH2 5267   1.262   2.016   5.091  0.1314  0.7010  0.3946
 1768TIP3    H1 5268   1.203   2.047   5.159  0.0824  0.3817  0.4998
 1768TIP3    H2 5269   1.292   2.096   5.047  0.0044  0.8943  0.6558
 1769TIP3   OH2 5270   2.479   5.494   3.362  0.5327  0.0317 -0.1639
 1769TIP3    H1 5271   2.542   5.563   3.342 -0.7643  0.9685 -1.2152
 1769TIP3    H2 5272   2.441   5.518   3.447  0.8977 -0.0209  0.0148
 1770TIP3   OH2 5273   2.168   3.400   2.163  0.1297  0.2228 -0.6457
 1770TIP3    H1 5274   2.078   3.367   2.153 -0.3563  1.2025  0.3428
 1770TIP3    H2 5275   2.220   3.343   2.107 -0.9140 -1.2161 -0.2149
 1771TIP3   OH2 5276   0.756   1.273   1.681  0.5340  0.0697 -0.3533
 1771TIP3    H1 5277   0.664   1.248   1.673 -0.0332  1.6372  0.6951
 1771TIP3    H2 5278   0.801   1.191   1.700 -0.4010 -0.9575 -2.2606
 1772TIP3   OH2 5279   0.513   3.209   0.553 -0.2560 -0.8084  0.0322
 1772TIP3    H1 5280   0.567   3.140   0.591  2.2723  0.8187 -0.3464
 1772TIP3    H2 5281   0.482   3.172   0.471 -0.3490 -2.0542  0.5990
 1773TIP3   OH2 5282   2.870   3.384   0.326  0.6698  0.3605  0.5445
 1773TIP3    H1 5283   2.895   3.474   0.303  0.0036  0.4903  0.3195
 1773TIP3    H2 5284   2.792   3.394   0.381 -0.9724 -0.1693 -1.5995
 1774TIP3   OH2 5285   3.606   5.343   0.627 -0.0050  0.4837 -0.2914
 1774TIP3    H1 5286   3.602   5.250   0.604 -2.2622  0.2554  0.7841
 1774TIP3    H2 5287   3.576   5.347   0.718  0.5008  2.2353 -0.1623
 1775TIP3   OH2 5288   0.491   5.360   3.491  0.2771 -0.2077 -0.8347
 1775TIP3    H1 5289   0.476   5.455   3.489 -1.6355 -0.4632 -1.1399
 1775TIP3    H2 5290   0.430   5.328   3.557 -0.0478 -1.3518 -1.6544
 1776TIP3   OH2 5291   3.524   0.222   3.410  0.2677  0.6849 -0.6734
 1776TIP3    H1 5292   3.487   0.284   3.473 -0.2920  1.6397 -1.8947
 1776TIP3    H2 5293   3.612   0.203   3.445 -0.9513 -0.9392  1.7926
 1777TIP3   OH2 5294   2.054   0.100   2.405  0.0505  0.0273 -0.2074
 1777TIP3    H1 5295   2.050   0.175   2.345 -0.5916  0.7988  0.7720
 1777TIP3    H2 5296   2.144   0.100   2.438 -0.0660  0.6465  0.1245
 1778TIP3   OH2 5297   3.688   6.581   2.273  0.1954 -0.2513  0.1858
 1778TIP3    H1 5298   3.741   6.560   2.196 -0.8940 -2.2698 -0.0879
 1778TIP3    H2 5299   3.614   6.630   2.238  1.8568  2.8190  0.6021
 1779TIP3   OH2 5300   6.566   1.654   1.754 -0.0787 -0.1576  0.1110
 1779TIP3    H1 5301   6.510   1.581   1.729 -1.0786  0.4876  0.4179
 1779TIP3    H2 5302   6.642   1.647   1.696 -0.9414 -0.4615 -1.0240
 1780TIP3   OH2 5303   2.998   0.629   2.050  0.2552 -0.5798  0.0518
 1780TIP3    H1 5304   3.068   0.665   1.996  0.0127 -2.2324 -1.4500
 1780TIP3    H2 5305   2.941   0.704   2.069  0.9171  0.2430 -1.1176
 1781TIP3   OH2 5306   4.071   1.609   4.395  0.5950 -0.0590  0.1675
 1781TIP3    H1 5307   3.984   1.638   4.365  0.8731  2.1426  1.2403
 1781TIP3    H2 5308   4.053   1.529   4.444 -0.7266 -0.1007 -0.3264
 1782TIP3   OH2 5309   3.067   6.315   4.745 -0.8691 -0.3610 -0.0952
 1782TIP3    H1 5310   3.127   6.345   4.677 -0.2724 -0.4126  0.4011
 1782TIP3    H2 5311   3.089   6.366   4.822  0.4843 -2.3186  0.9103
 1783TIP3   OH2 5312   0.909   0.735   4.294  0.0544  0.7120 -0.0019
 1783TIP3    H1 5313   0.931   0.816   4.248 -2.3069  0.0387 -2.6336
 1783TIP3    H2 5314   0.950   0.666   4.242  0.4385  0.1010  1.0937
 1784TIP3   OH2 5315   0.987   2.452   0.352  0.4303 -0.1659 -0.3427
 1784TIP3    H1 5316   0.976   2.434   0.259 -1.1633  0.2803 -0.2778
 1784TIP3    H2 5317   1.080   2.470   0.362  0.7761 -1.0526 -1.6880
 1785TIP3   OH2 5318   0.303   6.150   2.247 -0.2895 -0.0314  0.2642
 1785TIP3    H1 5319   0.302   6.232   2.196 -2.3005  0.4112  0.9408
 1785TIP3    H2 5320   0.296   6.178   2.338  1.2644 -0.9051  0.6853
 1786TIP3   OH2 5321   1.443   6.758   2.109 -0.2357 -0.4008  0.4960
 1786TIP3    H1 5322   1.469   6.820   2.177  1.9610  1.8858 -2.1899
 1786TIP3    H2 5323   1.520   6.750   2.052 -2.5331 -0.4600 -2.9008
 1787TIP3   OH2 5324   1.751   6.781   5.603  0.1709  0.4894 -0.3415
 1787TIP3    H1 5325   1.771   6.690   5.580 -2.2830  0.1699 -1.4953
 1787TIP3    H2 5326   1.822   6.806   5.662 -0.0296 -2.7919  1.5650
 1788TIP3   OH2 5327   1.019   2.884   4.977 -0.0210  0.1021  0.4337
 1788TIP3    H1 5328   0.938   2.899   5.026 -0.6061 -0.7471 -0.2511
 1788TIP3    H2 5329   1.025   2.959   4.917  0.6955  1.1440  1.7398
 1789TIP3   OH2 5330   0.050   0.159   1.084  0.0847 -0.0434  1.2132
 1789TIP3    H1 5331   0.141   0.154   1.053  0.1258  0.1354  1.3070
 1789TIP3    H2 5332   0.023   0.249   1.067 -0.4899 -0.4128  0.0294
 1790TIP3   OH2 5333   1.146   2.051   2.175  0.5033 -0.1447 -0.3049
 1790TIP3    H1 5334   1.227   2.031   2.130  0.0008 -0.5644 -1.0419
 1790TIP3    H2 5335   1.145   1.992   2.251  1.4183  0.6686  0.3583
 1791TIP3   OH2 5336   6.314   3.526   4.967 -0.1484  0.1345  0.5587
 1791TIP3    H1 5337   6.235   3.473   4.965 -0.5355  0.5711  2.2578
 1791TIP3    H2 5338   6.376   3.474   5.019  0.7911 -0.3134 -0.9562
 1792TIP3   OH2 5339   2.243   1.290   3.593  0.6442  0.0847  0.7763
 1792TIP3    H1 5340   2.151   1.282   3.567  0.4570 -0.0521  1.4585
 1792TIP3    H2 5341   2.240   1.293   3.689  1.1248  2.7424  0.7927
 1793TIP3   OH2 5342   0.762   6.750   4.635 -0.0776 -0.5615 -0.3095
 1793TIP3    H1 5343   0.798   6.665   4.611  0.2595 -1.0584  1.7395
 1793TIP3    H2 5344   0.696   6.731   4.702 -0.7108  0.7167 -0.5226
 1794TIP3   OH2 5345   3.627   5.331   1.259 -0.4771  0.3945  0.6614
 1794TIP3    H1 5346   3.605   5.420   1.232 -2.4640 -0.5751 -1.2312
 1794TIP3    H2 5347   3.557   5.307   1.320  0.8151  0.5490  2.2747
 1795TIP3   OH2 5348   5.742   5.715   1.438 -0.3390  0.2039  0.1419
 1795TIP3    H1 5349   5.729   5.808   1.453 -1.0560  0.0213  0.7175
 1795TIP3    H2 5350   5.691   5.696   1.360  1.5190  0.6909 -1.2718
 1796TIP3   OH2 5351   3.969   2.511   3.582 -0.2950 -0.6526 -0.6377
 1796TIP3    H1 5352   3.893   2.460   3.609 -0.4426  0.2626  0.7266
 1796TIP3    H2 5353   3.933   2.581   3.527 -0.4076 -0.3654 -0.1965
 1797TIP3   OH2 5354   7.054   2.316   2.636  0.2641 -0.1802  0.3491
 1797TIP3    H1 5355   7.092   2.337   2.722  0.0401  2.0278 -0.0380
 1797TIP3    H2 5356   7.063   2.221   2.629  1.9044 -0.2190  2.0549
 1798TIP3   OH2 5357   6.807   2.006   1.792  0.6056  0.3185  0.0649
 1798TIP3    H1 5358   6.766   2.052   1.719 -2.0049  0.2265  1.3469
 1798TIP3    H2 5359   6.806   2.070   1.864  3.0055  0.3742  0.1543
 1799TIP3   OH2 5360   5.136   3.948   1.112  0.6334 -0.3190  0.6626
 1799TIP3    H1 5361   5.098   3.924   1.197 -0.0590 -0.2328  0.3798
 1799TIP3    H2 5362   5.070   4.005   1.071 -0.0412 -2.0886 -0.8591
 1800TIP3   OH2 5363   4.968   1.432   5.442 -0.4439  0.3820 -0.3389
 1800TIP3    H1 5364   4.973   1.509   5.499 -0.2166  0.0586  0.0777
 1800TIP3    H2 5365   5.032   1.449   5.373 -0.4044  0.5750 -0.2545
 1801TIP3   OH2 5366   5.551   1.178   0.099 -0.0827  0.6392  0.3454
 1801TIP3    H1 5367   5.553   1.155   0.006  0.6079  0.3639  0.4183
 1801TIP3    H2 5368   5.537   1.272   0.101 -0.1221  0.6413 -0.0403
 1802TIP3   OH2 5369   5.996   6.234   2.048 -0.2847 -0.5550  0.2061
 1802TIP3    H1 5370   5.902   6.250   2.051 -0.1115  1.1312 -1.4934
 1802TIP3    H2 5371   6.008   6.177   1.972  0.0097 -1.5458  0.9678
 1803TIP3   OH2 5372   2.208   5.520   5.469 -0.3427  0.4134 -0.2538
 1803TIP3    H1 5373   2.235   5.430   5.451 -1.1450  0.0577  0.3016
 1803TIP3    H2 5374   2.280   5.557   5.521 -0.8916 -0.5169  1.1996
 1804TIP3   OH2 5375   3.379   1.107   5.628 -0.5867 -0.0980  0.1327
 1804TIP3    H1 5376   3.451   1.142   5.679  0.4736 -1.9398 -0.0195
 1804TIP3    H2 5377   3.401   1.127   5.537 -0.1745 -0.7912  0.0750
 1805TIP3   OH2 5378   4.366   6.799   2.965  0.1532  0.0754  0.2080
 1805TIP3    H1 5379   4.271   6.810   2.973  0.0706  0.3953 -0.9812
 1805TIP3    H2 5380   4.376   6.724   2.906  0.5752  1.8603 -2.1226
 1806TIP3   OH2 5381   0.109   0.435   2.368  0.0284 -0.7842 -0.3988
 1806TIP3    H1 5382   0.096   0.490   2.291 -1.4033  0.2280  0.5161
 1806TIP3    H2 5383   0.161   0.489   2.427 -0.7206 -0.6880  0.1925
 1807TIP3   OH2 5384   5.066   1.044   1.328 -0.4182 -0.3261 -0.5178
 1807TIP3    H1 5385   5.143   0.991   1.350  0.1074  1.1284  1.4245
 1807TIP3    H2 5386   5.077   1.124   1.379 -1.8394  1.1266 -2.3533
 1808TIP3   OH2 5387   5.077   1.639   1.575 -0.5857  0.2437 -0.0606
 1808TIP3    H1 5388   5.079   1.684   1.490 -2.4697 -1.2876 -0.9963
 1808TIP3    H2 5389   4.989   1.601   1.580  0.8342 -3.3839  0.5796
 1809TIP3   OH2 5390   5.757   1.441   2.465  0.0451  0.0120  0.5187
 1809TIP3    H1 5391   5.740   1.404   2.552  2.7955  0.6592  1.4260
 1809TIP3    H2 5392   5.852   1.437   2.455 -0.1463  0.2437 -2.3799
 1810TIP3   OH2 5393   1.079   3.561   2.823 -0.5348  0.1163  0.1122
 1810TIP3    H1 5394   1.164   3.518   2.814 -0.6292 -0.2825  1.0396
 1810TIP3    H2 5395   1.048   3.572   2.733 -0.4073 -1.5680 -0.1810
 1811TIP3   OH2 5396   1.713   6.731   2.286  0.2132  0.1435 -0.0598
 1811TIP3    H1 5397   1.719   6.826   2.278  0.3267  0.3868  2.3344
 1811TIP3    H2 5398   1.640   6.717   2.346  0.4677 -1.2681 -0.0539
 1812TIP3   OH2 5399   7.094   2.808   0.982 -0.2013  0.5964 -0.0728
 1812TIP3    H1 5400   7.093   2.865   1.058 -1.3289  0.0188  0.3669
 1812TIP3    H2 5401   7.025   2.842   0.925  0.2409  0.6695 -0.5766
 1813TIP3   OH2 5402   3.473   4.581   2.538  0.8692 -0.1367 -0.0169
 1813TIP3    H1 5403   3.410   4.551   2.472  1.1303  1.8036 -1.2432
 1813TIP3    H2 5404   3.419   4.603   2.614  0.3641 -0.7837 -0.1744
 1814TIP3   OH2 5405   0.405   4.987   3.338 -0.2580 -0.0498 -0.2132
 1814TIP3    H1 5406   0.476   5.013   3.397  0.8476 -2.4104 -0.3842
 1814TIP3    H2 5407   0.352   5.066   3.328 -0.1042  0.6752  3.3363
 1815TIP3   OH2 5408   0.831   6.528   5.795 -0.3994 -0.0718  0.2266
 1815TIP3    H1 5409   0.824   6.484   5.710  0.3733  1.8626 -0.9058
 1815TIP3    H2 5410   0.913   6.496   5.832 -1.4966 -2.1516  1.0710
 1816TIP3   OH2 5411   5.474   5.594   2.491  0.3191 -0.2907 -0.3462
 1816TIP3    H1 5412   5.490   5.596   2.397 -0.3711 -1.5143 -0.5169
 1816TIP3    H2 5413   5.398   5.651   2.504 -0.0995 -0.7712 -0.6543
 1817TIP3   OH2 5414   2.301   5.888   0.353  0.3980 -0.2332  0.3048
 1817TIP3    H1 5415   2.344   5.940   0.421  0.4741  1.0595 -0.6809
 1817TIP3    H2 5416   2.351   5.807   0.350  1.0336  0.1105  1.0875
 1818TIP3   OH2 5417   4.211   1.099   0.059 -0.9050 -0.4111  0.4701
 1818TIP3    H1 5418   4.218   1.008   0.089  0.0613 -0.2882  0.6435
 1818TIP3    H2 5419   4.280   1.108  -0.006 -0.1204  0.5640  1.4037
 1819TIP3   OH2 5420   3.591   1.171   3.125 -0.2251  0.6639  0.4731
 1819TIP3    H1 5421   3.570   1.122   3.205 -3.5572  2.9522  1.1817
 1819TIP3    H2 5422   3.577   1.108   3.054 -0.0073 -0.6100  1.5184
 1820TIP3   OH2 5423   6.970   0.633   3.201 -0.5108  0.6417 -0.3373
 1820TIP3    H1 5424   7.009   0.589   3.276 -2.2397 -0.6086 -0.0958
 1820TIP3    H2 5425   6.938   0.562   3.145  2.2478  1.4515 -3.2172
 1821TIP3   OH2 5426   2.602   5.085   1.450 -0.3227  0.0405  0.2657
 1821TIP3    H1 5427   2.547   5.013   1.479  0.0375 -0.3799 -0.0798
 1821TIP3    H2 5428   2.563   5.113   1.367  0.1100 -0.4043 -0.0911
 1822TIP3   OH2 5429   3.693   0.065   4.560 -0.0874  0.2751 -0.0522
 1822TIP3    H1 5430   3.605   0.103   4.564 -0.7051 -1.0767 -0.2724
 1822TIP3    H2 5431   3.748   0.128   4.608 -1.4683  0.3461  1.5445
 1823TIP3   OH2 5432   2.881   2.585   2.368  0.0154  0.1283  0.0813
 1823TIP3    H1 5433   2.879   2.589   2.272  2.3667 -1.5392 -0.1203
 1823TIP3    H2 5434   2.886   2.492   2.388 -0.6864  0.4481  1.8625
 1824TIP3   OH2 5435   6.164   5.127   4.822 -0.7695 -0.5224  0.3113
 1824TIP3    H1 5436   6.074   5.158   4.816 -0.8732 -0.5741  1.3079
 1824TIP3    H2 5437   6.166   5.076   4.903  0.2943 -0.0286  0.6197
 1825TIP3   OH2 5438   0.897   6.084   1.711 -0.1453 -0.0727  0.4834
 1825TIP3    H1 5439   0.955   6.013   1.684  0.9563  0.5047  1.2520
 1825TIP3    H2 5440   0.843   6.045   1.781 -0.0975 -0.3747  0.3556
 1826TIP3   OH2 5441   4.458   1.884   1.853 -0.0507  0.3882 -0.1912
 1826TIP3    H1 5442   4.392   1.927   1.907 -0.1920  0.6867 -0.5914
 1826TIP3    H2 5443   4.524   1.951   1.837  0.2376  0.1575  0.0151
 1827TIP3   OH2 5444   1.459   3.416   1.525  0.2806  0.7170 -0.4000
 1827TIP3    H1 5445   1.448   3.321   1.536 -0.3714  0.8731  0.3765
 1827TIP3    H2 5446   1.383   3.454   1.569  0.7990  1.6274 -0.2758
 1828TIP3   OH2 5447   6.793   1.200   3.069 -0.0938  0.5148  0.7676
 1828TIP3    H1 5448   6.779   1.277   3.124 -1.2737  1.6959 -1.0617
 1828TIP3    H2 5449   6.705   1.171   3.045  0.3284  1.1842 -1.9029
 1829TIP3   OH2 5450   5.507   2.114   5.498 -0.2487  0.1493  0.8900
 1829TIP3    H1 5451   5.549   2.169   5.564 -1.3121  1.1061  0.7974
 1829TIP3    H2 5452   5.579   2.088   5.440  0.3297  1.2556  1.0755
 1830TIP3   OH2 5453   4.115   5.158   5.116  0.0380  0.2875 -0.4944
 1830TIP3    H1 5454   4.082   5.240   5.152  0.7015  0.2003  0.3370
 1830TIP3    H2 5455   4.038   5.116   5.078 -0.7656  0.2505  1.0783
 1831TIP3   OH2 5456   1.526   3.304   3.820  0.4524 -0.0464  0.3695
 1831TIP3    H1 5457   1.552   3.244   3.750 -0.4150 -0.8473  0.7110
 1831TIP3    H2 5458   1.560   3.389   3.792  1.7310 -0.6894 -0.1082
 1832TIP3   OH2 5459   0.107   3.696   0.826 -0.3759 -0.0532 -0.1792
 1832TIP3    H1 5460   0.202   3.711   0.826 -0.3507 -0.2071 -0.3997
 1832TIP3    H2 5461   0.081   3.709   0.735 -0.4793 -0.5668 -0.2210
 1833TIP3   OH2 5462   7.108   2.689   2.837 -0.8872  0.7347 -0.6033
 1833TIP3    H1 5463   7.172   2.632   2.793 -0.9933  0.4598 -0.4086
 1833TIP3    H2 5464   7.144   2.777   2.828 -0.1727  0.5142  0.0210
 1834TIP3   OH2 5465   6.190   6.062   2.217 -0.4205 -0.3702  0.1396
 1834TIP3    H1 5466   6.158   6.013   2.293  0.7191 -0.1104  0.8109
 1834TIP3    H2 5467   6.139   6.143   2.217  2.8400  2.0485  3.7326
 1835TIP3   OH2 5468   2.789   0.797   3.457 -0.2482 -0.2399  0.1000
 1835TIP3    H1 5469   2.803   0.729   3.523  0.6308 -0.1551  0.0150
 1835TIP3    H2 5470   2.822   0.877   3.497 -0.9318  0.0723  0.0548
 1836TIP3   OH2 5471   3.666   1.725   0.969 -0.1314 -0.7441  0.2064
 1836TIP3    H1 5472   3.607   1.684   1.032 -0.0018 -1.1840  0.0469
 1836TIP3    H2 5473   3.684   1.656   0.905 -0.3084 -0.2937 -0.3433
 1837TIP3   OH2 5474   3.844   3.263   0.656 -0.0438 -0.5746  0.1152
 1837TIP3    H1 5475   3.901   3.251   0.732  0.1795 -1.5488 -0.1885
 1837TIP3    H2 5476   3.905   3.275   0.582 -0.1857 -2.1039 -0.2903
 1838TIP3   OH2 5477   0.675   6.547   0.908  0.5521 -0.4449 -1.0137
 1838TIP3    H1 5478   0.663   6.582   0.996 -0.6442 -1.7012 -0.6376
 1838TIP3    H2 5479   0.619   6.602   0.853  1.5298  0.5265 -1.0499
 1839TIP3   OH2 5480   3.284   4.829   3.471  0.3731 -0.0017  0.1329
 1839TIP3    H1 5481   3.241   4.827   3.386  1.7788 -0.9962 -0.5903
 1839TIP3    H2 5482   3.310   4.920   3.483 -2.1059  0.7016  0.7326
 1840TIP3   OH2 5483   0.008   2.185   2.064 -0.4689 -0.5558 -0.2061
 1840TIP3    H1 5484  -0.030   2.128   2.130  0.3656 -0.2725  0.5283
 1840TIP3    H2 5485   0.042   2.125   1.998 -2.9039 -0.8185 -1.3465
 1841TIP3   OH2 5486   4.359   6.544   4.117  0.4189  0.3915 -0.6192
 1841TIP3    H1 5487   4.427   6.495   4.072 -0.3080  0.0849 -1.4060
 1841TIP3    H2 5488   4.331   6.610   4.054 -0.0166  0.5154 -0.3005
 1842TIP3   OH2 5489   3.233   3.130   5.636 -0.0793 -0.5950 -0.4629
 1842TIP3    H1 5490   3.206   3.210   5.681  0.7419  0.4148 -1.6949
 1842TIP3    H2 5491   3.277   3.078   5.704 -1.3285 -0.3919  0.5420
 1843TIP3   OH2 5492   4.533   1.387   4.379  0.1219  0.0724  0.5218
 1843TIP3    H1 5493   4.462   1.322   4.378 -1.4084  1.6835 -0.1223
 1843TIP3    H2 5494   4.503   1.456   4.321  2.0882  0.9994  0.5336
 1844TIP3   OH2 5495   0.844   3.058   2.363 -0.1728  0.3694 -0.1246
 1844TIP3    H1 5496   0.751   3.079   2.361 -0.2548 -0.0123 -0.5542
 1844TIP3    H2 5497   0.864   3.047   2.456 -1.0509 -1.6086 -0.1157
 1845TIP3   OH2 5498   6.412   6.254   3.402  1.0130  0.4159 -0.0058
 1845TIP3    H1 5499   6.455   6.255   3.487  0.5342  0.8064  0.2344
 1845TIP3    H2 5500   6.453   6.181   3.355  0.0659 -0.9224  1.1882
 1846TIP3   OH2 5501   1.618   1.677   2.514 -0.1722  0.4824 -0.0276
 1846TIP3    H1 5502   1.610   1.590   2.476 -3.0414  0.2449  0.8584
 1846TIP3    H2 5503   1.691   1.718   2.467 -0.3235 -1.5226 -2.1787
 1847TIP3   OH2 5504   4.745   1.724   5.864 -0.3219  0.1023 -0.2361
 1847TIP3    H1 5505   4.676   1.779   5.901 -1.2026  0.8864 -2.8322
 1847TIP3    H2 5506   4.721   1.635   5.890 -1.4640  0.5060  0.1602
 1848TIP3   OH2 5507   1.168   0.244   3.117 -0.2254  0.0772 -0.0838
 1848TIP3    H1 5508   1.194   0.319   3.064 -0.4042 -0.5195 -1.0388
 1848TIP3    H2 5509   1.217   0.170   3.081 -1.1853 -0.5459 -0.1466
 1849TIP3   OH2 5510   1.911   4.356   0.395  0.0782 -0.5405 -0.3905
 1849TIP3    H1 5511   1.945   4.440   0.364  0.3566 -0.5285 -0.0658
 1849TIP3    H2 5512   1.878   4.374   0.483  1.7334 -1.1248  0.3940
 1850TIP3   OH2 5513   4.769   1.049   3.940 -0.1558 -0.1215 -0.2888
 1850TIP3    H1 5514   4.715   1.004   4.004 -2.4177  2.2423 -0.3899
 1850TIP3    H2 5515   4.774   1.140   3.971  0.9433  0.4881 -2.0714
 1851TIP3   OH2 5516   1.429   4.333   3.785 -0.1674 -0.0164  0.1247
 1851TIP3    H1 5517   1.438   4.264   3.850  0.9883 -0.4095 -0.4266
 1851TIP3    H2 5518   1.370   4.297   3.719 -0.4768 -0.0264  0.4028
 1852TIP3   OH2 5519   2.963   1.046   4.289  0.1816 -0.1281 -0.1886
 1852TIP3    H1 5520   2.991   1.103   4.217  1.2004  0.6229  0.7750
 1852TIP3    H2 5521   2.964   1.103   4.366 -0.2593 -1.0805  0.5409
 1853TIP3   OH2 5522   4.911   6.122   2.211  0.3609 -0.3312  0.1490
 1853TIP3    H1 5523   4.838   6.153   2.158  2.9100  2.7833 -1.8916
 1853TIP3    H2 5524   4.966   6.072   2.149  2.2011  1.3534  0.3130
 1854TIP3   OH2 5525   3.486   3.037   1.344 -0.3291 -0.0328 -0.6697
 1854TIP3    H1 5526   3.457   3.096   1.414 -0.4913 -0.8430 -0.0467
 1854TIP3    H2 5527   3.545   2.975   1.387  1.3308  0.7855 -1.6718
 1855TIP3   OH2 5528   0.641   4.582   0.718 -0.6893  0.4627 -0.1251
 1855TIP3    H1 5529   0.675   4.527   0.648  0.5867  1.4970 -0.3360
 1855TIP3    H2 5530   0.549   4.554   0.727 -0.0717 -1.7665 -0.1388
 1856TIP3   OH2 5531   2.315   4.910   3.454  0.5198  0.3157 -0.1020
 1856TIP3    H1 5532   2.314   4.973   3.383 -0.2930  0.0735 -0.3101
 1856TIP3    H2 5533   2.404   4.874   3.452  0.8799  1.1816 -0.2051
 1857TIP3   OH2 5534   6.224   3.872   1.715  0.5741  0.0615  0.1946
 1857TIP3    H1 5535   6.188   3.904   1.798  1.9927  0.4393  0.6995
 1857TIP3    H2 5536   6.179   3.790   1.698  0.0430  0.1425  1.1847
 1858TIP3   OH2 5537   0.776   4.312   2.332 -0.4958 -0.3495 -0.3296
 1858TIP3    H1 5538   0.824   4.390   2.306 -0.4500 -0.3130 -0.1371
 1858TIP3    H2 5539   0.687   4.327   2.300 -0.8810  0.4724  1.0341
 1859TIP3   OH2 5540   6.726   2.257   5.116  0.3142  0.4219 -0.0432
 1859TIP3    H1 5541   6.774   2.262   5.198 -0.8493  0.3835  0.6661
 1859TIP3    H2 5542   6.761   2.179   5.072  0.5308  0.0964  0.6901
 1860TIP3   OH2 5543   1.215   0.903   4.748  0.7221 -0.3195 -0.4854
 1860TIP3    H1 5544   1.184   0.833   4.690 -2.0960  2.2696 -2.3889
 1860TIP3    H2 5545   1.136   0.937   4.788  1.8935  2.2454 -0.2012
 1861TIP3   OH2 5546   0.307   6.555   0.846 -0.5423  0.4594  0.7918
 1861TIP3    H1 5547   0.369   6.518   0.783 -0.7551 -0.5840  1.1737
 1861TIP3    H2 5548   0.356   6.625   0.890  0.6484 -0.8467  1.6354
 1862TIP3   OH2 5549   6.601   4.215   3.889 -0.3027 -0.1160 -0.1987
 1862TIP3    H1 5550   6.632   4.268   3.962 -2.5636  0.3746  0.4502
 1862TIP3    H2 5551   6.593   4.126   3.925 -1.1677  0.0751  0.0958
 1863TIP3   OH2 5552   1.019   0.657   5.227 -0.0192 -0.5344  0.4647
 1863TIP3    H1 5553   0.949   0.717   5.201 -0.6734 -1.4681  0.0159
 1863TIP3    H2 5554   1.086   0.668   5.159 -0.0004 -0.0991  0.5502
 1864TIP3   OH2 5555   5.575   5.860   1.778  0.3481 -0.4443 -0.1550
 1864TIP3    H1 5556   5.644   5.913   1.738 -0.9852  2.5929  1.2143
 1864TIP3    H2 5557   5.509   5.849   1.709  0.8407 -0.7325 -0.5841
 1865TIP3   OH2 5558   2.317   6.559   2.588  0.0945  0.7703  0.0569
 1865TIP3    H1 5559   2.391   6.499   2.576 -1.5421 -2.0011  2.4375
 1865TIP3    H2 5560   2.242   6.513   2.552 -0.8355  2.6852 -0.5994
 1866TIP3   OH2 5561   4.581   3.219   0.502 -0.1120 -0.3283  0.0219
 1866TIP3    H1 5562   4.599   3.310   0.480 -1.5335  0.1220  0.5863
 1866TIP3    H2 5563   4.636   3.168   0.443 -2.1013  0.8460 -3.0904
 1867TIP3   OH2 5564   0.153   5.566   5.321 -0.0836  0.0486  0.1793
 1867TIP3    H1 5565   0.073   5.611   5.292  1.0356  1.5734 -0.7149
 1867TIP3    H2 5566   0.133   5.473   5.310 -1.0101  0.4501 -2.1418
 1868TIP3   OH2 5567   0.660   3.838   2.630  0.4136 -0.1633 -0.1622
 1868TIP3    H1 5568   0.708   3.911   2.669 -1.2133  0.3319  1.0282
 1868TIP3    H2 5569   0.690   3.835   2.540 -0.1163  2.6042 -0.5269
 1869TIP3   OH2 5570   1.005   2.891   2.687  0.3306 -0.5300 -0.1213
 1869TIP3    H1 5571   1.004   2.987   2.687 -0.6152 -0.5086  0.9855
 1869TIP3    H2 5572   1.002   2.868   2.780 -3.6211 -1.5948 -0.3577
 1870TIP3   OH2 5573   4.675   6.793   3.359  0.1518  0.7566 -0.5649
 1870TIP3    H1 5574   4.615   6.758   3.293  0.4612  1.2643 -1.1262
 1870TIP3    H2 5575   4.754   6.739   3.350 -0.3637 -0.2082  0.4817
 1871TIP3   OH2 5576   0.625   6.104   1.002  0.2696 -0.3256  0.5418
 1871TIP3    H1 5577   0.614   6.027   1.058 -1.6077  0.6204  1.5585
 1871TIP3    H2 5578   0.568   6.088   0.926 -0.4574  0.2165  0.9600
 1872TIP3   OH2 5579   6.981   0.983   5.510  0.0700 -0.0473 -0.0255
 1872TIP3    H1 5580   6.931   0.924   5.567 -0.4299  1.8489  1.6126
 1872TIP3    H2 5581   7.072   0.958   5.524 -0.2115 -2.1852 -1.4859
 1873TIP3   OH2 5582   3.807   1.008   2.507 -0.1274 -0.2029  0.4945
 1873TIP3    H1 5583   3.879   1.066   2.480  1.3542 -1.9297  0.5650
 1873TIP3    H2 5584   3.795   1.027   2.600  1.0197 -0.6428  0.7575
 1874TIP3   OH2 5585   6.823   1.764   2.772 -0.4813 -0.3591  0.3969
 1874TIP3    H1 5586   6.751   1.710   2.738  0.6842 -0.7611 -1.5551
 1874TIP3    H2 5587   6.798   1.854   2.751 -0.7651 -0.4341  0.4081
 1875TIP3   OH2 5588   3.607   0.793   5.811  0.0903 -0.2436  0.1996
 1875TIP3    H1 5589   3.672   0.735   5.771 -1.1055 -1.6781  0.2281
 1875TIP3    H2 5590   3.550   0.818   5.738 -1.1213 -1.5283  0.6501
 1876TIP3   OH2 5591   6.300   3.715   4.097  0.1052  0.5730 -0.2178
 1876TIP3    H1 5592   6.251   3.645   4.054 -0.6344  0.4746  0.7696
 1876TIP3    H2 5593   6.391   3.688   4.090 -0.0682  0.1569 -0.9952
 1877TIP3   OH2 5594   1.475   2.656   3.063  0.3116  0.1627 -0.2969
 1877TIP3    H1 5595   1.522   2.617   2.990  1.3874  1.2995 -0.2495
 1877TIP3    H2 5596   1.537   2.719   3.101  0.6970 -1.9752  3.0244
 1878TIP3   OH2 5597   0.730   2.074   0.173  0.4106 -0.2995  0.5552
 1878TIP3    H1 5598   0.786   2.050   0.247  2.8017 -1.7317 -1.5422
 1878TIP3    H2 5599   0.789   2.119   0.113 -1.3002  0.2444 -0.7798
 1879TIP3   OH2 5600   7.095   2.622   2.077 -0.3563 -0.5125  0.1137
 1879TIP3    H1 5601   7.158   2.590   2.013 -0.2144 -1.2028  0.5900
 1879TIP3    H2 5602   7.132   2.598   2.162 -1.7338 -1.8757  0.3735
 1880TIP3   OH2 5603   3.166   0.934   4.727  0.1053  0.2461 -0.4228
 1880TIP3    H1 5604   3.247   0.892   4.698  0.2699 -0.1513  0.5708
 1880TIP3    H2 5605   3.176   0.943   4.822 -0.6745  0.9403 -0.3945
 1881TIP3   OH2 5606   6.860   2.604   2.878  0.2292  0.2197  0.1247
 1881TIP3    H1 5607   6.951   2.636   2.874  0.4230 -0.1134  1.3549
 1881TIP3    H2 5608   6.845   2.565   2.793  0.3699  2.5502 -1.0533
 1882TIP3   OH2 5609   7.078   3.081   1.631  0.0045  0.6561  0.0316
 1882TIP3    H1 5610   7.125   3.094   1.549  0.2725 -1.5295 -0.2256
 1882TIP3    H2 5611   7.013   3.014   1.610 -0.8252  1.0544  1.2768
 1883TIP3   OH2 5612   2.098   5.813   1.458 -0.1882 -0.1516 -0.3078
 1883TIP3    H1 5613   2.032   5.854   1.514  0.3903  1.8427 -1.0182
 1883TIP3    H2 5614   2.167   5.786   1.518 -0.2721  0.5364  0.1017
 1884TIP3   OH2 5615   3.100   3.765   2.898  0.1099  0.1031 -0.1921
 1884TIP3    H1 5616   3.076   3.692   2.841  0.0210  0.6712 -0.8811
 1884TIP3    H2 5617   3.035   3.833   2.881  0.3825  0.4714  0.2073
 1885TIP3   OH2 5618   7.051   5.155   5.366 -0.8397 -0.0112 -0.3052
 1885TIP3    H1 5619   7.114   5.223   5.387 -1.3423  0.4178 -0.1584
 1885TIP3    H2 5620   7.098   5.094   5.309 -0.3815  0.4404 -0.4090
 1886TIP3   OH2 5621   0.175   3.157   0.489 -0.2452 -0.2834 -0.2778
 1886TIP3    H1 5622   0.107   3.098   0.455  0.5685 -1.4364  0.0277
 1886TIP3    H2 5623   0.162   3.156   0.583  0.9739 -1.5566 -0.0923
 1887TIP3   OH2 5624   6.115   2.245   4.650 -1.3651 -0.3611 -0.1891
 1887TIP3    H1 5625   6.132   2.223   4.742  1.1857 -1.1857 -0.7502
 1887TIP3    H2 5626   6.099   2.160   4.608 -1.2836 -0.1273 -0.7034
 1888TIP3   OH2 5627   6.013   3.802   5.343 -0.0295  0.7436  0.1438
 1888TIP3    H1 5628   5.931   3.753   5.335  0.9486 -0.8758 -0.3394
 1888TIP3    H2 5629   6.066   3.772   5.269  1.8308  0.1406  1.6510
 1889TIP3   OH2 5630   1.753   3.218   2.283 -0.2296  0.5255  0.0589
 1889TIP3    H1 5631   1.724   3.194   2.370 -0.0040  1.1847  0.3250
 1889TIP3    H2 5632   1.688   3.181   2.224 -0.8633  0.8351  0.5609
 1890TIP3   OH2 5633   1.261   5.137   3.563 -0.2132  0.1121  0.2761
 1890TIP3    H1 5634   1.244   5.075   3.492  1.0263 -1.3810  1.2311
 1890TIP3    H2 5635   1.278   5.220   3.518 -1.2275 -0.3619 -1.0639
 1891TIP3   OH2 5636   0.126   3.134   3.076  0.1679  0.2235  0.2608
 1891TIP3    H1 5637   0.076   3.103   3.151 -1.4395  1.5856 -0.1689
 1891TIP3    H2 5638   0.134   3.229   3.089  0.2817  0.4163 -1.0032
 1892TIP3   OH2 5639   4.567   1.178   0.258  0.5318  0.2483  0.2242
 1892TIP3    H1 5640   4.526   1.105   0.304 -1.0102 -0.2142 -1.7429
 1892TIP3    H2 5641   4.642   1.202   0.313  1.2639 -2.9472  0.8631
 1893TIP3   OH2 5642   1.044   6.685   1.608  0.6887 -0.0598 -0.3342
 1893TIP3    H1 5643   0.950   6.679   1.587  1.1289 -0.4082 -2.5191
 1893TIP3    H2 5644   1.069   6.773   1.580  0.8965  0.2826  0.8891
 1894TIP3   OH2 5645   3.512   2.195   3.803 -0.7717 -0.0757 -0.3547
 1894TIP3    H1 5646   3.430   2.226   3.767 -1.3796 -0.4550  0.6584
 1894TIP3    H2 5647   3.525   2.109   3.764 -1.5599 -0.5982  0.5161
 1895TIP3   OH2 5648   3.196   0.194   2.000 -0.4755  0.0163  0.2490
 1895TIP3    H1 5649   3.291   0.188   2.012 -0.6016 -1.4904  0.7188
 1895TIP3    H2 5650   3.186   0.236   1.915  0.6751 -1.3909 -0.6451
 1896TIP3   OH2 5651   5.022   4.624   1.914  0.0459  0.1934  0.4002
 1896TIP3    H1 5652   5.110   4.628   1.877  0.0430 -1.6958  0.1037
 1896TIP3    H2 5653   5.002   4.715   1.938  1.0002  1.1125 -1.9600
 1897TIP3   OH2 5654   2.863   4.553   0.586  0.2550 -0.3410  0.7520
 1897TIP3    H1 5655   2.880   4.506   0.505  2.0383  3.1937 -1.1331
 1897TIP3    H2 5656   2.949   4.563   0.627  0.1046  1.6966  0.7090
 1898TIP3   OH2 5657   4.853   4.385   1.000 -0.2526 -0.2787 -0.1995
 1898TIP3    H1 5658   4.762   4.381   1.028  0.0321  0.0547  0.8462
 1898TIP3    H2 5659   4.896   4.437   1.068  1.2178 -2.5395  0.7126
 1899TIP3   OH2 5660   0.199   3.053   1.982 -0.2026 -0.3707 -0.2579
 1899TIP3    H1 5661   0.208   2.972   1.932 -0.2206 -0.6966  0.2589
 1899TIP3    H2 5662   0.265   3.112   1.945  0.2476 -0.8388 -0.2114
 1900TIP3   OH2 5663   6.953   2.260   5.609 -0.3863 -0.1215  0.1944
 1900TIP3    H1 5664   6.908   2.276   5.692  0.3540  1.0153  0.3930
 1900TIP3    H2 5665   6.992   2.344   5.586  1.1813 -0.9337 -0.2488
 1901TIP3   OH2 5666   1.008   1.602   4.558  0.5599 -0.0029  0.4861
 1901TIP3    H1 5667   1.073   1.547   4.515 -0.2516 -0.9183  0.3971
 1901TIP3    H2 5668   1.058   1.655   4.620  1.7672  1.3428 -1.5075
 1902TIP3   OH2 5669   1.282   2.479   2.656  0.4786 -0.3915  0.6360
 1902TIP3    H1 5670   1.312   2.569   2.671 -0.8805 -0.0315  1.3908
 1902TIP3    H2 5671   1.186   2.486   2.653  0.3713 -1.7407  0.1517
 1903TIP3   OH2 5672   1.243   0.419   2.831 -0.3519 -0.1797  0.2705
 1903TIP3    H1 5673   1.243   0.480   2.757  2.4702 -1.4794 -0.9475
 1903TIP3    H2 5674   1.244   0.476   2.908  1.7127  1.4001 -0.8016
 1904TIP3   OH2 5675   0.079   3.203   4.793 -0.6117  0.0153  0.3223
 1904TIP3    H1 5676   0.151   3.265   4.804  0.2012 -0.7877 -0.4006
 1904TIP3    H2 5677   0.079   3.153   4.875  0.7038 -1.0494 -0.2955
 1905TIP3   OH2 5678   3.771   0.220   3.577  0.1880 -0.1498 -0.1892
 1905TIP3    H1 5679   3.813   0.220   3.663 -1.6596 -1.2850  0.7935
 1905TIP3    H2 5680   3.808   0.295   3.531  1.5156  0.2420  1.4459
 1906TIP3   OH2 5681   4.170   3.551   4.451  0.5332  0.2638 -0.2545
 1906TIP3    H1 5682   4.126   3.588   4.527  1.2884 -1.6719  1.2293
 1906TIP3    H2 5683   4.262   3.547   4.476  0.8011 -0.4198 -1.2688
 1907TIP3   OH2 5684   5.996   1.432   4.806  0.0980 -0.1823 -0.1295
 1907TIP3    H1 5685   6.086   1.417   4.834  0.1872  1.7779  0.7816
 1907TIP3    H2 5686   5.951   1.350   4.828  1.8755 -1.7020 -1.8180
 1908TIP3   OH2 5687   6.185   2.213   1.330  0.2110 -0.0455  0.5043
 1908TIP3    H1 5688   6.177   2.205   1.235  0.5064  1.8813  0.2818
 1908TIP3    H2 5689   6.138   2.137   1.365  0.3386 -0.9338 -1.1764
 1909TIP3   OH2 5690   6.887   2.360   0.482  0.0509  0.2991  0.4784
 1909TIP3    H1 5691   6.819   2.324   0.425 -0.2535 -0.4526  1.2895
 1909TIP3    H2 5692   6.863   2.331   0.570  0.4341  1.5633  1.0227
 1910TIP3   OH2 5693   1.626   5.523   4.516  0.6270  0.0509  0.1102
 1910TIP3    H1 5694   1.686   5.449   4.523  1.6849  0.6982 -1.7048
 1910TIP3    H2 5695   1.549   5.496   4.567  0.9117 -2.3662 -0.6285
 1911TIP3   OH2 5696   6.374   1.886   2.476  0.3789 -0.7834  0.2079
 1911TIP3    H1 5697   6.432   1.947   2.521 -1.6228  0.4268  1.2745
 1911TIP3    H2 5698   6.345   1.825   2.544 -1.1253 -0.1413  0.1855
 1912TIP3   OH2 5699   2.315   0.620   5.474 -0.1346 -0.2062 -0.1565
 1912TIP3    H1 5700   2.350   0.650   5.390  2.3247 -1.0096  0.4796
 1912TIP3    H2 5701   2.312   0.699   5.528 -2.0605  0.3803 -1.0448
 1913TIP3   OH2 5702   0.873   1.848   2.004  0.0502 -0.0987  0.5645
 1913TIP3    H1 5703   0.956   1.828   1.961 -1.0360 -1.3402 -1.0712
 1913TIP3    H2 5704   0.887   1.934   2.045  1.8846  0.0570 -0.3093
 1914TIP3   OH2 5705   2.175   4.913   5.180 -0.4585  0.1053 -0.3506
 1914TIP3    H1 5706   2.112   4.845   5.203 -1.9774  1.0831 -1.4340
 1914TIP3    H2 5707   2.133   4.995   5.206  0.9912  0.7094  0.1896
 1915TIP3   OH2 5708   1.737   1.339   5.074 -0.0508 -0.0774  0.1389
 1915TIP3    H1 5709   1.660   1.330   5.130 -0.1948  1.8367  0.3113
 1915TIP3    H2 5710   1.800   1.389   5.126 -0.8878  3.4684 -1.9014
 1916TIP3   OH2 5711   1.957   2.621   1.669 -0.2799 -0.2123 -0.0062
 1916TIP3    H1 5712   1.978   2.538   1.713 -0.0172  0.0888  0.4438
 1916TIP3    H2 5713   1.995   2.688   1.726 -0.2966  0.2049 -0.4834
 1917TIP3   OH2 5714   5.637   2.162   5.787 -0.6192  0.2339  0.2271
 1917TIP3    H1 5715   5.677   2.089   5.740 -0.2780  0.1640  0.6261
 1917TIP3    H2 5716   5.632   2.232   5.722  0.6390  0.4201  0.3011
 1918TIP3   OH2 5717   2.447   5.486   4.763  0.0017  0.0284 -0.4052
 1918TIP3    H1 5718   2.537   5.459   4.745 -0.1710 -0.8789  0.0260
 1918TIP3    H2 5719   2.405   5.408   4.798  0.5862  1.8381  5.2079
 1919TIP3   OH2 5720   5.373   3.951   1.726  0.1097 -0.2615  0.3711
 1919TIP3    H1 5721   5.407   3.867   1.757 -0.3152 -0.4221  0.4111
 1919TIP3    H2 5722   5.278   3.939   1.724  0.0935 -0.0610 -0.4331
 1920TIP3   OH2 5723   0.705   6.189   3.430  0.0143  0.4353 -0.4566
 1920TIP3    H1 5724   0.782   6.238   3.459  1.7954 -2.0138 -0.8343
 1920TIP3    H2 5725   0.732   6.145   3.350 -2.3327  0.7684 -1.5318
 1921TIP3   OH2 5726   0.179   0.459   0.630 -0.5875  0.2448 -0.6966
 1921TIP3    H1 5727   0.083   0.457   0.623 -0.7113 -0.0691  0.6749
 1921TIP3    H2 5728   0.195   0.502   0.714  0.4730  0.0145 -0.7739
 1922TIP3   OH2 5729   6.872   5.963   5.791  0.6323  0.6207  0.3019
 1922TIP3    H1 5730   6.866   5.992   5.882  0.3992 -0.3708  0.6089
 1922TIP3    H2 5731   6.941   5.896   5.791  0.7834  0.7659 -0.2967
 1923TIP3   OH2 5732   4.461   0.734   1.892 -0.1058 -0.5967  0.4449
 1923TIP3    H1 5733   4.439   0.801   1.957 -1.0849  0.0171 -0.4861
 1923TIP3    H2 5734   4.435   0.652   1.932 -0.3265 -0.2669  0.9901
 1924TIP3   OH2 5735   6.937   5.255   0.056  0.3003  0.8250 -0.1380
 1924TIP3    H1 5736   6.935   5.289   0.145 -1.7411 -0.2313  0.2912
 1924TIP3    H2 5737   6.890   5.320   0.004 -2.7684 -0.6905  0.5124
 1925TIP3   OH2 5738   1.764   1.653   1.265  0.0222 -0.1426 -0.2694
 1925TIP3    H1 5739   1.684   1.605   1.248 -0.4279  0.3599  0.3839
 1925TIP3    H2 5740   1.802   1.669   1.179 -1.0759  0.4457 -0.6544
 1926TIP3   OH2 5741   5.123   5.272   2.156  0.1778 -0.8911  0.1501
 1926TIP3    H1 5742   5.142   5.228   2.073  1.3186 -0.1703  0.0088
 1926TIP3    H2 5743   5.206   5.270   2.204  0.1111  0.5460  0.3855
 1927TIP3   OH2 5744   0.469   6.329   3.788 -0.3277 -0.0290 -0.5115
 1927TIP3    H1 5745   0.473   6.243   3.746 -0.1499 -0.0857 -0.3762
 1927TIP3    H2 5746   0.555   6.367   3.774  0.2499 -0.6647  1.1057
 1928TIP3   OH2 5747   0.090   6.450   5.637  0.1179  0.3814 -0.1966
 1928TIP3    H1 5748   0.007   6.410   5.664  0.3937  0.2680  0.5061
 1928TIP3    H2 5749   0.157   6.391   5.671  0.4955 -0.4203 -2.1462
 1929TIP3   OH2 5750   5.594   3.529   2.050 -0.0725  0.1577  0.7773
 1929TIP3    H1 5751   5.584   3.546   2.144 -0.3836 -0.0009  0.7762
 1929TIP3    H2 5752   5.509   3.554   2.013 -0.8720 -2.1474  0.8866
 1930TIP3   OH2 5753   1.737   2.909   4.930 -0.4558 -0.1857  0.4414
 1930TIP3    H1 5754   1.737   2.918   4.835 -1.7437  1.4088  0.5428
 1930TIP3    H2 5755   1.786   2.985   4.961 -0.9438 -0.1180  1.0720
 1931TIP3   OH2 5756   3.581   5.004   3.479 -0.1638 -0.0594  0.5477
 1931TIP3    H1 5757   3.568   5.032   3.570 -1.5604  0.9061  0.0971
 1931TIP3    H2 5758   3.607   5.083   3.433 -0.5765 -0.2830 -0.0884
 1932TIP3   OH2 5759   1.952   0.339   1.731 -0.1926 -0.3870 -0.5682
 1932TIP3    H1 5760   1.925   0.412   1.675  1.1281  1.9040  1.5677
 1932TIP3    H2 5761   1.874   0.316   1.780 -0.8060 -0.9564 -1.7600
 1933TIP3   OH2 5762   3.104   2.202   5.855 -0.7516 -0.2612 -0.1223
 1933TIP3    H1 5763   3.085   2.142   5.783 -0.8555  0.3449 -0.6082
 1933TIP3    H2 5764   3.148   2.276   5.814 -2.3669  0.9028  0.1287
 1934TIP3   OH2 5765   3.331   2.484   3.027  0.0701 -0.0147 -0.0605
 1934TIP3    H1 5766   3.406   2.486   2.967  0.2469  0.5411  0.1741
 1934TIP3    H2 5767   3.257   2.516   2.975  0.3914  1.2546  0.2393
 1935TIP3   OH2 5768   3.116   2.517   2.865  0.1068 -0.1546  0.3089
 1935TIP3    H1 5769   3.059   2.444   2.888 -0.2671  0.5275  1.6164
 1935TIP3    H2 5770   3.066   2.596   2.886  0.7171  0.4953 -0.5547
 1936TIP3   OH2 5771   1.993   1.610   1.918  0.1800  0.0629 -0.0943
 1936TIP3    H1 5772   1.919   1.564   1.880  0.7083  0.8233 -2.1992
 1936TIP3    H2 5773   2.065   1.596   1.856  2.8418 -3.2011  3.2298
 1937TIP3   OH2 5774   5.234   3.557   0.467  0.7226  0.0663 -0.0834
 1937TIP3    H1 5775   5.274   3.582   0.550  0.1189  1.6383 -0.2395
 1937TIP3    H2 5776   5.253   3.629   0.407 -1.5520  0.4895 -0.3991
 1938TIP3   OH2 5777   1.635   6.038   2.997  0.1936 -0.2806  0.1023
 1938TIP3    H1 5778   1.697   6.008   2.931  1.4703 -1.1597  1.6469
 1938TIP3    H2 5779   1.649   6.133   3.001  0.6450 -0.3253 -0.3291
 1939TIP3   OH2 5780   2.644   0.992   2.477 -0.1983 -0.4665  0.0981
 1939TIP3    H1 5781   2.654   0.905   2.437  1.8633 -0.0877 -0.3062
 1939TIP3    H2 5782   2.677   1.053   2.411  0.2460  0.4467  1.1364
 1940TIP3   OH2 5783   6.967   2.128   4.990 -0.1683 -0.7564  0.1759
 1940TIP3    H1 5784   6.992   2.046   5.033  1.3336 -1.3701 -1.6720
 1940TIP3    H2 5785   7.049   2.178   4.984 -0.2196 -0.8098 -2.0449
 1941TIP3   OH2 5786   3.255   3.943   0.752 -0.0240 -0.5553 -0.1639
 1941TIP3    H1 5787   3.346   3.946   0.726 -0.2123  0.5323 -0.7325
 1941TIP3    H2 5788   3.255   3.974   0.843  0.3083 -1.8174  0.2930
 1942TIP3   OH2 5789   4.105   5.123   1.615  0.2986 -0.2188  0.1114
 1942TIP3    H1 5790   4.027   5.074   1.591 -0.7814  1.5700 -0.1825
 1942TIP3    H2 5791   4.171   5.096   1.550 -1.1316  0.8547 -1.8828
 1943TIP3   OH2 5792   4.933   2.662   0.243 -0.1468  0.3360 -0.3108
 1943TIP3    H1 5793   4.968   2.576   0.269  1.7307  0.0920 -3.2338
 1943TIP3    H2 5794   4.872   2.642   0.171 -0.6218  1.3766 -0.2179
 1944TIP3   OH2 5795   6.402   3.057   1.854  0.6060 -0.6822  0.1307
 1944TIP3    H1 5796   6.380   3.079   1.763  0.1212 -0.5045  0.2874
 1944TIP3    H2 5797   6.360   3.126   1.905  0.4044 -1.0961  0.5259
 1945TIP3   OH2 5798   5.452   2.070   5.158 -0.1148 -0.4388 -0.0891
 1945TIP3    H1 5799   5.398   2.078   5.079 -0.0395  1.2646  0.0112
 1945TIP3    H2 5800   5.527   2.127   5.142 -0.1371 -0.0010  1.2616
 1946TIP3   OH2 5801   0.574   2.895   3.156 -0.1881  0.1278 -0.0286
 1946TIP3    H1 5802   0.530   2.980   3.159 -1.4950 -0.4640 -1.2853
 1946TIP3    H2 5803   0.560   2.864   3.067  1.1862 -0.9537  0.1035
 1947TIP3   OH2 5804   6.090   0.603   3.024  0.2575  0.4363  0.0908
 1947TIP3    H1 5805   6.137   0.631   2.945  0.0833  0.9165  0.1581
 1947TIP3    H2 5806   6.153   0.617   3.095  0.5781 -0.4191 -0.0071
 1948TIP3   OH2 5807   5.742   2.252   1.432  0.1308 -0.2694 -0.3006
 1948TIP3    H1 5808   5.805   2.320   1.411 -1.6151  1.6028  0.2780
 1948TIP3    H2 5809   5.680   2.253   1.359  0.1887 -1.4261 -0.3959
 1949TIP3   OH2 5810   5.766   0.567   1.234  0.2095  0.0131  0.2749
 1949TIP3    H1 5811   5.770   0.646   1.289 -0.9591  0.4049 -0.1624
 1949TIP3    H2 5812   5.804   0.595   1.151 -0.4120  0.1887  0.0464
 1950TIP3   OH2 5813   4.967   2.347   0.763 -0.6100 -0.7991  0.0173
 1950TIP3    H1 5814   4.872   2.358   0.755 -0.7092  0.4848  2.1532
 1950TIP3    H2 5815   5.000   2.436   0.775  0.7376 -1.3311  0.3881
 1951TIP3   OH2 5816   6.255   5.817   3.176 -0.5435  0.2955 -0.1173
 1951TIP3    H1 5817   6.229   5.890   3.119 -0.8835  0.0322 -0.3004
 1951TIP3    H2 5818   6.181   5.804   3.234 -1.2248 -1.0331 -1.2172
 1952TIP3   OH2 5819   0.200   5.098   5.289 -0.2594 -0.1052 -0.0839
 1952TIP3    H1 5820   0.201   5.044   5.368 -0.9474  1.4302  1.0373
 1952TIP3    H2 5821   0.278   5.154   5.297 -0.4614  0.2242 -0.3565
 1953TIP3   OH2 5822   4.651   1.428   3.322  0.0190  0.2520 -0.2123
 1953TIP3    H1 5823   4.735   1.435   3.278 -0.6223 -0.2081 -1.5726
 1953TIP3    H2 5824   4.656   1.347   3.372 -0.2848 -0.8186 -1.8545
 1954TIP3   OH2 5825   7.187   3.244   0.980 -0.0146  0.6358 -0.2100
 1954TIP3    H1 5826   7.096   3.219   0.996 -0.1633  0.2193 -1.5743
 1954TIP3    H2 5827   7.238   3.186   1.036 -0.5419  0.0263 -0.3447
 1955TIP3   OH2 5828   0.867   2.797   3.496 -0.2854 -0.2574  0.1128
 1955TIP3    H1 5829   0.941   2.746   3.530  1.1895  2.2356  0.8520
 1955TIP3    H2 5830   0.805   2.799   3.569  0.4084  0.4269  0.6923
 1956TIP3   OH2 5831   3.687   1.185   4.066 -0.6207 -0.0725  0.4091
 1956TIP3    H1 5832   3.773   1.156   4.036  0.2594  2.6421  0.1223
 1956TIP3    H2 5833   3.705   1.252   4.132 -2.5548 -1.8494  3.0085
 1957TIP3   OH2 5834   4.732   5.674   2.497 -0.3361 -0.0800 -0.5764
 1957TIP3    H1 5835   4.711   5.767   2.497 -2.4899 -0.4462  1.6312
 1957TIP3    H2 5836   4.668   5.634   2.437 -0.2403 -0.2605 -0.5608
 1958TIP3   OH2 5837   6.072   3.188   5.299  0.0857 -0.2520  0.4060
 1958TIP3    H1 5838   6.041   3.111   5.347 -0.8286 -0.9428 -1.2088
 1958TIP3    H2 5839   6.020   3.188   5.219 -0.2320  2.3035  0.5353
 1959TIP3   OH2 5840   2.256   1.406   0.262 -0.3731  0.3001 -0.1508
 1959TIP3    H1 5841   2.269   1.349   0.337 -2.7304 -0.4931 -0.2480
 1959TIP3    H2 5842   2.271   1.349   0.186  0.1663  0.6115 -0.2841
 1960TIP3   OH2 5843   1.654   3.182   5.788  0.2128  0.4845 -0.2109
 1960TIP3    H1 5844   1.628   3.220   5.872 -0.4442  0.0523 -0.2179
 1960TIP3    H2 5845   1.588   3.116   5.769  0.9073 -0.1195 -0.5889
 1961TIP3   OH2 5846   6.926   3.662   0.427 -0.2004 -0.3242 -0.1849
 1961TIP3    H1 5847   6.938   3.757   0.421 -0.0549 -0.3759 -0.8415
 1961TIP3    H2 5848   6.863   3.642   0.358  0.6303 -0.8393 -0.8162
 1962TIP3   OH2 5849   1.943   2.774   1.933  0.1382 -0.0044  0.0699
 1962TIP3    H1 5850   1.852   2.789   1.908 -0.2711 -0.2051  1.3456
 1962TIP3    H2 5851   1.971   2.855   1.976  0.5910  0.0848 -0.3830
 1963TIP3   OH2 5852   0.653   2.550   0.276  0.5510  0.3628  0.5302
 1963TIP3    H1 5853   0.667   2.530   0.184  2.5627 -1.0050  1.0461
 1963TIP3    H2 5854   0.704   2.629   0.291 -1.7793  2.0613  0.0024
 1964TIP3   OH2 5855   3.533   6.480   4.270 -0.1590 -0.3441 -0.1057
 1964TIP3    H1 5856   3.557   6.480   4.363  0.4931 -1.4470 -0.2539
 1964TIP3    H2 5857   3.453   6.531   4.266 -0.1993 -0.2788  1.0676
 1965TIP3   OH2 5858   2.141   0.832   1.186 -0.1727 -0.1892 -0.3166
 1965TIP3    H1 5859   2.196   0.901   1.223 -3.2377  2.5424 -0.4032
 1965TIP3    H2 5860   2.135   0.853   1.093 -2.2982  0.4142 -0.1018
 1966TIP3   OH2 5861   1.997   0.697   2.189  0.8054  0.6448 -0.1043
 1966TIP3    H1 5862   2.073   0.672   2.137 -0.1694  0.7493 -1.6274
 1966TIP3    H2 5863   1.923   0.658   2.144 -0.1298  1.1895  0.9173
 1967TIP3   OH2 5864   5.710   3.241   5.292 -0.1705  0.6507  0.1473
 1967TIP3    H1 5865   5.720   3.214   5.384 -0.0381  1.6392  0.4328
 1967TIP3    H2 5866   5.794   3.219   5.251 -0.2587  0.1324  0.2380
 1968TIP3   OH2 5867   2.759   0.911   3.221 -0.4211 -0.2194  0.2951
 1968TIP3    H1 5868   2.774   0.871   3.306  0.8278 -0.8721 -0.2112
 1968TIP3    H2 5869   2.693   0.979   3.238  0.1775  0.0093  1.8710
 1969TIP3   OH2 5870   4.601   5.250   5.056  0.0151  0.2449 -0.4172
 1969TIP3    H1 5871   4.621   5.343   5.065 -0.5681  0.2231  1.3588
 1969TIP3    H2 5872   4.506   5.246   5.048  0.0665 -0.1940 -0.9385
 1970TIP3   OH2 5873   0.762   2.219   5.277 -0.3039  0.6821 -0.6388
 1970TIP3    H1 5874   0.804   2.159   5.339  0.3660  2.3464  0.5985
 1970TIP3    H2 5875   0.828   2.234   5.210  0.0373  1.0651 -0.2262
 1971TIP3   OH2 5876   0.803   0.579   3.880  0.1540  0.9725 -0.3634
 1971TIP3    H1 5877   0.885   0.627   3.891 -0.9195  2.4452  1.9849
 1971TIP3    H2 5878   0.742   0.623   3.938 -2.0608 -0.7066 -1.2895
 1972TIP3   OH2 5879   1.004   0.269   4.172 -0.0654 -0.9390 -0.3101
 1972TIP3    H1 5880   1.099   0.259   4.176 -0.0804 -0.7780  0.7671
 1972TIP3    H2 5881   0.970   0.202   4.231 -0.5899 -0.5938 -0.2101
 1973TIP3   OH2 5882   2.761   6.234   1.015 -0.0994  0.2628 -0.1792
 1973TIP3    H1 5883   2.748   6.287   0.937 -0.4867  1.2049  0.5043
 1973TIP3    H2 5884   2.733   6.147   0.990  0.2678  0.4332 -1.2436
 1974TIP3   OH2 5885   4.351   0.092   1.319 -0.5136 -0.1866 -0.0918
 1974TIP3    H1 5886   4.424   0.057   1.371 -0.9773  0.8903  1.3329
 1974TIP3    H2 5887   4.391   0.159   1.264  0.0020 -1.4175 -1.2619
 1975TIP3   OH2 5888   0.085   4.284   2.547 -0.3964 -0.3248 -0.0430
 1975TIP3    H1 5889   0.015   4.311   2.487  1.3895  1.1554 -1.5709
 1975TIP3    H2 5890   0.050   4.303   2.634 -1.9258  0.2840 -0.7456
 1976TIP3   OH2 5891   2.679   3.616   0.089  0.2011 -0.2767 -0.1369
 1976TIP3    H1 5892   2.689   3.679   0.161  1.1211 -0.5825  0.0203
 1976TIP3    H2 5893   2.768   3.603   0.056 -0.1323 -0.6125 -0.9277
 1977TIP3   OH2 5894   3.178   1.190   4.570  0.0306 -0.1633 -0.1238
 1977TIP3    H1 5895   3.258   1.185   4.517 -1.6141 -0.6020 -2.7726
 1977TIP3    H2 5896   3.182   1.111   4.625  2.2742  0.8140  1.2745
 1978TIP3   OH2 5897   0.727   6.607   2.355 -0.6015  0.1775  0.5369
 1978TIP3    H1 5898   0.664   6.679   2.355  0.8125  1.4618 -0.2941
 1978TIP3    H2 5899   0.812   6.650   2.348  0.1829 -1.6586 -3.2099
 1979TIP3   OH2 5900   1.742   3.610   0.773  0.1668  0.1006  0.0735
 1979TIP3    H1 5901   1.837   3.610   0.778  0.1910 -2.3066  1.2327
 1979TIP3    H2 5902   1.714   3.667   0.844  0.7752 -0.9221  1.1669
 1980TIP3   OH2 5903   3.317   4.535   3.313  0.4454  0.1864 -0.0263
 1980TIP3    H1 5904   3.366   4.497   3.387  0.7160  1.6190  0.5766
 1980TIP3    H2 5905   3.363   4.618   3.295 -1.9836  1.8359  0.8592
 1981TIP3   OH2 5906   0.202   6.754   0.079 -1.0087  0.0019 -0.4194
 1981TIP3    H1 5907   0.160   6.829   0.120 -1.1952 -0.6576  0.6254
 1981TIP3    H2 5908   0.247   6.709   0.151 -0.2849 -0.4866 -1.1547
 1982TIP3   OH2 5909   5.373   4.766   3.005 -0.2419  0.1160 -0.0905
 1982TIP3    H1 5910   5.349   4.709   2.932 -0.4451  2.2398 -1.8042
 1982TIP3    H2 5911   5.447   4.723   3.047  0.4758 -0.7530 -2.1418
 1983TIP3   OH2 5912   4.908   1.161   4.239 -0.2544  0.3630 -0.2287
 1983TIP3    H1 5913   4.882   1.253   4.229  1.2045  1.0513  1.6551
 1983TIP3    H2 5914   4.826   1.114   4.252 -0.8769  1.9070  2.0470
 1984TIP3   OH2 5915   5.129   4.595   1.413  0.4105 -0.0911 -0.1912
 1984TIP3    H1 5916   5.205   4.555   1.457  0.7397 -0.4605 -1.0807
 1984TIP3    H2 5917   5.053   4.552   1.452  0.6498  0.2282  0.6557
 1985TIP3   OH2 5918   6.499   4.468   3.636  0.1165  0.2896 -0.5537
 1985TIP3    H1 5919   6.434   4.399   3.652 -0.5165  1.2206  1.0909
 1985TIP3    H2 5920   6.466   4.544   3.684  2.5520  0.7237  0.5783
 1986TIP3   OH2 5921   0.460   4.292   4.224  0.2113 -0.0559  0.0547
 1986TIP3    H1 5922   0.418   4.277   4.309  2.1932  1.2729  1.3521
 1986TIP3    H2 5923   0.393   4.270   4.160 -1.1866 -1.6411  1.9404
 1987TIP3   OH2 5924   2.603   1.329   3.876  0.8462 -0.0106  0.0337
 1987TIP3    H1 5925   2.517   1.293   3.898  0.0134  0.8726 -1.5918
 1987TIP3    H2 5926   2.591   1.424   3.882  1.7758  0.1138  0.0077
 1988TIP3   OH2 5927   5.060   2.121   1.299  0.2737  0.1614 -0.3383
 1988TIP3    H1 5928   4.992   2.056   1.283 -0.6198  0.9555  0.1338
 1988TIP3    H2 5929   5.117   2.081   1.365 -0.5231  0.0264  0.2856
 1989TIP3   OH2 5930   0.269   6.300   5.188 -0.6907  0.4051 -0.2210
 1989TIP3    H1 5931   0.318   6.228   5.148  1.5025  1.9775 -0.5273
 1989TIP3    H2 5932   0.239   6.265   5.272 -0.6118 -1.1714 -0.8034
 1990TIP3   OH2 5933   0.028   4.172   2.291 -0.1295 -0.0675 -0.1759
 1990TIP3    H1 5934   0.039   4.194   2.384  0.5769  0.9912 -0.4897
 1990TIP3    H2 5935   0.112   4.197   2.251  0.0624 -1.7273 -0.8849
 1991TIP3   OH2 5936   7.115   1.048   4.303  0.0661 -0.0531  0.3516
 1991TIP3    H1 5937   7.160   1.006   4.376 -0.8215  1.3700  1.7881
 1991TIP3    H2 5938   7.041   0.990   4.284 -0.5600  0.2884  1.6181
 1992TIP3   OH2 5939   1.244   0.275   4.514 -0.0548 -0.2675 -0.2856
 1992TIP3    H1 5940   1.164   0.238   4.551 -0.0931 -0.4575 -0.5489
 1992TIP3    H2 5941   1.248   0.239   4.425 -1.5987  2.5677 -1.6320
 1993TIP3   OH2 5942   5.368   4.589   3.667 -0.1479  0.1546  0.4597
 1993TIP3    H1 5943   5.322   4.657   3.616 -1.9542 -1.4465 -0.1662
 1993TIP3    H2 5944   5.422   4.543   3.603 -0.3308 -0.1408  0.5153
 1994TIP3   OH2 5945   2.029   4.973   1.528  0.3032 -0.1119 -0.4428
 1994TIP3    H1 5946   1.946   5.005   1.564  0.7475 -1.2826  1.7353
 1994TIP3    H2 5947   2.093   5.039   1.555  0.1051  1.0395 -2.5206
 1995TIP3   OH2 5948   1.071   6.287   0.439  0.5836 -0.0997 -0.5767
 1995TIP3    H1 5949   1.003   6.246   0.493 -0.2660  0.5401 -1.1504
 1995TIP3    H2 5950   1.039   6.375   0.423  1.9768  0.5118 -0.1265
 1996TIP3   OH2 5951   3.744   6.287   0.107 -0.5950  0.1248 -0.0423
 1996TIP3    H1 5952   3.721   6.280   0.200 -0.7335  2.5446  0.1631
 1996TIP3    H2 5953   3.720   6.376   0.083  0.7596  0.0050 -2.0545
 1997TIP3   OH2 5954   6.213   3.865   3.764  0.0096  0.4930 -0.1766
 1997TIP3    H1 5955   6.153   3.795   3.739 -0.3504  0.4007  0.8889
 1997TIP3    H2 5956   6.283   3.822   3.812 -0.0401  0.8126  0.1935
 1998TIP3   OH2 5957   1.279   4.685   2.615 -0.6102 -0.4821 -0.1289
 1998TIP3    H1 5958   1.331   4.639   2.550  0.4160 -0.7120  0.8178
 1998TIP3    H2 5959   1.213   4.622   2.643 -0.9463 -0.4374 -0.8164
 1999TIP3   OH2 5960   3.677   3.501   0.886 -0.1000 -0.0627  0.6069
 1999TIP3    H1 5961   3.618   3.467   0.954 -1.8626  2.0441  0.2549
 1999TIP3    H2 5962   3.643   3.463   0.805  1.2158 -1.5703  0.7336
 2000TIP3   OH2 5963   6.129   1.537   0.217  0.2360  0.4919 -0.3479
 2000TIP3    H1 5964   6.151   1.625   0.248  1.0026  0.0831  0.3484
 2000TIP3    H2 5965   6.159   1.479   0.288  0.5575 -0.3844 -1.1703
 2001TIP3   OH2 5966   5.559   0.738   0.177  0.3265 -0.3033  0.1238
 2001TIP3    H1 5967   5.554   0.747   0.081  0.5983  0.5337  0.1720
 2001TIP3    H2 5968   5.623   0.805   0.203 -0.9882  0.6523  1.0458
 2002TIP3   OH2 5969   2.948   0.088   3.143 -0.0025 -0.4036  0.4811
 2002TIP3    H1 5970   2.904   0.151   3.200  1.2397  0.5878  0.3958
 2002TIP3    H2 5971   2.884   0.018   3.130 -1.5628  0.9987  0.2995
 2003TIP3   OH2 5972   3.616   3.455   1.421  0.3868 -0.5743  0.2618
 2003TIP3    H1 5973   3.694   3.488   1.465  0.3023 -0.0350  0.0152
 2003TIP3    H2 5974   3.548   3.519   1.442  0.4602 -0.0270 -1.0505
 2004TIP3   OH2 5975   5.603   3.564   0.962 -0.3591  0.1394 -0.4951
 2004TIP3    H1 5976   5.553   3.499   1.010 -1.1703 -0.4736 -2.0794
 2004TIP3    H2 5977   5.653   3.514   0.898  2.1253  0.7617  0.8247
 2005TIP3   OH2 5978   3.218   3.910   5.632 -0.5116  0.2857 -0.0886
 2005TIP3    H1 5979   3.228   3.818   5.657 -2.2878 -1.0184 -3.4778
 2005TIP3    H2 5980   3.294   3.927   5.575 -1.5843 -0.0353 -1.6733
 2006TIP3   OH2 5981   4.829   1.651   2.820  0.3995 -0.6701 -0.2129
 2006TIP3    H1 5982   4.753   1.603   2.854  2.6854 -2.2720  3.1374
 2006TIP3    H2 5983   4.816   1.740   2.852 -0.6171 -0.6074 -0.7386
 2007TIP3   OH2 5984   0.614   3.219   2.485 -0.0652 -0.0555 -0.3822
 2007TIP3    H1 5985   0.610   3.302   2.533 -1.2997 -0.3469  0.0534
 2007TIP3    H2 5986   0.551   3.229   2.414 -0.4081 -0.7189 -0.1752
 2008TIP3   OH2 5987   6.134   4.168   2.677  0.3232  0.4849 -0.1427
 2008TIP3    H1 5988   6.197   4.130   2.738  0.5870  0.5558 -0.3710
 2008TIP3    H2 5989   6.152   4.262   2.679 -0.6569  0.6668  0.8005
 2009TIP3   OH2 5990   6.282   0.564   0.099  0.5898  0.2286  0.1989
 2009TIP3    H1 5991   6.288   0.510   0.020 -0.9615  0.4447 -0.1148
 2009TIP3    H2 5992   6.193   0.600   0.096  0.1054 -0.5710  2.5634
 2010TIP3   OH2 5993   4.960   5.061   1.214 -0.7364  0.1374 -0.2651
 2010TIP3    H1 5994   4.889   4.998   1.230 -0.9893  0.7122  0.9858
 2010TIP3    H2 5995   5.034   5.027   1.265 -0.7431  0.6103  0.0663
 2011TIP3   OH2 5996   3.245   3.076   1.001 -0.2327 -0.0778 -0.3954
 2011TIP3    H1 5997   3.282   3.001   1.048  1.2584  1.3989  0.8883
 2011TIP3    H2 5998   3.264   3.057   0.909  2.6319 -0.0344  0.1060
 2012TIP3   OH2 5999   4.202   6.296   1.802 -0.7179  0.5259 -0.8499
 2012TIP3    H1 6000   4.219   6.210   1.764  0.7445 -0.0548  0.9778
 2012TIP3    H2 6001   4.233   6.358   1.736 -1.8191 -0.2922 -2.2046
 2013TIP3   OH2 6002   4.366   2.381   0.280 -0.4132 -0.0330  0.0378
 2013TIP3    H1 6003   4.417   2.312   0.237  0.0148 -0.3358  1.0058
 2013TIP3    H2 6004   4.386   2.371   0.373  0.9099  2.4263  0.0915
 2014TIP3   OH2 6005   6.746   5.655   3.416  0.6763 -0.6868  0.6735
 2014TIP3    H1 6006   6.781   5.579   3.370  2.8094  0.4659  0.2658
 2014TIP3    H2 6007   6.818   5.687   3.470 -0.4344  0.5243  1.5161
 2015TIP3   OH2 6008   0.224   5.363   1.974  0.0753 -0.1711 -0.2200
 2015TIP3    H1 6009   0.280   5.287   1.961 -0.2644 -0.1897 -1.7776
 2015TIP3    H2 6010   0.259   5.429   1.913 -1.9158 -0.3839 -1.6727
 2016TIP3   OH2 6011   0.624   2.172   3.062 -0.0475 -0.0468 -0.2840
 2016TIP3    H1 6012   0.699   2.186   3.120 -1.5878  2.0659  1.3625
 2016TIP3    H2 6013   0.643   2.225   2.985  0.0274  0.7351  0.2648
 2017TIP3   OH2 6014   2.815   2.324   4.626  0.6423 -0.0094  0.2265
 2017TIP3    H1 6015   2.830   2.402   4.679  0.4028  0.8330 -0.9139
 2017TIP3    H2 6016   2.744   2.348   4.567 -0.4736 -1.5996  0.8528
 2018TIP3   OH2 6017   4.867   2.955   0.980 -0.1501 -0.2300 -1.1896
 2018TIP3    H1 6018   4.941   2.962   1.040 -2.2687  0.2219  1.5710
 2018TIP3    H2 6019   4.839   3.046   0.967 -1.2887 -0.4975 -0.7086
 2019TIP3   OH2 6020   3.160   1.281   3.618 -0.2645  0.0444  0.2807
 2019TIP3    H1 6021   3.159   1.238   3.532  0.6153  0.0718  0.2435
 2019TIP3    H2 6022   3.100   1.229   3.671 -0.6014 -0.1465 -0.2722
 2020TIP3   OH2 6023   0.175   0.916   3.876 -0.0506 -0.2199 -0.2326
 2020TIP3    H1 6024   0.231   0.861   3.821 -0.1714 -1.8071  1.1691
 2020TIP3    H2 6025   0.089   0.874   3.873 -0.6713  1.0346 -0.7150
 2021TIP3   OH2 6026   7.140   3.468   2.311 -0.5831  0.6951 -0.1156
 2021TIP3    H1 6027   7.155   3.561   2.326 -1.1987  0.8172 -0.2312
 2021TIP3    H2 6028   7.046   3.462   2.292 -0.3363  0.2132 -1.2791
 2022TIP3   OH2 6029   1.728   2.095   0.843  0.4493  0.2034 -0.0090
 2022TIP3    H1 6030   1.787   2.023   0.821  0.3087 -0.5081  1.8047
 2022TIP3    H2 6031   1.787   2.167   0.866  0.6171 -0.2653  1.0495
 2023TIP3   OH2 6032   4.625   6.187   2.372 -0.4349  0.0991  0.9209
 2023TIP3    H1 6033   4.718   6.207   2.373 -0.3886 -0.1273  1.7867
 2023TIP3    H2 6034   4.618   6.108   2.318  0.4140 -2.2869  4.0136
 2024TIP3   OH2 6035   0.862   3.791   0.499 -0.1985  0.4474 -1.0177
 2024TIP3    H1 6036   0.915   3.715   0.475  1.2690  1.7019 -1.9685
 2024TIP3    H2 6037   0.801   3.758   0.565  2.2371 -0.9488  0.6970
 2025TIP3   OH2 6038   2.556   2.019   5.367 -0.4843  0.3980 -0.2516
 2025TIP3    H1 6039   2.628   2.032   5.429  0.2627 -0.2030 -0.9651
 2025TIP3    H2 6040   2.477   2.033   5.419  0.1408  1.5085  0.4466
 2026TIP3   OH2 6041   4.072   5.390   1.540 -0.5983  0.0488 -0.2504
 2026TIP3    H1 6042   4.055   5.307   1.585 -0.9626  0.7577  0.9656
 2026TIP3    H2 6043   4.019   5.386   1.461  0.3611 -1.4037 -0.8746
 2027TIP3   OH2 6044   4.939   5.362   5.852  0.5939  0.3711  0.0177
 2027TIP3    H1 6045   4.859   5.364   5.798  1.5334 -1.8855 -1.6468
 2027TIP3    H2 6046   5.002   5.415   5.803  0.8694 -0.0458 -0.0875
 2028TIP3   OH2 6047   4.861   3.059   3.088  0.1113 -0.2495  0.0744
 2028TIP3    H1 6048   4.902   3.041   3.004 -0.3914  0.5684 -0.3642
 2028TIP3    H2 6049   4.899   3.142   3.117  0.9835 -0.9956  1.1265
 2029TIP3   OH2 6050   0.609   3.000   1.631  0.4371 -0.4874  0.6354
 2029TIP3    H1 6051   0.664   3.062   1.680 -0.7004  0.2604  1.0095
 2029TIP3    H2 6052   0.555   2.959   1.698  0.5275 -1.2137  0.2715
 2030TIP3   OH2 6053   4.837   5.586   4.487  0.3629  0.1859 -0.1278
 2030TIP3    H1 6054   4.870   5.645   4.555 -0.2190  0.4476 -0.0638
 2030TIP3    H2 6055   4.850   5.499   4.523  0.6835  0.2975  0.0327
 2031TIP3   OH2 6056   4.565   5.496   5.111  0.3402  0.3279  0.0629
 2031TIP3    H1 6057   4.485   5.505   5.060  1.0302  0.8169 -0.9776
 2031TIP3    H2 6058   4.551   5.549   5.189  0.1109  1.4120 -0.6948
 2032TIP3   OH2 6059   3.354   1.315   3.069  0.1840 -0.2745  0.1043
 2032TIP3    H1 6060   3.421   1.249   3.085 -0.1311 -0.8596 -0.8425
 2032TIP3    H2 6061   3.401   1.389   3.031  0.3332 -0.6178 -0.3998
 2033TIP3   OH2 6062   0.627   6.657   4.326  0.1625  0.2959  0.3046
 2033TIP3    H1 6063   0.576   6.588   4.282 -0.1781  0.5697  0.2654
 2033TIP3    H2 6064   0.591   6.658   4.415  1.3483 -0.7710  0.8367
 2034TIP3   OH2 6065   6.854   6.560   4.522 -0.3738 -0.1099  0.1764
 2034TIP3    H1 6066   6.938   6.603   4.507 -0.5043  0.9170  2.1035
 2034TIP3    H2 6067   6.800   6.625   4.567 -1.8754 -1.0621 -0.1565
 2035TIP3   OH2 6068   5.125   4.727   5.345  0.2981 -0.6277  0.3142
 2035TIP3    H1 6069   5.214   4.740   5.377  0.5936  1.1104 -1.0566
 2035TIP3    H2 6070   5.071   4.781   5.403  0.6939  1.6058 -1.2861
 2036TIP3   OH2 6071   3.994   2.343   1.706 -0.0486 -0.5082  0.5153
 2036TIP3    H1 6072   4.052   2.322   1.780  1.4358  1.9888  0.1494
 2036TIP3    H2 6073   3.991   2.438   1.704 -2.3933 -0.5505 -0.9238
 2037TIP3   OH2 6074   2.767   1.261   3.684  0.3374 -0.2690  0.3634
 2037TIP3    H1 6075   2.825   1.334   3.703 -0.8084  0.7839 -0.0943
 2037TIP3    H2 6076   2.685   1.282   3.729 -0.4479 -0.6053 -0.8399
 2038TIP3   OH2 6077   0.468   4.425   4.809  0.5473  0.3323 -0.0762
 2038TIP3    H1 6078   0.383   4.386   4.792  0.4759 -0.3289  1.5891
 2038TIP3    H2 6079   0.459   4.516   4.781 -0.3517  0.0017 -0.8987
 2039TIP3   OH2 6080   3.445   1.259   3.477  0.9129  0.9860  0.4122
 2039TIP3    H1 6081   3.410   1.213   3.553 -0.5592  0.6190 -0.4372
 2039TIP3    H2 6082   3.534   1.282   3.502  1.1591 -0.8976  1.4770
 2040TIP3   OH2 6083   5.096   5.597   4.981 -0.3160  0.0818  0.8009
 2040TIP3    H1 6084   5.126   5.528   4.923  0.4769  1.7682 -0.8922
 2040TIP3    H2 6085   5.000   5.597   4.970 -0.1067  1.2441 -1.6421
 2041TIP3   OH2 6086   3.879   0.045   4.844  0.2432 -0.0288  0.3152
 2041TIP3    H1 6087   3.873   0.078   4.754  0.3544 -3.2696 -1.0017
 2041TIP3    H2 6088   3.798  -0.004   4.857  0.8188 -0.7135  1.4884
 2042TIP3   OH2 6089   1.415   2.707   1.937 -0.1097  0.4032 -0.2542
 2042TIP3    H1 6090   1.356   2.779   1.961 -0.6353 -0.2064  0.3381
 2042TIP3    H2 6091   1.368   2.628   1.964  0.8659 -0.1130 -0.0299
 2043TIP3   OH2 6092   6.505   4.840   3.684  0.8059  0.5905  0.7228
 2043TIP3    H1 6093   6.543   4.805   3.764 -0.9492  0.6387  1.6376
 2043TIP3    H2 6094   6.504   4.935   3.698 -0.9053  0.5224  1.3845
 2044TIP3   OH2 6095   1.687   2.419   3.132 -0.1499  0.0871  0.4038
 2044TIP3    H1 6096   1.645   2.447   3.213 -0.1208  0.4271  0.3021
 2044TIP3    H2 6097   1.651   2.478   3.065  0.3045  0.2182  0.2743
 2045TIP3   OH2 6098   2.610   0.231   0.713  0.6192 -0.0331 -0.4655
 2045TIP3    H1 6099   2.662   0.203   0.789 -0.7021 -2.1694 -0.2496
 2045TIP3    H2 6100   2.551   0.298   0.748  1.2610  0.3286 -0.0550
 2046TIP3   OH2 6101   5.978   1.660   4.419 -0.7918 -0.0858 -0.5586
 2046TIP3    H1 6102   5.952   1.628   4.332  1.1572  0.3259 -1.3646
 2046TIP3    H2 6103   6.057   1.713   4.402 -1.1136  1.0936  1.3153
 2047TIP3   OH2 6104   4.979   1.463   3.721  0.5471 -0.8130  0.2370
 2047TIP3    H1 6105   5.007   1.396   3.783 -0.5034  0.7136  2.4744
 2047TIP3    H2 6106   4.888   1.481   3.743  0.1947 -0.0368 -1.6234
 2048TIP3   OH2 6107   5.452   1.605   3.896  0.1563  0.8552  0.5579
 2048TIP3    H1 6108   5.432   1.579   3.986 -0.5991  0.3285  0.2469
 2048TIP3    H2 6109   5.465   1.523   3.849  1.1096  1.1342  0.2918
 2049TIP3   OH2 6110   2.127   3.144   0.581  0.1420  0.0756 -0.6304
 2049TIP3    H1 6111   2.167   3.078   0.638  2.1178  1.4100 -0.3802
 2049TIP3    H2 6112   2.041   3.107   0.558  0.6291 -1.9499  0.5657
 2050TIP3   OH2 6113   1.733   2.011   1.650 -0.3512  0.8407  0.4258
 2050TIP3    H1 6114   1.764   1.925   1.620 -0.9876  0.5765  0.5113
 2050TIP3    H2 6115   1.649   2.023   1.606 -2.3897 -0.5143  3.6102
 2051TIP3   OH2 6116   0.267   4.390   5.342  0.0255 -0.2756 -0.4654
 2051TIP3    H1 6117   0.178   4.425   5.341 -1.2404 -3.1869 -0.1552
 2051TIP3    H2 6118   0.312   4.440   5.410 -0.7931  2.3862 -1.7526
 2052TIP3   OH2 6119   3.364   1.295   4.958  0.1528  0.0710  0.7927
 2052TIP3    H1 6120   3.273   1.269   4.947 -0.4947  2.5261 -0.5711
 2052TIP3    H2 6121   3.406   1.221   5.001 -2.1545 -1.7051  0.1635
 2053TIP3   OH2 6122   5.233   3.618   1.487 -0.5320  0.2872  1.1316
 2053TIP3    H1 6123   5.327   3.630   1.474 -0.6239  0.7535  0.8874
 2053TIP3    H2 6124   5.209   3.548   1.426 -0.5313  0.8746  0.4429
 2054TIP3   OH2 6125   3.468   6.610   2.093  0.1741  0.0870  0.2005
 2054TIP3    H1 6126   3.475   6.700   2.062 -1.5110  0.4244  0.6594
 2054TIP3    H2 6127   3.376   6.601   2.117  0.5618 -1.4077  1.2475
 2055TIP3   OH2 6128   5.521   6.483   2.648  0.0502  0.3426  0.3132
 2055TIP3    H1 6129   5.492   6.420   2.714 -0.2603 -1.1780 -1.2118
 2055TIP3    H2 6130   5.493   6.568   2.682 -0.1884 -0.4000  2.0693
 2056TIP3   OH2 6131   2.341   0.593   1.112 -0.4114 -0.2341  0.4107
 2056TIP3    H1 6132   2.343   0.652   1.187 -0.4486  0.7339 -0.3217
 2056TIP3    H2 6133   2.337   0.651   1.036 -0.9630 -1.1916 -0.3232
 2057TIP3   OH2 6134   1.856   0.053   2.641  0.1191  0.4922  0.5209
 2057TIP3    H1 6135   1.914  -0.009   2.686 -1.6153 -1.5470  0.0994
 2057TIP3    H2 6136   1.902   0.075   2.560 -0.2199 -2.2116 -0.4986
 2058TIP3   OH2 6137   5.094   3.095   2.082 -0.6965  0.1951 -0.0793
 2058TIP3    H1 6138   5.134   3.063   2.001 -1.3698  1.0772 -0.7902
 2058TIP3    H2 6139   5.144   3.053   2.152  1.2115  0.8935 -0.9214
 2059TIP3   OH2 6140   2.468   4.765   0.439  0.2382  0.0920 -0.0310
 2059TIP3    H1 6141   2.457   4.850   0.483 -0.3694  1.3455 -2.4547
 2059TIP3    H2 6142   2.560   4.762   0.416  0.4559 -0.3532  0.8527
 2060TIP3   OH2 6143   6.783   1.761   0.823 -0.1025  0.2175 -0.7103
 2060TIP3    H1 6144   6.708   1.800   0.868  0.2080  0.0725 -0.0493
 2060TIP3    H2 6145   6.745   1.697   0.763 -0.5147  0.2927 -0.5303
 2061TIP3   OH2 6146   1.272   4.488   1.048 -0.5388  0.3231  0.2352
 2061TIP3    H1 6147   1.308   4.419   0.991 -1.1866  0.4968 -0.4066
 2061TIP3    H2 6148   1.179   4.465   1.057 -0.6927  0.9501  0.2600
 2062TIP3   OH2 6149   5.986   5.082   5.164 -0.0430 -0.0773  0.0672
 2062TIP3    H1 6150   6.082   5.076   5.156 -0.0912 -0.3873 -0.3312
 2062TIP3    H2 6151   5.954   5.005   5.118 -0.5594  1.0882 -1.6633
 2063TIP3   OH2 6152   0.392   2.282   0.221  0.0672  0.2176  0.4083
 2063TIP3    H1 6153   0.370   2.326   0.138 -0.9101  0.2405  0.6631
 2063TIP3    H2 6154   0.450   2.210   0.195 -0.2848  0.1777 -0.3079
 2064TIP3   OH2 6155   6.365   4.983   0.312 -0.3408 -0.2124  0.4834
 2064TIP3    H1 6156   6.283   4.991   0.360 -0.2817 -0.6191  0.6575
 2064TIP3    H2 6157   6.396   5.074   0.302 -0.0772 -0.1422  1.7190
 2065TIP3   OH2 6158   0.105   3.259   5.677 -0.7221 -0.0330  0.1695
 2065TIP3    H1 6159   0.165   3.184   5.677 -1.8664 -0.9861 -0.3243
 2065TIP3    H2 6160   0.044   3.241   5.748 -0.1119  1.2219  1.0493
 2066TIP3   OH2 6161   4.685   5.347   0.105 -0.3043 -0.1125 -0.1644
 2066TIP3    H1 6162   4.605   5.308   0.071  0.0163 -1.7312  0.8006
 2066TIP3    H2 6163   4.669   5.441   0.106 -1.4312 -0.2576 -1.8476
 2067TIP3   OH2 6164   2.426   3.786   4.486  0.3127 -0.5174 -0.0983
 2067TIP3    H1 6165   2.495   3.810   4.424 -0.0662 -1.5624 -0.9519
 2067TIP3    H2 6166   2.363   3.858   4.481  1.7210  0.9061  1.3648
 2068TIP3   OH2 6167   0.884   6.502   0.574 -0.4987  0.1296  0.0658
 2068TIP3    H1 6168   0.883   6.471   0.484 -0.8156 -1.0416  0.4639
 2068TIP3    H2 6169   0.865   6.425   0.627 -1.2284  0.9826  1.0936
 2069TIP3   OH2 6170   6.976   5.345   0.855  0.0586  0.3576 -0.2878
 2069TIP3    H1 6171   6.951   5.263   0.812  1.4584  0.0600 -0.5683
 2069TIP3    H2 6172   6.966   5.326   0.949 -0.5771  0.2048 -0.3759
 2070TIP3   OH2 6173   1.109   2.026   0.410 -0.1590 -0.4600  0.2820
 2070TIP3    H1 6174   1.064   1.966   0.470 -1.1278  0.5168  0.5883
 2070TIP3    H2 6175   1.075   2.004   0.324 -0.1931 -0.6225  0.3360
 2071TIP3   OH2 6176   2.288   4.439   2.479  0.1631 -0.1863  0.1579
 2071TIP3    H1 6177   2.302   4.345   2.488  0.1777 -0.0887  1.2122
 2071TIP3    H2 6178   2.373   4.478   2.498  0.0497  0.0672  0.1549
 2072TIP3   OH2 6179   0.375   1.949   0.229 -0.5691 -0.8899  0.0918
 2072TIP3    H1 6180   0.381   1.957   0.324 -0.5909 -0.2482  0.0420
 2072TIP3    H2 6181   0.293   1.994   0.206  0.6305  1.1415 -0.4689
 2073TIP3   OH2 6182   2.259   6.023   3.841  0.0982 -0.1205  0.8164
 2073TIP3    H1 6183   2.167   6.003   3.856  0.2455  0.5745  2.9056
 2073TIP3    H2 6184   2.270   6.113   3.870  1.6102 -0.4710  1.4289
 2074TIP3   OH2 6185   1.895   3.294   1.545  0.5377  0.3651  0.2604
 2074TIP3    H1 6186   1.806   3.298   1.580  0.4965 -1.0721  0.3416
 2074TIP3    H2 6187   1.924   3.386   1.544 -0.9929  0.8787  0.0622
 2075TIP3   OH2 6188   2.860   5.858   3.169  0.2192 -0.0791 -0.0615
 2075TIP3    H1 6189   2.894   5.928   3.113 -1.3731 -0.1779 -1.2001
 2075TIP3    H2 6190   2.936   5.828   3.218  1.3295  1.1293 -0.9749
 2076TIP3   OH2 6191   6.572   1.064   1.953 -0.3843  0.2105 -0.1032
 2076TIP3    H1 6192   6.498   1.023   1.908  0.4139 -1.8478  0.3275
 2076TIP3    H2 6193   6.639   1.074   1.886  0.1042 -1.0502  0.1600
 2077TIP3   OH2 6194   0.435   0.974   5.656  0.6962 -0.1638  0.3304
 2077TIP3    H1 6195   0.472   0.892   5.689 -0.4913 -0.8184  0.0797
 2077TIP3    H2 6196   0.510   1.033   5.649  1.9582 -1.8545 -1.4508
 2078TIP3   OH2 6197   6.654   0.018   3.266 -0.2553  0.3269 -0.7801
 2078TIP3    H1 6198   6.687   0.107   3.257 -1.4866  0.9030  0.0460
 2078TIP3    H2 6199   6.723  -0.038   3.231  2.3901  1.3357  2.3186
 2079TIP3   OH2 6200   4.007   2.656   2.744  0.0076  0.0993 -0.9449
 2079TIP3    H1 6201   3.978   2.729   2.798  0.7753 -0.0729 -0.2938
 2079TIP3    H2 6202   3.931   2.599   2.737  0.3342 -0.6756  1.2903
 2080TIP3   OH2 6203   4.521   2.357   4.479  0.1507 -0.2075  0.5016
 2080TIP3    H1 6204   4.563   2.442   4.470 -0.1605  0.2122  2.5396
 2080TIP3    H2 6205   4.577   2.308   4.540  0.8077 -1.8341 -1.3150
 2081TIP3   OH2 6206   6.997   2.255   1.637  0.3609 -0.0230  0.5385
 2081TIP3    H1 6207   7.009   2.166   1.605 -1.7866 -0.5113  0.9771
 2081TIP3    H2 6208   7.021   2.250   1.730  1.0038  0.0632  0.3842
 2082TIP3   OH2 6209   2.980   1.455   5.034  0.1221 -0.4380  0.2569
 2082TIP3    H1 6210   3.041   1.473   4.963 -0.5194 -0.1833 -0.2391
 2082TIP3    H2 6211   2.915   1.395   4.996 -0.4910  0.0701  0.4782
 2083TIP3   OH2 6212   3.649   1.907   2.345 -0.0906  0.4306 -0.3061
 2083TIP3    H1 6213   3.697   1.918   2.262  0.0016 -1.6808 -0.5860
 2083TIP3    H2 6214   3.562   1.942   2.327 -1.2057 -2.9362 -2.5195
 2084TIP3   OH2 6215   1.641   4.194   1.984  0.0997 -0.4871  0.5176
 2084TIP3    H1 6216   1.644   4.108   2.027  0.6452  0.1529  1.8087
 2084TIP3    H2 6217   1.729   4.207   1.949  0.5373  0.2676  1.8364
 2085TIP3   OH2 6218   3.088   5.771   2.443 -0.1530 -0.3023  0.6541
 2085TIP3    H1 6219   3.183   5.767   2.439 -0.0534  0.7948  1.3061
 2085TIP3    H2 6220   3.058   5.686   2.412  0.8884  0.7092 -3.6698
 2086TIP3   OH2 6221   6.190   1.767   1.813 -0.0624  0.1165 -0.0598
 2086TIP3    H1 6222   6.262   1.713   1.847 -1.2342 -1.4679 -0.0038
 2086TIP3    H2 6223   6.234   1.835   1.762  1.4411 -1.5048 -1.0255
 2087TIP3   OH2 6224   5.991   4.238   2.912  0.1364 -0.2193 -0.3729
 2087TIP3    H1 6225   5.979   4.330   2.935 -0.9409 -0.1054 -1.3083
 2087TIP3    H2 6226   6.029   4.240   2.824 -3.2760 -0.5889 -2.0366
 2088TIP3   OH2 6227   2.537   0.678   3.706  0.1161  0.1133  0.6748
 2088TIP3    H1 6228   2.630   0.666   3.689 -0.2960 -0.6126 -1.3654
 2088TIP3    H2 6229   2.518   0.618   3.778  1.0274 -0.5114  0.4174
 2089TIP3   OH2 6230   6.359   0.580   1.695 -0.2212  0.0315  0.3374
 2089TIP3    H1 6231   6.410   0.516   1.644  1.0976  1.3007  0.0044
 2089TIP3    H2 6232   6.370   0.662   1.649 -1.0053  0.7309  1.3526
 2090TIP3   OH2 6233   4.771   5.319   2.567 -0.0251  0.2330  0.1703
 2090TIP3    H1 6234   4.714   5.263   2.514  0.0704 -0.9937  1.2950
 2090TIP3    H2 6235   4.712   5.381   2.610 -0.0489  1.5866 -1.7126
 2091TIP3   OH2 6236   5.776   4.034   5.868 -0.5988  0.1960 -0.1912
 2091TIP3    H1 6237   5.837   4.062   5.800  0.4677 -0.0096  0.6546
 2091TIP3    H2 6238   5.692   4.028   5.823  0.2464 -0.9405 -1.7400
 2092TIP3   OH2 6239   6.255   1.205   2.755  0.1655  0.2643  0.0849
 2092TIP3    H1 6240   6.258   1.225   2.849 -3.0662 -0.5330  0.4897
 2092TIP3    H2 6241   6.257   1.110   2.751 -0.4718  0.2675 -0.5594
 2093TIP3   OH2 6242   4.061   1.141   3.435  0.0395 -0.2783  0.4853
 2093TIP3    H1 6243   4.123   1.114   3.367  0.7051  2.5127 -0.1469
 2093TIP3    H2 6244   3.988   1.180   3.387 -0.7165 -0.6168  1.3266
 2094TIP3   OH2 6245   2.340   4.254   4.792 -0.2380  0.2608 -0.2108
 2094TIP3    H1 6246   2.407   4.223   4.732  0.0140 -1.2779  0.8022
 2094TIP3    H2 6247   2.388   4.285   4.869 -0.5479  2.2976 -0.7801
 2095TIP3   OH2 6248   3.518   1.522   0.429 -0.2004  0.2324 -0.2350
 2095TIP3    H1 6249   3.488   1.612   0.438 -0.2915  0.0347  2.0182
 2095TIP3    H2 6250   3.439   1.469   0.444  0.1418 -0.2226 -0.0013
 2096TIP3   OH2 6251   6.468   5.931   5.681 -0.1891  0.0328  0.3731
 2096TIP3    H1 6252   6.422   5.867   5.736  1.4451  0.5745  2.5243
 2096TIP3    H2 6253   6.549   5.950   5.729  2.0608 -0.4444 -2.9126
 2097TIP3   OH2 6254   6.519   3.716   1.701  0.6956 -0.1098  0.5282
 2097TIP3    H1 6255   6.464   3.670   1.765  0.2980  1.2299  1.1855
 2097TIP3    H2 6256   6.605   3.722   1.743  0.2940  1.2505  1.2104
 2098TIP3   OH2 6257   6.650   5.282   5.447  0.4008  0.5900 -0.6635
 2098TIP3    H1 6258   6.619   5.297   5.358 -1.1554 -0.4896 -0.3480
 2098TIP3    H2 6259   6.718   5.348   5.461 -0.1358  1.5130 -2.2451
 2099TIP3   OH2 6260   3.093   4.030   4.802  0.0416  0.5758 -0.1018
 2099TIP3    H1 6261   3.188   4.036   4.790  0.1427  0.0327  0.3866
 2099TIP3    H2 6262   3.079   4.055   4.893 -0.4307  1.9379 -0.5287
 2100TIP3   OH2 6263   6.153   3.204   2.122 -0.1236 -0.1000  0.0910
 2100TIP3    H1 6264   6.179   3.269   2.188  2.0804 -1.6416  0.8399
 2100TIP3    H2 6265   6.154   3.121   2.169  2.7252 -1.4416 -2.0487
 2101TIP3   OH2 6266   2.971   4.660   0.125  0.2349 -0.1285 -0.2694
 2101TIP3    H1 6267   3.010   4.702   0.202  0.3485  1.7603 -1.2921
 2101TIP3    H2 6268   2.880   4.642   0.151  0.3683  0.1778  0.4282
 2102TIP3   OH2 6269   5.333   3.267   5.733 -0.7210  0.2939  1.2341
 2102TIP3    H1 6270   5.302   3.357   5.746 -0.8143  0.0472  2.8293
 2102TIP3    H2 6271   5.406   3.257   5.794  0.8131 -0.0143 -0.5563
 2103TIP3   OH2 6272   4.681   5.412   5.786  0.0721 -0.1307 -0.0226
 2103TIP3    H1 6273   4.643   5.486   5.738 -0.7744  0.3054  1.2654
 2103TIP3    H2 6274   4.696   5.446   5.874 -0.5336 -1.5458  0.6575
 2104TIP3   OH2 6275   1.504   3.120   4.337 -0.1520  0.1207  0.1257
 2104TIP3    H1 6276   1.551   3.041   4.364  0.2873  0.9388  1.9192
 2104TIP3    H2 6277   1.446   3.140   4.410 -0.2696  1.4427 -0.2970
 2105TIP3   OH2 6278   5.272   5.554   0.086 -0.3633  0.1131  0.3208
 2105TIP3    H1 6279   5.285   5.546   0.181  0.1718  0.3220  0.2658
 2105TIP3    H2 6280   5.360   5.554   0.050 -0.5723 -0.0890 -0.1899
 2106TIP3   OH2 6281   2.698   1.424   4.733 -0.6776 -0.4139 -0.3251
 2106TIP3    H1 6282   2.628   1.485   4.754  1.7550  2.5212 -0.0127
 2106TIP3    H2 6283   2.691   1.410   4.639 -1.9614 -0.6079 -0.2144
 2107TIP3   OH2 6284   6.573   1.988   4.883  0.0268  0.7223 -0.6855
 2107TIP3    H1 6285   6.640   1.936   4.927  0.0955  0.6394 -0.8887
 2107TIP3    H2 6286   6.587   2.078   4.915 -0.5512  0.5054  0.2302
 2108TIP3   OH2 6287   6.378   2.549   5.550 -0.0125  0.4564 -0.0769
 2108TIP3    H1 6288   6.457   2.548   5.604  0.9351 -0.8562 -1.3990
 2108TIP3    H2 6289   6.406   2.589   5.468 -0.4485 -0.8469 -0.8944
 2109TIP3   OH2 6290   0.726   4.476   3.052 -0.3949 -0.3827  0.4295
 2109TIP3    H1 6291   0.733   4.421   3.131 -0.0144 -0.3937  0.3934
 2109TIP3    H2 6292   0.679   4.421   2.989 -0.0763 -0.6462  0.4163
 2110TIP3   OH2 6293   7.051   0.472   2.071 -0.0575  0.3450  0.5662
 2110TIP3    H1 6294   6.968   0.467   2.119 -0.4081  4.4435  0.7090
 2110TIP3    H2 6295   7.106   0.530   2.123  1.4321  0.9306 -1.5251
 2111TIP3   OH2 6296   6.762   2.030   2.673  0.1688  0.1439 -0.2898
 2111TIP3    H1 6297   6.670   2.058   2.673  0.6224  1.7927 -1.6677
 2111TIP3    H2 6298   6.796   2.064   2.756 -0.0362  1.1511 -0.6024
 2112TIP3   OH2 6299   0.521   5.283   5.158 -0.2657 -0.4731  0.0119
 2112TIP3    H1 6300   0.497   5.376   5.157  1.6385  0.0677  0.5589
 2112TIP3    H2 6301   0.466   5.244   5.225  2.3434  1.3532  3.5378
 2113TIP3   OH2 6302   6.847   2.865   2.610 -0.4932 -0.0290  0.3892
 2113TIP3    H1 6303   6.757   2.834   2.618 -0.2715 -0.8050 -0.0325
 2113TIP3    H2 6304   6.887   2.806   2.546  0.8798 -0.9510  2.0382
 2114TIP3   OH2 6305   4.738   0.044   0.319 -0.4537 -0.3868 -0.4276
 2114TIP3    H1 6306   4.793   0.053   0.242 -0.3713  1.7019 -0.1931
 2114TIP3    H2 6307   4.652   0.076   0.291 -0.6811 -0.5397  0.0760
 2115TIP3   OH2 6308   7.067   6.011   1.599  0.5494  0.1460  0.8920
 2115TIP3    H1 6309   6.987   5.968   1.569  1.1885 -0.5198  0.0972
 2115TIP3    H2 6310   7.125   6.010   1.523  2.2310 -1.5845  2.1229
 2116TIP3   OH2 6311   4.107   0.358   3.733  0.0767  0.1224  0.0169
 2116TIP3    H1 6312   4.175   0.292   3.726 -0.7260 -0.6486 -0.7847
 2116TIP3    H2 6313   4.070   0.364   3.645  1.0038  2.6273 -0.2757
 2117TIP3   OH2 6314   5.439   1.907   3.451 -0.1873  0.0007  0.0581
 2117TIP3    H1 6315   5.490   1.833   3.484 -0.8654  0.2165  1.6748
 2117TIP3    H2 6316   5.485   1.984   3.484  0.7654  0.3598 -1.9848
 2118TIP3   OH2 6317   3.101   6.407   0.628  0.3655 -0.6118 -0.0306
 2118TIP3    H1 6318   3.061   6.326   0.658  0.0821 -0.6076 -0.3863
 2118TIP3    H2 6319   3.190   6.383   0.603  0.6103 -0.6119  0.8113
 2119TIP3   OH2 6320   4.539   0.323   4.813 -0.2338 -0.3305 -0.1717
 2119TIP3    H1 6321   4.496   0.386   4.870 -0.9874 -1.5224  0.5991
 2119TIP3    H2 6322   4.468   0.277   4.769  0.2749 -1.2038 -0.1063
 2120TIP3   OH2 6323   3.884   4.170   1.021 -0.6010 -0.0696  0.6829
 2120TIP3    H1 6324   3.813   4.164   1.084 -0.5986 -0.1759  0.6764
 2120TIP3    H2 6325   3.847   4.218   0.947 -0.7465 -0.3547  0.5689
 2121TIP3   OH2 6326   4.642   4.891   2.386 -0.2635 -0.7370  0.0437
 2121TIP3    H1 6327   4.593   4.826   2.335  0.7044 -1.1766 -0.3396
 2121TIP3    H2 6328   4.712   4.842   2.428  2.6512  0.4665 -2.9760
 2122TIP3   OH2 6329   6.707   1.970   2.363 -0.1597 -0.2735 -0.0511
 2122TIP3    H1 6330   6.637   2.035   2.369 -0.2066 -0.2854 -0.4431
 2122TIP3    H2 6331   6.716   1.935   2.452 -0.8095 -0.4398 -0.0486
 2123TIP3   OH2 6332   3.091   5.166   0.503  0.2847  0.3347 -0.5974
 2123TIP3    H1 6333   3.182   5.178   0.476  0.0565 -0.4447 -1.7509
 2123TIP3    H2 6334   3.073   5.241   0.560  1.1675  1.3533 -1.6137
 2124TIP3   OH2 6335   0.091   3.371   1.534 -0.5044 -0.2411 -0.4638
 2124TIP3    H1 6336   0.096   3.407   1.622 -1.5867 -0.3650 -0.3349
 2124TIP3    H2 6337   0.158   3.419   1.485 -1.3053  1.3475 -0.0910
 2125TIP3   OH2 6338   6.306   4.953   4.513  0.1588  0.9290 -0.0237
 2125TIP3    H1 6339   6.214   4.980   4.516 -1.6347 -3.7520 -1.8804
 2125TIP3    H2 6340   6.331   4.966   4.421  0.2606 -0.4327 -0.2161
 2126TIP3   OH2 6341   0.619   5.973   0.705  0.3116  0.7832 -0.1977
 2126TIP3    H1 6342   0.614   5.983   0.610  0.6121  0.5293 -0.2415
 2126TIP3    H2 6343   0.529   5.953   0.731  0.3361  0.2476 -0.5035
 2127TIP3   OH2 6344   1.001   0.904   3.564  0.1152 -0.2289  0.0770
 2127TIP3    H1 6345   1.042   0.983   3.600  1.2854  0.0006 -1.6367
 2127TIP3    H2 6346   0.907   0.919   3.573  0.3006  1.5926 -0.6104
 2128TIP3   OH2 6347   1.979   5.990   0.228 -0.4471 -0.2607  0.0721
 2128TIP3    H1 6348   2.046   5.922   0.222  0.8052  0.9778 -0.4842
 2128TIP3    H2 6349   1.998   6.035   0.311 -0.8170 -0.1365  0.0918
 2129TIP3   OH2 6350   5.477   6.120   1.502 -0.4982 -0.1418  0.0480
 2129TIP3    H1 6351   5.494   6.127   1.408  2.9253  1.2685  0.6384
 2129TIP3    H2 6352   5.495   6.028   1.522  1.0170  0.0239 -0.3849
 2130TIP3   OH2 6353   0.673   6.244   5.574 -0.3810  0.7223 -0.2581
 2130TIP3    H1 6354   0.707   6.193   5.501 -0.2477 -0.0818  0.3535
 2130TIP3    H2 6355   0.732   6.318   5.581  0.0383  0.4127 -0.4901
 2131TIP3   OH2 6356   6.128   3.297   1.588  0.2992  0.1936  0.3060
 2131TIP3    H1 6357   6.071   3.232   1.629  0.7096 -1.3162 -1.3459
 2131TIP3    H2 6358   6.122   3.277   1.494  0.6318  2.4392 -0.2438
 2132TIP3   OH2 6359   5.866   4.714   5.704  0.0995 -0.1236  0.0066
 2132TIP3    H1 6360   5.795   4.685   5.646  0.8695  0.7741 -1.4536
 2132TIP3    H2 6361   5.896   4.634   5.747 -0.7306 -0.7695 -0.5713
 2133TIP3   OH2 6362   6.972   1.518   2.461 -0.4522 -0.4766  0.7585
 2133TIP3    H1 6363   6.905   1.469   2.507  0.0993 -0.9598  1.0657
 2133TIP3    H2 6364   7.054   1.493   2.504 -0.1527  0.6734  0.8945
 2134TIP3   OH2 6365   4.223   5.882   3.808  0.2585 -0.2606  0.2246
 2134TIP3    H1 6366   4.140   5.920   3.837  0.1095  1.4827 -2.1201
 2134TIP3    H2 6367   4.262   5.950   3.753  3.0935 -1.1777  0.9226
 2135TIP3   OH2 6368   2.231   2.368   4.651  0.0384  0.0393 -0.3302
 2135TIP3    H1 6369   2.224   2.341   4.743  0.9180 -1.3535 -0.6574
 2135TIP3    H2 6370   2.152   2.421   4.636 -1.4789 -1.8772  0.4949
 2136TIP3   OH2 6371   4.631   1.779   2.148 -0.2966  0.7710 -0.1953
 2136TIP3    H1 6372   4.720   1.803   2.120  0.0540 -1.9267 -1.6671
 2136TIP3    H2 6373   4.604   1.712   2.086 -2.2742 -0.5024  1.9307
 2137TIP3   OH2 6374   2.898   5.600   5.181 -0.2051  0.1046  0.4534
 2137TIP3    H1 6375   2.834   5.582   5.113  1.3523  0.1016 -1.0666
 2137TIP3    H2 6376   2.849   5.589   5.263 -2.2223  0.5184 -0.6319
 2138TIP3   OH2 6377   6.469   0.482   0.858  0.3778  0.0716  1.0096
 2138TIP3    H1 6378   6.522   0.469   0.779 -0.5301 -1.6155  0.6128
 2138TIP3    H2 6379   6.533   0.484   0.929  1.1174  0.1123  0.3652
 2139TIP3   OH2 6380   4.652   1.309   1.644 -0.0590 -0.3403  0.7364
 2139TIP3    H1 6381   4.641   1.372   1.574 -0.4591 -0.1005  1.0126
 2139TIP3    H2 6382   4.607   1.230   1.613  0.4808 -0.5102  0.3719
 2140TIP3   OH2 6383   4.134   0.327   0.451 -0.4426  0.0265  0.4968
 2140TIP3    H1 6384   4.102   0.301   0.538 -0.2138  0.0549  0.5900
 2140TIP3    H2 6385   4.201   0.262   0.430 -0.6537 -0.1103  0.2445
 2141TIP3   OH2 6386   2.293   1.830   4.932 -0.0639 -0.2205 -1.0522
 2141TIP3    H1 6387   2.265   1.740   4.917  1.5522 -0.7187 -1.2330
 2141TIP3    H2 6388   2.322   1.862   4.847  1.5403 -0.3276 -0.5721
 2142TIP3   OH2 6389   5.346   0.241   1.267  0.4591  0.4929 -0.2092
 2142TIP3    H1 6390   5.255   0.264   1.283  0.7755  1.2245  0.6115
 2142TIP3    H2 6391   5.380   0.313   1.214  0.5436  0.1733 -0.5972
 2143TIP3   OH2 6392   6.458   2.948   4.407  0.5617 -0.2227 -0.1010
 2143TIP3    H1 6393   6.474   3.029   4.359  1.3454 -1.5476 -2.2414
 2143TIP3    H2 6394   6.379   2.965   4.459  1.3258  2.2111  0.3602
 2144TIP3   OH2 6395   1.584   0.568   3.119 -0.3406 -0.3294  0.0893
 2144TIP3    H1 6396   1.523   0.620   3.066  0.1306 -0.2292 -0.3646
 2144TIP3    H2 6397   1.548   0.480   3.116 -0.1545 -0.3891 -0.6712
 2145TIP3   OH2 6398   7.012   3.091   5.649  0.2227  0.1041 -0.2958
 2145TIP3    H1 6399   7.064   3.079   5.729  2.1997 -0.6744 -1.6282
 2145TIP3    H2 6400   6.961   3.170   5.666  1.4390  0.6128  1.3060
 2146TIP3   OH2 6401   3.664   2.271   2.575 -0.2552  0.3244  0.0943
 2146TIP3    H1 6402   3.594   2.205   2.576  0.7973 -1.0779 -3.1324
 2146TIP3    H2 6403   3.646   2.323   2.497  1.2626  1.1222  0.2439
 2147TIP3   OH2 6404   1.342   0.500   1.519 -0.2074 -0.1972  0.0243
 2147TIP3    H1 6405   1.258   0.494   1.475 -0.5686 -0.6367  0.7599
 2147TIP3    H2 6406   1.335   0.578   1.574 -0.0260 -0.0632 -0.1428
 2148TIP3   OH2 6407   6.435   2.855   1.083  0.1128 -0.0311  0.7443
 2148TIP3    H1 6408   6.352   2.901   1.072 -0.1094 -0.4728  0.5810
 2148TIP3    H2 6409   6.456   2.864   1.176 -0.8581 -1.1865  1.0957
 2149TIP3   OH2 6410   7.199   2.832   2.192 -0.0098 -1.3780 -0.0008
 2149TIP3    H1 6411   7.122   2.799   2.146  0.2410  0.4560 -1.8617
 2149TIP3    H2 6412   7.184   2.927   2.199  1.5116 -1.1609  0.7386
 2150TIP3   OH2 6413   2.988   5.121   0.267  0.3767  0.5607  0.3925
 2150TIP3    H1 6414   3.036   5.138   0.348  0.6603 -0.4325  0.4405
 2150TIP3    H2 6415   2.993   5.026   0.255 -1.2563  0.4682  0.2118
 2151TIP3   OH2 6416   6.636   4.741   3.471 -0.2816  0.2132 -0.5992
 2151TIP3    H1 6417   6.577   4.788   3.530  1.7884  2.9395 -0.5045
 2151TIP3    H2 6418   6.701   4.701   3.529  0.1977  0.6063 -0.8506
 2152TIP3   OH2 6419   7.226   5.813   2.720 -0.8234  0.6257 -0.9088
 2152TIP3    H1 6420   7.244   5.892   2.670  1.2717  0.2228 -0.8982
 2152TIP3    H2 6421   7.150   5.774   2.678 -0.9651  1.8729 -1.8398
 2153TIP3   OH2 6422   1.327   5.591   4.387  0.4785  0.0605 -0.3718
 2153TIP3    H1 6423   1.340   5.674   4.432 -1.0822  0.3115 -0.3045
 2153TIP3    H2 6424   1.410   5.544   4.397  1.7674  2.0046 -1.3107
 2154TIP3   OH2 6425   1.927   5.874   4.699  0.2008  0.4105  0.7510
 2154TIP3    H1 6426   1.914   5.825   4.780  0.0842  3.3617  2.6748
 2154TIP3    H2 6427   1.997   5.936   4.720  0.5278  0.9237 -1.6252
 2155TIP3   OH2 6428   2.294   5.318   0.472 -0.5864  0.2496 -0.5190
 2155TIP3    H1 6429   2.357   5.287   0.407 -0.0148  1.6550 -0.6697
 2155TIP3    H2 6430   2.345   5.370   0.534 -1.5355  1.2895 -0.5523
 2156TIP3   OH2 6431   4.496   2.875   4.629 -0.1959 -0.3266 -0.5204
 2156TIP3    H1 6432   4.520   2.948   4.686  1.1048  0.1205 -1.6077
 2156TIP3    H2 6433   4.501   2.910   4.540 -2.9194 -0.8085 -0.9458
 2157TIP3   OH2 6434   3.080   4.092   2.342  0.0309  0.2226 -0.1535
 2157TIP3    H1 6435   3.143   4.164   2.339  1.4374 -0.9539  0.1597
 2157TIP3    H2 6436   3.044   4.096   2.430  0.9950 -0.1622  0.2748
 2158TIP3   OH2 6437   4.489   5.005   0.497  0.4488 -0.2407 -0.3751
 2158TIP3    H1 6438   4.527   5.041   0.417 -1.7769 -0.7710 -1.7665
 2158TIP3    H2 6439   4.562   4.964   0.543  2.0268  1.2659 -1.4422
 2159TIP3   OH2 6440   2.391   3.939   3.146 -0.1005 -0.6807  0.2748
 2159TIP3    H1 6441   2.409   3.989   3.226  0.8616 -0.4631 -0.0697
 2159TIP3    H2 6442   2.431   3.853   3.162 -1.0821 -1.0992  0.5569
 2160TIP3   OH2 6443   2.879   1.049   1.881 -0.0902 -0.4952 -0.0562
 2160TIP3    H1 6444   2.952   1.111   1.886 -1.4455  1.2969 -1.0769
 2160TIP3    H2 6445   2.807   1.100   1.843 -2.0238 -2.0538  1.3061
 2161TIP3   OH2 6446   0.676   2.102   2.593  0.0621 -0.2174  0.4007
 2161TIP3    H1 6447   0.747   2.067   2.538 -0.1431  0.0031 -0.0124
 2161TIP3    H2 6448   0.621   2.026   2.613  1.0406 -0.6107  1.6997
 2162TIP3   OH2 6449   1.126   4.326   3.509 -0.4854  0.3022  0.0451
 2162TIP3    H1 6450   1.122   4.408   3.557 -0.0456  0.1737  0.3074
 2162TIP3    H2 6451   1.036   4.293   3.509 -0.6788  0.8205 -0.1355
 2163TIP3   OH2 6452   6.814   5.947   1.468  0.4986  0.0925  0.0415
 2163TIP3    H1 6453   6.809   5.945   1.373  1.6976  0.2422 -0.0343
 2163TIP3    H2 6454   6.826   5.855   1.493 -1.1715 -0.1230  0.1529
 2164TIP3   OH2 6455   2.486   5.522   1.979  0.1977  0.1514  0.2716
 2164TIP3    H1 6456   2.465   5.449   2.038 -1.1257  1.2643  1.2454
 2164TIP3    H2 6457   2.483   5.599   2.035  3.4901  0.8361 -0.3146
 2165TIP3   OH2 6458   5.459   1.028   3.665 -0.2288 -0.2921 -0.7352
 2165TIP3    H1 6459   5.493   1.075   3.589 -1.7321  0.2512 -1.1034
 2165TIP3    H2 6460   5.510   1.063   3.739  2.8163 -2.4026 -1.6454
 2166TIP3   OH2 6461   4.004   4.442   4.279 -0.7059 -0.2047 -0.0195
 2166TIP3    H1 6462   3.982   4.401   4.195  0.0480 -2.7830  0.9276
 2166TIP3    H2 6463   3.943   4.402   4.341 -0.1574  0.3962  0.9295
 2167TIP3   OH2 6464   0.306   0.226   3.309 -0.2924 -0.3635 -0.0719
 2167TIP3    H1 6465   0.365   0.155   3.284  1.1807  0.3063  1.3474
 2167TIP3    H2 6466   0.255   0.190   3.382 -2.2175 -1.1764 -1.7279
 2168TIP3   OH2 6467   5.747   5.518   2.481 -0.1548  0.5306  0.2021
 2168TIP3    H1 6468   5.789   5.468   2.551 -1.1135  0.1001  0.4945
 2168TIP3    H2 6469   5.653   5.513   2.502 -0.3327  1.6994 -0.2697
 2169TIP3   OH2 6470   0.110   2.018   0.006  0.2941  0.0177  0.1442
 2169TIP3    H1 6471   0.023   1.978   0.005  0.8752 -1.3682 -1.5374
 2169TIP3    H2 6472   0.116   2.061   0.091 -1.9773  0.0532  0.3484
 2170TIP3   OH2 6473   6.318   2.966   4.914  0.1793  0.1081 -0.4494
 2170TIP3    H1 6474   6.296   2.916   4.991 -0.1319 -0.5757 -0.9743
 2170TIP3    H2 6475   6.308   2.905   4.841  0.7458  0.6532 -1.0058
 2171TIP3   OH2 6476   2.098   1.520   1.623 -0.1541  0.8358  0.0469
 2171TIP3    H1 6477   2.070   1.509   1.532 -1.8488 -0.2720  0.6571
 2171TIP3    H2 6478   2.143   1.438   1.644 -1.1946  0.4015  0.6653
 2172TIP3   OH2 6479   4.452   4.322   2.854  0.0228  0.0764  0.1473
 2172TIP3    H1 6480   4.391   4.391   2.878 -0.4047 -0.4957  0.7427
 2172TIP3    H2 6481   4.415   4.242   2.892  0.9629 -0.3359  0.2362
 2173TIP3   OH2 6482   0.505   1.339   4.601 -0.3099  0.7071 -0.3223
 2173TIP3    H1 6483   0.597   1.327   4.578 -0.7693  1.0491 -2.5525
 2173TIP3    H2 6484   0.468   1.390   4.529 -2.2071  0.7907  0.6370
 2174TIP3   OH2 6485   6.997   3.194   4.969 -0.0424  0.2715 -0.0657
 2174TIP3    H1 6486   7.079   3.161   4.931 -0.9737 -1.2699 -0.8708
 2174TIP3    H2 6487   6.953   3.115   5.001 -2.4446  0.6237 -2.1665
 2175TIP3   OH2 6488   4.108   3.871   3.811  0.0412 -0.5703 -0.3059
 2175TIP3    H1 6489   4.022   3.867   3.852  0.3616 -0.5849  0.3877
 2175TIP3    H2 6490   4.112   3.958   3.771 -0.4023 -0.6805 -0.5941
 2176TIP3   OH2 6491   5.284   5.759   3.435  0.9050 -0.4317  0.3546
 2176TIP3    H1 6492   5.221   5.694   3.466 -1.4283  1.4334 -0.1211
 2176TIP3    H2 6493   5.281   5.752   3.339  0.2899  0.6010  0.2770
 2177TIP3   OH2 6494   3.764   2.532   2.678  0.0271 -0.0657 -0.4239
 2177TIP3    H1 6495   3.766   2.447   2.722  1.0448  1.2345  2.2024
 2177TIP3    H2 6496   3.672   2.557   2.679  0.0058 -0.1710  0.7441
 2178TIP3   OH2 6497   6.260   0.177   2.355 -0.4869 -0.3429  0.2557
 2178TIP3    H1 6498   6.201   0.205   2.425 -0.2889  0.6089  0.0504
 2178TIP3    H2 6499   6.258   0.248   2.291  0.2976 -0.6388 -0.1168
 2179TIP3   OH2 6500   1.796   5.702   3.934 -0.0039 -0.2068  0.8597
 2179TIP3    H1 6501   1.849   5.629   3.903  0.5231  0.4369  0.2096
 2179TIP3    H2 6502   1.804   5.698   4.030  1.4399  0.0254  0.7706
 2180TIP3   OH2 6503   1.662   4.766   3.978  0.0449  0.4198  0.2026
 2180TIP3    H1 6504   1.694   4.687   3.935  2.2042  1.1063  0.3978
 2180TIP3    H2 6505   1.698   4.761   4.067 -1.3233  0.7543  0.7970
 2181TIP3   OH2 6506   7.094   0.700   0.461  0.1120 -0.3589  0.0888
 2181TIP3    H1 6507   7.020   0.650   0.426 -0.3115  1.9164 -2.6497
 2181TIP3    H2 6508   7.170   0.663   0.416 -0.0278  0.3837 -0.8099
 2182TIP3   OH2 6509   3.063   5.505   2.311  0.2692 -0.0477 -0.2112
 2182TIP3    H1 6510   3.140   5.485   2.258  0.1754 -1.4918  0.1563
 2182TIP3    H2 6511   3.021   5.420   2.326  0.4217  0.2465  2.3578
 2183TIP3   OH2 6512   6.347   2.679   1.901  0.3821  0.1820 -0.0529
 2183TIP3    H1 6513   6.260   2.674   1.861  0.7150  0.6557 -0.8647
 2183TIP3    H2 6514   6.344   2.615   1.972 -0.1274 -0.9057 -1.0276
 2184TIP3   OH2 6515   1.158   5.862   0.539 -0.4375  0.3121  0.4620
 2184TIP3    H1 6516   1.131   5.900   0.456  2.3736  1.2234 -0.1383
 2184TIP3    H2 6517   1.102   5.904   0.605 -0.2029  2.3953 -0.6122
 2185TIP3   OH2 6518   2.987   2.111   0.729  0.1463  0.2917 -0.0951
 2185TIP3    H1 6519   3.004   2.083   0.640 -0.6733  1.6236 -0.6994
 2185TIP3    H2 6520   3.070   2.149   0.759  0.4432 -0.2303 -0.2468
 2186TIP3   OH2 6521   6.758   6.090   0.178  0.0577  0.0056 -0.2437
 2186TIP3    H1 6522   6.773   6.107   0.085 -0.7133  0.1943 -0.3466
 2186TIP3    H2 6523   6.844   6.094   0.218  0.8148 -2.7412 -1.3594
 2187TIP3   OH2 6524   2.828   1.564   1.076 -0.2391 -0.0574  0.0218
 2187TIP3    H1 6525   2.832   1.469   1.089  0.3975 -0.5996 -3.1763
 2187TIP3    H2 6526   2.734   1.584   1.078 -0.3920 -0.7734  0.6202
 2188TIP3   OH2 6527   6.814   2.208   1.405 -0.1606 -0.1292  0.2797
 2188TIP3    H1 6528   6.901   2.185   1.373 -1.0317 -1.2927 -1.4126
 2188TIP3    H2 6529   6.789   2.133   1.460  0.2216  0.6052  1.4950
 2189TIP3   OH2 6530   5.473   2.646   4.766  0.9132 -0.6488 -0.3095
 2189TIP3    H1 6531   5.430   2.563   4.744 -0.1283 -0.1234 -0.3223
 2189TIP3    H2 6532   5.400   2.706   4.785  1.6861 -0.1706  1.2685
 2190TIP3   OH2 6533   1.002   3.631   3.176  0.6407  0.2726 -0.1187
 2190TIP3    H1 6534   1.052   3.710   3.198  0.4233  0.5158 -0.4763
 2190TIP3    H2 6535   0.912   3.654   3.197  0.7160 -0.2867  0.8477
 2191TIP3   OH2 6536   0.871   0.487   3.026  0.2253 -0.1755 -0.0218
 2191TIP3    H1 6537   0.869   0.513   2.934  1.3275  0.2247  0.0600
 2191TIP3    H2 6538   0.926   0.552   3.068  0.4205 -0.8395  0.7745
 2192TIP3   OH2 6539   3.249   3.018   0.723  0.0996  0.5689 -0.1624
 2192TIP3    H1 6540   3.156   2.997   0.735  0.3613 -1.3450 -1.0859
 2192TIP3    H2 6541   3.249   3.097   0.671 -1.0377  0.1260 -0.8731
 2193TIP3   OH2 6542   0.299   6.353   2.065 -0.0857  0.7593  0.1399
 2193TIP3    H1 6543   0.309   6.444   2.094  0.9630  1.4665 -2.1937
 2193TIP3    H2 6544   0.324   6.355   1.973  0.5367 -2.0290  0.1683
 2194TIP3   OH2 6545   6.172   5.224   4.162 -0.3019  0.2537  0.3020
 2194TIP3    H1 6546   6.229   5.257   4.231  0.6780 -2.0540  0.6807
 2194TIP3    H2 6547   6.105   5.174   4.208  0.0454 -0.8461 -0.3556
 2195TIP3   OH2 6548   1.018   4.993   0.644  0.7131 -0.0272  0.2462
 2195TIP3    H1 6549   1.091   5.004   0.705  0.3744 -1.4417  0.9414
 2195TIP3    H2 6550   0.985   4.905   0.661 -0.8066  0.3751 -0.4552
 2196TIP3   OH2 6551   6.955   2.176   4.005 -0.0328 -0.3031  0.2627
 2196TIP3    H1 6552   6.934   2.221   4.087  1.1435 -0.1991  0.5334
 2196TIP3    H2 6553   6.874   2.177   3.955 -0.7130 -0.1740  1.3360
 2197TIP3   OH2 6554   6.898   3.230   3.125  0.0729  0.3671  0.6772
 2197TIP3    H1 6555   6.954   3.250   3.050 -1.8430 -0.3967 -1.0384
 2197TIP3    H2 6556   6.837   3.303   3.130 -1.5070 -0.8456 -0.2311
 2198TIP3   OH2 6557   1.284   1.432   0.454 -0.4468 -0.0054  0.9324
 2198TIP3    H1 6558   1.297   1.450   0.547 -1.2272 -1.1714  1.2902
 2198TIP3    H2 6559   1.196   1.396   0.448 -0.0807 -0.7921 -0.1272
 2199TIP3   OH2 6560   4.634   4.597   5.695 -0.1196 -0.1776 -0.2515
 2199TIP3    H1 6561   4.645   4.514   5.740 -1.4740 -0.4452 -0.3670
 2199TIP3    H2 6562   4.621   4.573   5.603  0.7009  0.2397 -0.4805
 2200TIP3   OH2 6563   5.047   4.169   0.964 -0.0993  0.4819 -0.0619
 2200TIP3    H1 6564   5.046   4.148   0.870 -0.8649 -0.7660  0.2048
 2200TIP3    H2 6565   4.985   4.242   0.972 -0.7185  0.0120 -0.4144
 2201TIP3   OH2 6566   4.239   2.263   3.788  0.7413 -0.4072 -0.2358
 2201TIP3    H1 6567   4.206   2.342   3.830  0.6870 -1.2373  1.3601
 2201TIP3    H2 6568   4.215   2.192   3.848  0.9171 -1.6227 -1.5548
 2202TIP3   OH2 6569   2.018   1.170   2.556 -0.5887 -0.2904  0.4579
 2202TIP3    H1 6570   2.035   1.230   2.483  0.7252  0.0315  0.9985
 2202TIP3    H2 6571   2.099   1.171   2.607 -0.7066 -2.1778  0.7468
 2203TIP3   OH2 6572   1.549   6.784   2.625  0.2466  0.2045 -0.1156
 2203TIP3    H1 6573   1.518   6.715   2.566 -1.1951  0.7912 -0.0981
 2203TIP3    H2 6574   1.477   6.796   2.687  1.1508  0.6039  0.8727
 2204TIP3   OH2 6575   2.252   6.293   3.812 -0.5893  0.1565 -0.4705
 2204TIP3    H1 6576   2.216   6.330   3.731  0.2126 -1.8389 -1.8158
 2204TIP3    H2 6577   2.326   6.349   3.834 -1.6093  1.4989 -0.3322
 2205TIP3   OH2 6578   5.447   0.131   2.282  0.2990  0.3923 -0.3402
 2205TIP3    H1 6579   5.474   0.110   2.371  0.0817  0.5049 -0.2472
 2205TIP3    H2 6580   5.524   0.111   2.228 -0.6116 -3.0645 -0.6143
 2206TIP3   OH2 6581   7.135   2.506   3.665  1.1960 -0.0947 -0.2352
 2206TIP3    H1 6582   7.163   2.550   3.745  0.6730  0.5588 -0.4078
 2206TIP3    H2 6583   7.078   2.435   3.695  0.3743  0.6249 -0.0586
 2207TIP3   OH2 6584   5.225   3.899   0.534 -0.2505  0.4321 -0.6511
 2207TIP3    H1 6585   5.219   3.974   0.475 -0.0270 -0.6258 -2.0848
 2207TIP3    H2 6586   5.231   3.823   0.476 -0.5665 -0.7180  0.7421
 2208TIP3   OH2 6587   0.897   1.345   5.793  0.4564 -0.3552 -0.4100
 2208TIP3    H1 6588   0.862   1.309   5.875  0.4202  0.8431  0.1311
 2208TIP3    H2 6589   0.991   1.350   5.807  0.3022  1.5750  0.3393
 2209TIP3   OH2 6590   5.659   3.936   0.076  0.4706 -0.1664 -0.0716
 2209TIP3    H1 6591   5.593   3.925   0.145 -0.5906  1.1521 -0.8195
 2209TIP3    H2 6592   5.715   3.859   0.084 -2.0318 -2.1579 -0.3209
 2210TIP3   OH2 6593   0.145   4.958   1.799  0.0444 -0.1719 -0.2103
 2210TIP3    H1 6594   0.158   4.909   1.880  0.9986  0.4284  0.0247
 2210TIP3    H2 6595   0.216   4.928   1.741  0.0314  0.1987 -0.4219
 2211TIP3   OH2 6596   2.738   4.812   0.180  0.3378 -0.3050  0.2567
 2211TIP3    H1 6597   2.802   4.870   0.139 -0.4334  0.1596 -0.3205
 2211TIP3    H2 6598   2.753   4.823   0.274  1.1076 -0.2091  0.1286
 2212TIP3   OH2 6599   3.114   0.246   1.296  0.4663  0.2015 -0.1898
 2212TIP3    H1 6600   3.158   0.264   1.213  0.2902 -0.0650 -0.3422
 2212TIP3    H2 6601   3.185   0.224   1.357  0.7648  1.9994  0.1841
 2213TIP3   OH2 6602   5.517   4.996   4.327  0.2359  0.3655  0.3489
 2213TIP3    H1 6603   5.568   5.064   4.283  0.0010  0.0282 -0.4721
 2213TIP3    H2 6604   5.442   5.042   4.365  1.4660  0.9784  2.1736
 2214TIP3   OH2 6605   1.884   2.123   1.401 -0.0723  0.4362  0.3624
 2214TIP3    H1 6606   1.848   2.071   1.473 -3.0470  0.9493 -0.6147
 2214TIP3    H2 6607   1.876   2.214   1.430  1.8758  0.5682  0.6577
 2215TIP3   OH2 6608   6.134   5.278   2.306  0.0268  0.2807 -0.3538
 2215TIP3    H1 6609   6.204   5.326   2.263 -0.6555  0.5061 -1.2537
 2215TIP3    H2 6610   6.061   5.340   2.309 -0.4536 -0.2776 -0.3703
 2216TIP3   OH2 6611   3.737   6.751   4.944 -0.0355 -0.3753  0.1243
 2216TIP3    H1 6612   3.727   6.831   4.996 -2.9651 -1.4293  1.4090
 2216TIP3    H2 6613   3.831   6.736   4.939  0.4535  1.3067  2.7374
 2217TIP3   OH2 6614   1.584   5.481   1.795  0.0925 -0.1261  0.0181
 2217TIP3    H1 6615   1.637   5.429   1.856  0.4185 -0.4495 -0.5227
 2217TIP3    H2 6616   1.628   5.566   1.791  1.0119 -0.6127 -0.9548
 2218TIP3   OH2 6617   0.327   1.516   1.122 -0.1345 -0.7000 -0.3489
 2218TIP3    H1 6618   0.390   1.505   1.193  0.1193  0.1904 -0.4227
 2218TIP3    H2 6619   0.351   1.599   1.081 -1.1291 -0.5211 -0.6078
 2219TIP3   OH2 6620   0.749   1.068   4.250  0.1179  0.1556  0.2607
 2219TIP3    H1 6621   0.657   1.069   4.223 -0.1499 -0.5484  1.0733
 2219TIP3    H2 6622   0.794   1.023   4.179 -0.6266 -1.9908  1.0484
 2220TIP3   OH2 6623   0.529   0.537   5.850  0.7058  0.1778 -0.3481
 2220TIP3    H1 6624   0.542   0.453   5.893  1.4495  0.0764 -0.7520
 2220TIP3    H2 6625   0.540   0.602   5.919 -0.5926 -0.0643  0.1194
 2221TIP3   OH2 6626   7.090   2.455   2.384 -0.0620  0.3586 -0.1348
 2221TIP3    H1 6627   7.075   2.401   2.461  1.7919  1.6455  1.2230
 2221TIP3    H2 6628   7.176   2.426   2.352 -0.0255  1.0371 -0.6672
 2222TIP3   OH2 6629   4.979   1.400   1.316 -0.4971 -0.5428 -0.3727
 2222TIP3    H1 6630   5.027   1.405   1.233 -1.1981  1.6688 -0.7266
 2222TIP3    H2 6631   5.022   1.330   1.365  1.2850 -0.5001 -1.7681
 2223TIP3   OH2 6632   1.135   2.587   4.428  0.0741 -0.3747 -0.2815
 2223TIP3    H1 6633   1.061   2.525   4.431 -0.2458  0.0261  2.2505
 2223TIP3    H2 6634   1.210   2.533   4.401 -0.2267 -1.9172  1.7081
 2224TIP3   OH2 6635   5.189   3.880   2.133 -0.0601 -0.3722  0.2079
 2224TIP3    H1 6636   5.120   3.909   2.073 -0.7869 -1.0620  0.6863
 2224TIP3    H2 6637   5.219   3.960   2.175  0.3516  0.1035 -0.9470
 2225TIP3   OH2 6638   2.824   0.829   2.040  0.1368  0.4912 -0.3550
 2225TIP3    H1 6639   2.744   0.848   2.090 -0.5042 -2.2984 -0.1541
 2225TIP3    H2 6640   2.841   0.909   1.991 -3.0273  1.0540 -0.7375
 2226TIP3   OH2 6641   3.620   2.198   1.240 -0.2531  0.1783  0.2487
 2226TIP3    H1 6642   3.541   2.164   1.197  0.3210 -0.8127 -0.0432
 2226TIP3    H2 6643   3.598   2.289   1.262 -0.5494  0.7674 -2.1913
 2227TIP3   OH2 6644   1.869   5.732   4.476 -0.0308  0.1694  0.1182
 2227TIP3    H1 6645   1.888   5.781   4.556 -1.3692 -1.3639  1.4514
 2227TIP3    H2 6646   1.776   5.711   4.482  0.0581 -0.8078 -1.3645
 2228TIP3   OH2 6647   0.163   0.008   0.621  0.0459  0.0278 -0.4330
 2228TIP3    H1 6648   0.135   0.004   0.529  0.6667 -0.8994 -0.5963
 2228TIP3    H2 6649   0.224   0.081   0.624 -0.2373  0.2798 -0.6836
 2229TIP3   OH2 6650   1.456   3.870   0.822 -0.2624 -0.0090 -0.8434
 2229TIP3    H1 6651   1.415   3.799   0.872  1.5533 -0.9550 -0.6012
 2229TIP3    H2 6652   1.533   3.894   0.873 -0.9175  2.3053 -0.8415
 2230TIP3   OH2 6653   0.227   4.777   0.608  0.0426 -0.2941  0.4341
 2230TIP3    H1 6654   0.142   4.736   0.589 -0.5963 -0.3836  3.1527
 2230TIP3    H2 6655   0.222   4.862   0.566 -0.6988 -0.9379 -0.8685
 2231TIP3   OH2 6656   3.157   1.849   0.398  0.8273  0.5936  0.0319
 2231TIP3    H1 6657   3.105   1.843   0.318  1.0905  1.8180 -0.2598
 2231TIP3    H2 6658   3.143   1.939   0.429  1.8904  0.5963  0.5473
 2232TIP3   OH2 6659   5.092   4.368   2.783 -0.1214  0.0631  0.5945
 2232TIP3    H1 6660   5.014   4.318   2.807 -0.9393  1.0404  0.0532
 2232TIP3    H2 6661   5.062   4.429   2.716  1.6689 -1.2458 -1.5051
 2233TIP3   OH2 6662   0.699   5.863   2.843 -0.2319 -0.2603  0.6358
 2233TIP3    H1 6663   0.763   5.816   2.897 -1.4787  0.3591  2.7683
 2233TIP3    H2 6664   0.671   5.936   2.898 -1.6310  0.3762 -0.8622
 2234TIP3   OH2 6665   0.168   5.005   1.243  0.2517  0.0754 -0.5534
 2234TIP3    H1 6666   0.127   5.079   1.288  0.4860 -0.0563 -0.1169
 2234TIP3    H2 6667   0.215   5.045   1.170 -0.0246  0.3076 -0.6036
 2235TIP3   OH2 6668   5.368   2.736   5.595  0.5653 -0.5940 -0.2343
 2235TIP3    H1 6669   5.296   2.726   5.533  0.1142  1.2566 -0.0638
 2235TIP3    H2 6670   5.353   2.667   5.660 -0.9706 -0.3643 -0.2989
 2236TIP3   OH2 6671   7.187   4.180   5.117 -0.4067  0.5906 -0.3179
 2236TIP3    H1 6672   7.260   4.239   5.098 -0.1180  0.5704  0.6754
 2236TIP3    H2 6673   7.109   4.235   5.107 -0.1560  1.0776  0.3535
 2237TIP3   OH2 6674   0.119   0.489   4.206  0.5429  0.3493 -0.0585
 2237TIP3    H1 6675   0.040   0.436   4.214  1.2792 -1.0460 -1.5740
 2237TIP3    H2 6676   0.158   0.485   4.294 -1.7701  2.3633  1.1849
 2238TIP3   OH2 6677   5.444   6.415   0.151 -0.0336  0.3048 -0.7798
 2238TIP3    H1 6678   5.449   6.493   0.207 -1.1995  0.2923 -0.6249
 2238TIP3    H2 6679   5.352   6.410   0.126 -0.5111 -2.3552  1.1245
 2239TIP3   OH2 6680   1.368   6.303   3.802  0.1659 -0.0833 -0.3420
 2239TIP3    H1 6681   1.382   6.347   3.718 -1.6849  1.0846 -0.1077
 2239TIP3    H2 6682   1.424   6.226   3.799  0.4734  0.1662 -2.4650
 2240TIP3   OH2 6683   3.136   0.903   0.980  0.2572 -0.0532  0.1762
 2240TIP3    H1 6684   3.225   0.909   1.015 -0.0377 -1.7144  1.3079
 2240TIP3    H2 6685   3.090   0.976   1.021  0.6758 -0.1886  0.9047
 2241TIP3   OH2 6686   6.571   3.718   5.106  0.2805 -0.3386  0.1607
 2241TIP3    H1 6687   6.601   3.754   5.190 -1.2312  0.8797  0.2314
 2241TIP3    H2 6688   6.506   3.652   5.130 -0.9083  0.7306 -0.0319
 2242TIP3   OH2 6689   4.672   4.885   5.570  0.4713  0.1715 -1.0296
 2242TIP3    H1 6690   4.614   4.959   5.554 -0.4007  0.0774  1.2904
 2242TIP3    H2 6691   4.613   4.810   5.577  0.8371 -0.0015  0.8534
 2243TIP3   OH2 6692   2.747   5.776   2.692  0.0368 -0.2130  0.3548
 2243TIP3    H1 6693   2.838   5.802   2.701  0.7194 -2.3847  0.0852
 2243TIP3    H2 6694   2.732   5.711   2.760 -0.7784 -1.2013 -0.7193
 2244TIP3   OH2 6695   3.143   0.884   5.005  0.2367  0.0073  0.6366
 2244TIP3    H1 6696   3.181   0.805   4.967  1.9163 -0.3629  2.9015
 2244TIP3    H2 6697   3.081   0.853   5.071  0.6714  0.5578  1.3180
 2245TIP3   OH2 6698   4.870   5.055   0.414 -0.0672  1.0152  0.4029
 2245TIP3    H1 6699   4.940   5.061   0.349  0.4303 -0.3974  0.7617
 2245TIP3    H2 6700   4.833   4.967   0.402 -0.1033  0.8032  1.8690
 2246TIP3   OH2 6701   4.133   6.005   1.266  0.0906 -0.0359 -0.2943
 2246TIP3    H1 6702   4.097   5.962   1.344  1.0429 -0.4465 -0.0731
 2246TIP3    H2 6703   4.226   6.013   1.283  0.0531  1.5046 -0.6412
 2247TIP3   OH2 6704   4.691   3.226   2.869 -0.1489 -0.1863  0.1514
 2247TIP3    H1 6705   4.675   3.305   2.818  0.0720  0.4184  1.0025
 2247TIP3    H2 6706   4.773   3.244   2.915 -0.3517 -0.7188  0.7232
 2248TIP3   OH2 6707   1.373   2.474   0.616 -0.0748  0.2335  0.3660
 2248TIP3    H1 6708   1.453   2.428   0.592  1.4140  1.2503  2.9199
 2248TIP3    H2 6709   1.314   2.404   0.646  0.3884 -0.4056 -0.1722
 2249TIP3   OH2 6710   6.330   1.702   2.668  0.2607 -0.0160 -0.3028
 2249TIP3    H1 6711   6.294   1.613   2.662 -0.3240  0.2487 -0.8228
 2249TIP3    H2 6712   6.316   1.728   2.758  0.3048 -0.3923 -0.1832
 2250TIP3   OH2 6713   0.819   3.435   2.603  0.0973  0.2684 -0.3699
 2250TIP3    H1 6714   0.861   3.517   2.581 -0.2169  0.3716 -0.5865
 2250TIP3    H2 6715   0.766   3.455   2.680  1.4778 -0.1750  0.7427
 2251TIP3   OH2 6716   6.555   0.184   4.114 -0.4343  0.9215  0.3878
 2251TIP3    H1 6717   6.585   0.187   4.023 -1.8832 -1.1915 -0.2278
 2251TIP3    H2 6718   6.550   0.276   4.140  1.6325  1.5225 -1.0695
 2252TIP3   OH2 6719   1.852   6.142   5.397 -0.5192 -0.1723 -0.3037
 2252TIP3    H1 6720   1.887   6.053   5.400 -0.9198 -0.3388 -0.4585
 2252TIP3    H2 6721   1.788   6.140   5.326  0.3296  0.5585 -1.1065
 2253TIP3   OH2 6722   4.670   1.187   5.117  0.0590  0.1233 -0.5358
 2253TIP3    H1 6723   4.701   1.251   5.053  2.5112 -1.7602 -1.3845
 2253TIP3    H2 6724   4.688   1.226   5.202  1.5177  0.5739 -1.0407
 2254TIP3   OH2 6725   4.023   2.992   4.975 -0.1323  0.2580  0.0410
 2254TIP3    H1 6726   4.090   3.036   5.029 -0.9382  0.2013  1.1196
 2254TIP3    H2 6727   4.073   2.932   4.920  0.9065  1.7201 -0.6999
 2255TIP3   OH2 6728   3.145   5.587   5.059 -0.0266 -0.0494  0.2612
 2255TIP3    H1 6729   3.159   5.638   4.979  1.6356 -0.4809  0.2489
 2255TIP3    H2 6730   3.051   5.594   5.076 -0.2812  0.6604 -1.3141
 2256TIP3   OH2 6731   0.811   3.450   3.785 -0.4120  0.2555 -0.4806
 2256TIP3    H1 6732   0.747   3.379   3.797 -0.6652  0.5589 -0.0028
 2256TIP3    H2 6733   0.896   3.408   3.800 -0.5822  0.1209  0.1615
 2257TIP3   OH2 6734   2.589   3.353   1.234 -0.4654  0.2881  0.4618
 2257TIP3    H1 6735   2.572   3.376   1.325  0.1689  0.5872  0.5129
 2257TIP3    H2 6736   2.649   3.421   1.202  3.4003 -2.3499  1.3093
 2258TIP3   OH2 6737   6.276   5.452   3.887 -0.1691 -0.0595 -0.2301
 2258TIP3    H1 6738   6.195   5.449   3.936  1.2166  0.6808  2.2949
 2258TIP3    H2 6739   6.321   5.531   3.919  2.0633 -1.0962 -0.6124
 2259TIP3   OH2 6740   6.934   5.763   2.223  0.3518 -0.1591  0.1777
 2259TIP3    H1 6741   6.971   5.850   2.232  1.9576 -1.0127  2.9972
 2259TIP3    H2 6742   7.007   5.703   2.241 -0.9439 -2.0700 -0.5792
 2260TIP3   OH2 6743   4.403   0.467   3.005  0.4619 -0.2885 -0.2812
 2260TIP3    H1 6744   4.445   0.427   2.929 -1.0945 -3.5283  0.3986
 2260TIP3    H2 6745   4.436   0.417   3.080 -0.1254  1.0058  0.8841
 2261TIP3   OH2 6746   5.493   6.730   3.817 -0.1651  0.1448 -0.3327
 2261TIP3    H1 6747   5.550   6.785   3.763  0.1552 -1.2822 -1.5181
 2261TIP3    H2 6748   5.540   6.723   3.900  1.0116 -0.3061 -1.0000
 2262TIP3   OH2 6749   4.694   5.128   2.789  0.1462 -0.1917  0.6868
 2262TIP3    H1 6750   4.685   5.154   2.697  1.2851 -0.1167  0.5840
 2262TIP3    H2 6751   4.750   5.195   2.827  1.6787 -1.4873  0.8443
 2263TIP3   OH2 6752   5.434   1.900   1.320  0.0936 -0.3705 -0.4613
 2263TIP3    H1 6753   5.346   1.864   1.330 -0.1800 -0.5712 -2.9287
 2263TIP3    H2 6754   5.419   1.992   1.297  0.5920 -0.0925  0.2974
 2264TIP3   OH2 6755   6.662   2.469   1.969 -0.3162  0.0232 -0.3746
 2264TIP3    H1 6756   6.698   2.541   1.918 -0.9976  1.0802  0.5843
 2264TIP3    H2 6757   6.595   2.430   1.913 -0.5274  0.6812 -0.5859
 2265TIP3   OH2 6758   0.924   0.225   1.159  0.5305 -0.4433  0.4725
 2265TIP3    H1 6759   0.845   0.279   1.152  0.8220 -0.0112  0.4665
 2265TIP3    H2 6760   0.917   0.183   1.244  0.4973 -0.0826  0.6478
 2266TIP3   OH2 6761   1.800   5.582   1.546  0.4296 -0.4811  0.4059
 2266TIP3    H1 6762   1.705   5.584   1.544  0.4106 -0.8532  0.8617
 2266TIP3    H2 6763   1.825   5.531   1.469  0.3259  1.0054 -0.6597
 2267TIP3   OH2 6764   1.391   4.233   4.608  0.1646  0.1265 -0.3155
 2267TIP3    H1 6765   1.485   4.234   4.628  0.6476 -1.8335 -2.1102
 2267TIP3    H2 6766   1.349   4.263   4.689  2.2663 -0.3248  1.0320
 2268TIP3   OH2 6767   0.359   0.302   4.927 -0.5959 -0.5276  0.1557
 2268TIP3    H1 6768   0.294   0.372   4.934  0.2974  0.6760 -2.4669
 2268TIP3    H2 6769   0.425   0.336   4.867  1.5515 -2.4271  1.2854
 2269TIP3   OH2 6770   2.382   2.892   5.594 -0.6076  0.4182 -0.4000
 2269TIP3    H1 6771   2.290   2.867   5.597 -0.0185 -2.0212 -0.4809
 2269TIP3    H2 6772   2.417   2.868   5.680 -0.1281  1.7030 -0.2196
 2270TIP3   OH2 6773   6.186   6.297   0.239  0.8101 -0.4385  0.3680
 2270TIP3    H1 6774   6.216   6.252   0.318  1.1744  1.6155  1.4739
 2270TIP3    H2 6775   6.266   6.335   0.202  0.6204 -1.2619 -0.9400
 2271TIP3   OH2 6776   6.554   6.586   5.181 -0.1981 -0.5697 -0.4246
 2271TIP3    H1 6777   6.573   6.535   5.102 -2.5568 -0.7020 -0.9689
 2271TIP3    H2 6778   6.504   6.526   5.237 -0.4175  0.2105  0.2305
 2272TIP3   OH2 6779   5.678   5.775   0.159 -0.1276 -0.2217 -0.1749
 2272TIP3    H1 6780   5.598   5.783   0.106  0.1292  1.4948 -0.3492
 2272TIP3    H2 6781   5.654   5.714   0.229 -0.9542 -1.3202 -1.3571
 2273TIP3   OH2 6782   4.830   3.719   4.145  0.0078  0.4713 -0.0454
 2273TIP3    H1 6783   4.744   3.698   4.182  1.4812 -0.1498  3.3683
 2273TIP3    H2 6784   4.839   3.814   4.157 -0.7852  0.8358 -1.9611
 2274TIP3   OH2 6785   6.564   1.335   4.977 -0.1975 -0.0684  0.1181
 2274TIP3    H1 6786   6.496   1.380   5.027 -1.4751 -0.9297 -0.7592
 2274TIP3    H2 6787   6.613   1.285   5.042  0.9896  2.1893  1.0511
 2275TIP3   OH2 6788   0.232   3.634   2.335 -0.1342 -0.6977 -0.0407
 2275TIP3    H1 6789   0.268   3.629   2.424  1.8776  1.9896 -0.5598
 2275TIP3    H2 6790   0.277   3.566   2.286  1.7620  0.3475  0.1616
 2276TIP3   OH2 6791   1.948   5.047   3.269  0.1095 -0.0356  0.3735
 2276TIP3    H1 6792   2.032   5.072   3.308 -0.1685  0.9946  0.3468
 2276TIP3    H2 6793   1.900   5.006   3.340  0.5983 -0.5389  0.4168
 2277TIP3   OH2 6794   0.494   6.316   3.153 -0.0610 -0.2106 -0.1801
 2277TIP3    H1 6795   0.517   6.394   3.103 -1.5992 -0.4957 -1.4120
 2277TIP3    H2 6796   0.534   6.244   3.104  1.8194 -0.2260  1.2453
 2278TIP3   OH2 6797   3.004   2.153   4.317  0.4163  0.5710 -0.2602
 2278TIP3    H1 6798   2.961   2.145   4.232  1.4235  1.2730 -0.8597
 2278TIP3    H2 6799   3.000   2.065   4.354  1.0430 -0.0472 -1.5781
 2279TIP3   OH2 6800   4.308   0.878   3.403 -0.3878  0.2889  0.5264
 2279TIP3    H1 6801   4.363   0.955   3.394  0.3654 -0.2914  0.1065
 2279TIP3    H2 6802   4.222   0.906   3.370  0.4973  0.2643 -1.9549
 2280TIP3   OH2 6803   5.142   3.506   3.157 -0.1008  0.3314 -0.2614
 2280TIP3    H1 6804   5.217   3.536   3.105  0.6771  0.2613  0.7914
 2280TIP3    H2 6805   5.080   3.472   3.092  0.7431  0.4592 -1.1577
 2281TIP3   OH2 6806   6.877   6.708   0.323  0.2346 -0.2628 -0.0331
 2281TIP3    H1 6807   6.959   6.658   0.327  0.9734  0.9113 -0.0083
 2281TIP3    H2 6808   6.873   6.753   0.407 -1.5421 -1.9352  0.8552
 2282TIP3   OH2 6809   4.920   6.186   5.465 -0.1581  0.4572  0.1558
 2282TIP3    H1 6810   4.824   6.190   5.465 -0.1364  1.0940  0.9119
 2282TIP3    H2 6811   4.939   6.097   5.435 -0.9786  0.4036 -0.2479
 2283TIP3   OH2 6812   1.950   2.802   1.201 -0.1888  0.1872  0.3417
 2283TIP3    H1 6813   2.013   2.731   1.196 -1.4898 -1.0234  0.3997
 2283TIP3    H2 6814   1.976   2.862   1.131  0.3874 -0.8354 -0.3553
 2284TIP3   OH2 6815   3.562   3.285   5.168  0.2354 -1.0387  0.2688
 2284TIP3    H1 6816   3.650   3.259   5.142  0.8965 -0.3286  1.6724
 2284TIP3    H2 6817   3.555   3.376   5.140  0.8889 -0.3245  2.2515
 2285TIP3   OH2 6818   1.393   6.624   3.197 -0.5723  0.1252 -0.0938
 2285TIP3    H1 6819   1.306   6.628   3.157 -0.4749  0.2412 -0.2965
 2285TIP3    H2 6820   1.391   6.692   3.265 -0.1930  1.0693 -0.9991
 2286TIP3   OH2 6821   4.660   6.560   2.523  0.1174  0.1543  0.1832
 2286TIP3    H1 6822   4.577   6.525   2.554 -0.0141 -0.0661 -0.4027
 2286TIP3    H2 6823   4.726   6.503   2.563  0.0850  1.2571  1.8892
 2287TIP3   OH2 6824   1.908   4.038   4.331  0.0354 -0.0747  0.0688
 2287TIP3    H1 6825   1.892   4.002   4.418 -3.2561  1.2024  0.1226
 2287TIP3    H2 6826   1.945   4.124   4.347  0.5693 -0.3113  0.1392
 2288TIP3   OH2 6827   2.025   3.964   2.502  0.0774  0.5981 -0.3929
 2288TIP3    H1 6828   2.089   4.027   2.537  0.5192  0.1061 -0.3003
 2288TIP3    H2 6829   2.079   3.894   2.465 -0.4092 -0.5262  0.9578
 2289TIP3   OH2 6830   2.644   2.554   0.053  0.0179 -0.3064 -0.3758
 2289TIP3    H1 6831   2.569   2.493   0.058 -0.2795  0.0614 -0.3264
 2289TIP3    H2 6832   2.682   2.538  -0.034  0.6048 -1.3325  0.0460
 2290TIP3   OH2 6833   2.120   4.613   1.305 -0.2071  0.3821 -0.0647
 2290TIP3    H1 6834   2.116   4.518   1.300 -0.7519  0.4100 -0.3051
 2290TIP3    H2 6835   2.110   4.634   1.398 -0.2248  0.2090 -0.0283
 2291TIP3   OH2 6836   5.838   0.733   1.444  0.6893  0.2992 -0.0819
 2291TIP3    H1 6837   5.892   0.670   1.492  0.1312  0.6864  1.1151
 2291TIP3    H2 6838   5.821   0.802   1.508  0.8655  1.4184 -1.2165
 2292TIP3   OH2 6839   4.853   6.707   5.205 -0.1294 -0.6839  0.2873
 2292TIP3    H1 6840   4.833   6.621   5.243 -1.0792 -0.0504  1.2906
 2292TIP3    H2 6841   4.921   6.743   5.261 -2.8610  1.0695  2.8069
 2293TIP3   OH2 6842   5.659   5.789   3.771 -0.7168  0.2638 -0.2362
 2293TIP3    H1 6843   5.630   5.708   3.813  3.0076 -1.0954  0.0918
 2293TIP3    H2 6844   5.666   5.766   3.678 -0.8528  0.5930 -0.3270
 2294TIP3   OH2 6845   3.711   4.592   2.741  0.3703  0.5048 -0.3874
 2294TIP3    H1 6846   3.628   4.639   2.738  0.2298  0.3294  0.4777
 2294TIP3    H2 6847   3.770   4.644   2.687 -0.5439  0.1048 -1.8345
 2295TIP3   OH2 6848   0.284   4.667   3.886 -0.3667  0.5716 -0.1798
 2295TIP3    H1 6849   0.335   4.688   3.808  0.9276 -0.5725  0.2968
 2295TIP3    H2 6850   0.213   4.612   3.855 -1.3155  2.1142 -0.8478
 2296TIP3   OH2 6851   3.874   2.335   0.069  0.0246  0.2082  0.9873
 2296TIP3    H1 6852   3.853   2.353  -0.022  1.7634  1.0264  0.7058
 2296TIP3    H2 6853   3.789   2.335   0.114 -0.8469 -0.0651 -0.5753
 2297TIP3   OH2 6854   5.777   3.339   1.037  0.2016  0.3261  0.1960
 2297TIP3    H1 6855   5.711   3.383   1.090  0.7299  0.2850  0.9114
 2297TIP3    H2 6856   5.727   3.287   0.974 -0.4406  2.0816 -0.8094
 2298TIP3   OH2 6857   3.734   1.835   2.699  0.4597  0.1560  0.4605
 2298TIP3    H1 6858   3.686   1.899   2.752 -2.1643 -0.0125 -1.5076
 2298TIP3    H2 6859   3.814   1.881   2.672 -0.0450  1.6041  1.3222
 2299TIP3   OH2 6860   1.260   2.482   5.227 -0.0368 -0.0754  0.2653
 2299TIP3    H1 6861   1.300   2.565   5.252  1.5297 -0.7591  0.1308
 2299TIP3    H2 6862   1.185   2.473   5.286  0.1246  1.1355  0.6807
 2300TIP3   OH2 6863   4.202   0.327   1.135  0.2195 -0.0457 -0.4958
 2300TIP3    H1 6864   4.143   0.254   1.156 -1.5725  0.9446 -1.8088
 2300TIP3    H2 6865   4.219   0.318   1.042 -0.6593  1.6096 -0.8587
 2301TIP3   OH2 6866   6.296   2.735   2.558  0.1918  0.0467 -0.2554
 2301TIP3    H1 6867   6.353   2.812   2.557 -0.7465  0.7571 -0.5508
 2301TIP3    H2 6868   6.281   2.715   2.465  0.3027 -0.3925 -0.1786
 2302TIP3   OH2 6869   0.391   2.461   3.697  0.5633 -0.0035 -0.2534
 2302TIP3    H1 6870   0.306   2.482   3.737 -0.8808 -1.5375 -2.2986
 2302TIP3    H2 6871   0.405   2.369   3.718  3.0776  0.7918  2.2001
 2303TIP3   OH2 6872   5.409   2.686   1.248  0.2305 -0.8149 -0.5099
 2303TIP3    H1 6873   5.320   2.665   1.275  0.3736 -1.5694 -0.6175
 2303TIP3    H2 6874   5.399   2.733   1.165 -0.0201 -1.6721 -0.9699
 2304TIP3   OH2 6875   1.626   1.518   4.373  0.4661  0.4300 -0.0755
 2304TIP3    H1 6876   1.678   1.496   4.450  0.1322 -0.2840 -0.0516
 2304TIP3    H2 6877   1.619   1.436   4.324 -0.7794  0.4693  0.0133
 2305TIP3   OH2 6878   3.989   0.331   2.889 -0.3459 -0.2166 -0.4877
 2305TIP3    H1 6879   3.907   0.334   2.839 -0.3643  0.9170 -0.4054
 2305TIP3    H2 6880   3.973   0.265   2.956 -1.3489  0.2916 -0.2125
 2306TIP3   OH2 6881   0.145   5.340   0.287 -0.0252  0.2610 -0.0557
 2306TIP3    H1 6882   0.137   5.309   0.197 -0.6530  0.7859 -0.1901
 2306TIP3    H2 6883   0.111   5.268   0.340 -1.0770  0.5320 -0.3390
 2307TIP3   OH2 6884   1.379   0.937   4.514  0.6146 -0.6171 -0.5138
 2307TIP3    H1 6885   1.342   1.014   4.557  2.1536 -0.2684  0.2583
 2307TIP3    H2 6886   1.452   0.911   4.570  0.5397 -2.2484 -1.1163
 2308TIP3   OH2 6887   1.978   5.488   5.650 -0.0798 -0.3897  0.3771
 2308TIP3    H1 6888   1.998   5.410   5.702  0.8273 -0.4770 -0.0821
 2308TIP3    H2 6889   2.063   5.515   5.614 -0.6033  0.0053 -0.5905
 2309TIP3   OH2 6890   1.188   3.317   1.787 -0.4258 -0.1345  0.3641
 2309TIP3    H1 6891   1.128   3.346   1.856  0.9685  0.5082  1.3458
 2309TIP3    H2 6892   1.232   3.397   1.758 -0.7148 -0.4548 -1.0318
 2310TIP3   OH2 6893   6.561   0.918   2.443  0.1931 -0.4362  0.6721
 2310TIP3    H1 6894   6.598   0.829   2.446  0.8049 -0.1668  1.4212
 2310TIP3    H2 6895   6.519   0.923   2.358 -0.1824 -1.5819  0.7622
 2311TIP3   OH2 6896   6.306   0.332   0.500 -0.5673 -0.2743 -0.0317
 2311TIP3    H1 6897   6.287   0.253   0.449 -1.7876  0.5582 -0.9315
 2311TIP3    H2 6898   6.245   0.328   0.574  0.6889 -1.1058  0.9959
 2312TIP3   OH2 6899   5.122   6.459   1.182  0.1667  0.2670  0.1474
 2312TIP3    H1 6900   5.193   6.407   1.220 -0.5886 -0.1233  1.0706
 2312TIP3    H2 6901   5.126   6.440   1.088 -0.2453 -1.6862  0.4756
 2313TIP3   OH2 6902   0.923   1.990   2.523 -0.3097 -0.4116 -0.0781
 2313TIP3    H1 6903   0.992   2.055   2.506 -0.7501  0.0847 -0.0089
 2313TIP3    H2 6904   0.942   1.918   2.463 -1.2121  0.8283 -1.9551
 2314TIP3   OH2 6905   0.496   0.590   2.665  0.0789 -0.3975  0.1849
 2314TIP3    H1 6906   0.540   0.511   2.696  0.9301 -0.0773 -0.1747
 2314TIP3    H2 6907   0.542   0.662   2.707 -0.9710 -0.0865  0.8519
 2315TIP3   OH2 6908   4.483   4.794   1.761 -0.4135  0.2485 -0.4622
 2315TIP3    H1 6909   4.449   4.791   1.671 -2.3557  1.0559  0.1927
 2315TIP3    H2 6910   4.422   4.851   1.807 -1.2696 -2.5602  2.1463
 2316TIP3   OH2 6911   4.187   2.480   0.093  0.4978 -0.2168 -0.1930
 2316TIP3    H1 6912   4.136   2.405   0.064 -0.7088  0.1789  0.8213
 2316TIP3    H2 6913   4.247   2.445   0.158  1.4458 -0.6583 -1.2800
 2317TIP3   OH2 6914   3.276   5.326   5.820 -0.1438  0.2867 -0.1430
 2317TIP3    H1 6915   3.336   5.260   5.783  0.2046  0.0163  0.8551
 2317TIP3    H2 6916   3.197   5.320   5.766  0.4184  0.0616 -0.9633
 2318TIP3   OH2 6917   6.409   1.804   2.235 -0.0877  0.0311 -0.8944
 2318TIP3    H1 6918   6.404   1.840   2.324 -1.2094 -0.7740 -0.6131
 2318TIP3    H2 6919   6.497   1.766   2.229  0.0273  0.1743 -0.1534
 2319TIP3   OH2 6920   5.147   5.410   1.742  0.1143  0.1449  0.8015
 2319TIP3    H1 6921   5.057   5.443   1.744  0.7732  2.1012  0.3829
 2319TIP3    H2 6922   5.138   5.317   1.759 -2.1616 -0.0738 -1.0174
 2320TIP3   OH2 6923   4.779   5.594   0.200  0.1141  0.2971  0.1799
 2320TIP3    H1 6924   4.729   5.657   0.252 -1.6446  0.4516 -1.5823
 2320TIP3    H2 6925   4.868   5.599   0.235 -0.5590  1.8093  1.8273
 2321TIP3   OH2 6926   4.287   2.495   4.508 -0.0281 -0.5897  0.2620
 2321TIP3    H1 6927   4.359   2.437   4.484  0.4317 -0.5660  1.4845
 2321TIP3    H2 6928   4.284   2.490   4.604  0.0501  1.4191  0.4162
 2322TIP3   OH2 6929   7.067   1.123   2.054  0.6525 -0.0661 -0.3433
 2322TIP3    H1 6930   7.011   1.155   1.984 -0.8323 -2.1980 -0.2293
 2322TIP3    H2 6931   7.083   1.199   2.110  1.5541  1.6090 -2.6980
 2323TIP3   OH2 6932   5.808   4.857   1.432 -0.8362 -0.6157  0.2730
 2323TIP3    H1 6933   5.743   4.788   1.417 -1.3184 -0.3779  1.1848
 2323TIP3    H2 6934   5.786   4.926   1.370  0.7135 -1.9566 -1.8874
 2324TIP3   OH2 6935   0.466   1.231   5.204  0.1946 -0.1561 -0.0684
 2324TIP3    H1 6936   0.480   1.321   5.231 -0.6868  0.6670 -2.1024
 2324TIP3    H2 6937   0.373   1.214   5.223  0.7685 -1.3258  2.0016
 2325TIP3   OH2 6938   0.536   0.554   1.646 -0.2882  0.6153  0.6244
 2325TIP3    H1 6939   0.453   0.601   1.655 -0.3123  1.0560 -1.5203
 2325TIP3    H2 6940   0.601   0.612   1.684 -0.9064  0.2997  2.2555
 2326TIP3   OH2 6941   5.324   4.248   1.126 -0.2565  0.6100 -0.2509
 2326TIP3    H1 6942   5.357   4.174   1.075 -2.1169  0.5803 -1.4888
 2326TIP3    H2 6943   5.229   4.242   1.118 -0.4695  2.7482  0.1814
 2327TIP3   OH2 6944   3.542   0.354   4.226  0.3671  0.3367  0.0421
 2327TIP3    H1 6945   3.564   0.414   4.155  1.2679 -0.0139  0.0119
 2327TIP3    H2 6946   3.451   0.330   4.209 -0.2670  2.2503  0.4748
 2328TIP3   OH2 6947   5.587   6.247   0.338 -0.1153 -0.2332 -0.4147
 2328TIP3    H1 6948   5.590   6.304   0.415 -1.8809 -1.1351  0.3783
 2328TIP3    H2 6949   5.550   6.302   0.269 -0.5681 -0.0275 -0.0161
 2329TIP3   OH2 6950   6.291   5.015   0.855  0.1185  0.7241  0.4328
 2329TIP3    H1 6951   6.242   4.934   0.863 -0.4303  0.9807 -0.1771
 2329TIP3    H2 6952   6.378   4.989   0.826  0.1531  0.3088  0.9090
 2330TIP3   OH2 6953   4.900   5.957   3.522 -0.3413 -0.0052  0.2130
 2330TIP3    H1 6954   4.822   6.013   3.530 -0.5441 -0.5034  2.3148
 2330TIP3    H2 6955   4.898   5.902   3.600  2.1417 -0.0361  0.3167
 2331TIP3   OH2 6956   0.981   6.111   1.986 -0.3238  0.4595 -0.0387
 2331TIP3    H1 6957   0.951   6.184   2.041 -0.9532 -0.9868  1.6226
 2331TIP3    H2 6958   0.966   6.141   1.896  0.5553  2.8296  0.5305
 2332TIP3   OH2 6959   0.306   2.665   4.126  0.5035 -0.3761  0.6210
 2332TIP3    H1 6960   0.317   2.673   4.032  1.4160 -0.6334  0.6999
 2332TIP3    H2 6961   0.312   2.755   4.159  2.0729 -0.4564  0.6163
 2333TIP3   OH2 6962   3.778   1.811   1.612  0.2659  0.2124 -0.5437
 2333TIP3    H1 6963   3.718   1.768   1.551 -1.0895  0.5499  0.4971
 2333TIP3    H2 6964   3.832   1.739   1.646 -0.9004 -0.4491 -0.0177
 2334TIP3   OH2 6965   6.519   6.624   5.767 -0.0641 -0.0524  0.0344
 2334TIP3    H1 6966   6.456   6.577   5.712 -0.0244 -1.9133  1.4622
 2334TIP3    H2 6967   6.491   6.605   5.857  0.6620  1.7676  0.6900
 2335TIP3   OH2 6968   3.028   3.819   2.476 -0.2044 -0.6123  0.1358
 2335TIP3    H1 6969   3.050   3.838   2.385  0.6092 -0.0609  0.4316
 2335TIP3    H2 6970   2.933   3.813   2.478 -0.4289  2.0148 -0.2774
 2336TIP3   OH2 6971   1.050   1.309   0.390 -0.1184 -0.3267  0.0681
 2336TIP3    H1 6972   0.988   1.372   0.424 -1.6080 -1.6257 -0.1324
 2336TIP3    H2 6973   1.022   1.294   0.300 -0.3567 -1.9330  0.3870
 2337TIP3   OH2 6974   6.397   5.121  -0.030 -0.5853 -0.0383 -0.4675
 2337TIP3    H1 6975   6.367   5.034  -0.002  0.0861  0.2504  1.3247
 2337TIP3    H2 6976   6.460   5.147   0.038 -0.1472  1.5018 -1.4135
 2338TIP3   OH2 6977   3.334   2.163   1.190  0.1665 -0.0247 -0.7516
 2338TIP3    H1 6978   3.374   2.182   1.105  0.0797 -0.6667 -0.9464
 2338TIP3    H2 6979   3.260   2.106   1.168  1.8315 -2.6621 -0.0476
 2339TIP3   OH2 6980   3.449   3.172   4.465  0.2274 -0.1320  0.1517
 2339TIP3    H1 6981   3.362   3.156   4.428  0.1956  0.9368 -0.2735
 2339TIP3    H2 6982   3.462   3.101   4.528 -0.8477 -0.4419  0.0383
 2340TIP3   OH2 6983   6.337   5.180   2.781 -0.2072 -0.1925  0.0401
 2340TIP3    H1 6984   6.330   5.085   2.771  0.3717 -0.1701 -0.6724
 2340TIP3    H2 6985   6.373   5.210   2.698  1.6577  0.4087  0.9947
 2341TIP3   OH2 6986   6.132   6.037   5.217  0.7947 -0.2482  0.2211
 2341TIP3    H1 6987   6.212   6.027   5.267  2.0874 -2.6796 -2.0744
 2341TIP3    H2 6988   6.147   6.115   5.162  1.6186 -0.6979 -0.2008
 2342TIP3   OH2 6989   4.230   1.989   1.968 -0.2967  0.2865  0.0182
 2342TIP3    H1 6990   4.180   1.986   2.049 -0.6740 -1.5320 -0.2492
 2342TIP3    H2 6991   4.168   2.022   1.903  0.0212  1.7985  0.4498
 2343TIP3   OH2 6992   0.689   1.083   5.310 -0.0195  0.2869 -0.0949
 2343TIP3    H1 6993   0.644   1.155   5.267  0.2898  0.6596  0.1922
 2343TIP3    H2 6994   0.675   1.098   5.403  0.6006  0.3537 -0.0057
 2344TIP3   OH2 6995   7.184   2.955   2.874 -0.0633  0.9132 -0.2723
 2344TIP3    H1 6996   7.261   3.011   2.883 -0.5404  1.7470 -1.1671
 2344TIP3    H2 6997   7.131   2.998   2.807 -0.9604 -0.0429 -0.2007
 2345TIP3   OH2 6998   6.314   4.193   3.041  0.0167 -0.0040 -0.2252
 2345TIP3    H1 6999   6.243   4.172   3.101 -0.2613  0.3635 -0.4212
 2345TIP3    H2 7000   6.305   4.131   2.969 -0.6145  0.5698 -0.6539
 2346TIP3   OH2 7001   1.315   3.662   4.594  0.0565 -0.4303  0.3741
 2346TIP3    H1 7002   1.312   3.688   4.502  0.2063 -0.5429  0.3366
 2346TIP3    H2 7003   1.237   3.607   4.606  0.0244 -0.3965  0.3193
 2347TIP3   OH2 7004   2.105   4.871   0.588 -0.0087 -0.4306 -0.3330
 2347TIP3    H1 7005   2.012   4.886   0.607 -0.1482 -2.2545  0.6364
 2347TIP3    H2 7006   2.151   4.941   0.635 -0.8241 -0.1151  0.0200
 2348TIP3   OH2 7007   3.873   1.632   3.889  0.6674 -0.7200 -0.1306
 2348TIP3    H1 7008   3.838   1.691   3.956 -0.3130 -1.2473 -0.1667
 2348TIP3    H2 7009   3.881   1.548   3.934  0.1700 -1.0329 -0.6221
 2349TIP3   OH2 7010   4.686   5.375   1.250  0.3864  0.5491  0.3467
 2349TIP3    H1 7011   4.611   5.359   1.191  1.9144 -2.1176 -1.0892
 2349TIP3    H2 7012   4.763   5.357   1.195  1.9629  0.3236  2.5310
 2350TIP3   OH2 7013   0.971   5.431   1.074  0.1782  0.1703  0.0404
 2350TIP3    H1 7014   1.012   5.387   1.000  0.1810  1.5852 -0.8329
 2350TIP3    H2 7015   1.033   5.500   1.099 -0.5197  0.7045  0.3435
 2351TIP3   OH2 7016   0.571   1.923   4.919 -0.1759  0.2083 -0.1435
 2351TIP3    H1 7017   0.605   2.013   4.915  0.6779 -0.1232 -0.7168
 2351TIP3    H2 7018   0.534   1.915   5.006  2.2959  0.2380  0.9832
 2352TIP3   OH2 7019   5.007   1.399   5.161  0.3146  0.1825  0.7838
 2352TIP3    H1 7020   5.043   1.429   5.078 -0.8906 -0.5569 -0.0214
 2352TIP3    H2 7021   4.928   1.452   5.174 -0.7627 -1.2548  0.3005
 2353TIP3   OH2 7022   1.269   0.421   2.207  0.3566  0.1325 -0.6710
 2353TIP3    H1 7023   1.268   0.478   2.284 -1.4389  0.4251 -0.8718
 2353TIP3    H2 7024   1.296   0.336   2.241 -1.1642  0.0568  0.4895
 2354TIP3   OH2 7025   2.864   5.329   3.083  0.1700  0.2735  0.5866
 2354TIP3    H1 7026   2.927   5.372   3.025  0.5076 -1.7269 -0.6276
 2354TIP3    H2 7027   2.779   5.354   3.049  0.3655 -0.6874 -0.6683
 2355TIP3   OH2 7028   1.959   5.335   5.229  0.1739 -0.6707  0.1256
 2355TIP3    H1 7029   1.990   5.282   5.303  2.2417  0.1874 -0.0574
 2355TIP3    H2 7030   2.023   5.406   5.221 -0.9674  0.2632 -1.4014
 2356TIP3   OH2 7031   2.167   4.087   0.740  0.0849 -0.1558  0.0312
 2356TIP3    H1 7032   2.257   4.071   0.709 -0.0357  0.2621 -0.5417
 2356TIP3    H2 7033   2.156   4.182   0.734 -0.4827 -0.2295 -0.1385
 2357TIP3   OH2 7034   4.123   2.340   0.825 -0.3431 -0.1353  0.3974
 2357TIP3    H1 7035   4.088   2.424   0.796 -0.1230  0.2809  1.2908
 2357TIP3    H2 7036   4.197   2.323   0.767 -0.1609  0.4757  0.4417
 2358TIP3   OH2 7037   6.778   4.794   0.820 -0.0402 -0.2098 -0.4950
 2358TIP3    H1 7038   6.799   4.747   0.739  1.1184 -0.7771  0.1213
 2358TIP3    H2 7039   6.770   4.726   0.886 -1.5046  0.2122 -0.2111
 2359TIP3   OH2 7040   1.620   2.364   0.511 -0.2764  0.9495  0.3620
 2359TIP3    H1 7041   1.593   2.272   0.510  1.0851  0.3636 -4.1224
 2359TIP3    H2 7042   1.706   2.363   0.553  0.7309 -0.3166 -1.5883
 2360TIP3   OH2 7043   6.858   4.161   1.880  0.4861 -0.1673  0.5215
 2360TIP3    H1 7044   6.942   4.184   1.921  1.0426  1.4983 -1.3688
 2360TIP3    H2 7045   6.806   4.241   1.887 -1.4393 -1.5013  2.6340
 2361TIP3   OH2 7046   0.965   1.232   1.241 -0.5597  0.3456 -0.3635
 2361TIP3    H1 7047   0.974   1.281   1.323 -1.1141 -1.0607  0.5674
 2361TIP3    H2 7048   0.877   1.195   1.245 -0.0055 -1.0816 -0.8312
 2362TIP3   OH2 7049   2.902   2.928   3.193  0.3819 -0.5153  0.2859
 2362TIP3    H1 7050   2.847   3.006   3.203  0.9561  0.0609 -0.8342
 2362TIP3    H2 7051   2.903   2.911   3.099  1.1887 -1.2042  0.4071
 2363TIP3   OH2 7052   6.922   3.233   1.114 -0.0227 -0.3903 -0.0339
 2363TIP3    H1 7053   6.902   3.160   1.172 -1.3433  0.0892  0.1582
 2363TIP3    H2 7054   6.840   3.248   1.066 -0.4790  2.2185  1.3520
 2364TIP3   OH2 7055   1.058   4.077   0.303  0.4834  0.8975 -0.8852
 2364TIP3    H1 7056   1.077   3.987   0.329 -0.0436  0.9842 -0.1776
 2364TIP3    H2 7057   1.091   4.130   0.375  1.9656  1.3705 -1.8799
 2365TIP3   OH2 7058   6.065   2.399   3.282 -0.0372  0.1255  0.4880
 2365TIP3    H1 7059   6.131   2.429   3.219 -0.9664 -2.4218 -1.8961
 2365TIP3    H2 7060   6.109   2.330   3.331 -0.3575 -0.3311  0.1422
 2366TIP3   OH2 7061   6.973   5.331   0.339 -0.3127 -0.8960 -0.3679
 2366TIP3    H1 7062   6.898   5.384   0.363 -0.8543 -1.2546 -1.2336
 2366TIP3    H2 7063   7.036   5.393   0.303  0.2091 -0.4597  1.2340
 2367TIP3   OH2 7064   3.184   1.200   2.535  0.0459  0.4378 -0.5449
 2367TIP3    H1 7065   3.096   1.166   2.554  0.6531 -0.1343  1.4784
 2367TIP3    H2 7066   3.196   1.182   2.442 -1.3414 -1.0252 -0.5047
 2368TIP3   OH2 7067   2.990   3.536   1.535 -0.2571  0.3526 -0.3770
 2368TIP3    H1 7068   3.054   3.565   1.600  1.4109 -1.2944 -1.1864
 2368TIP3    H2 7069   2.912   3.515   1.586  1.6560 -2.9600  1.5787
 2369TIP3   OH2 7070   5.839   4.958   0.851  0.1888 -0.2175 -0.5554
 2369TIP3    H1 7071   5.913   4.955   0.912 -0.9866  0.6676  0.9465
 2369TIP3    H2 7072   5.761   4.958   0.906 -0.9494 -0.2409 -2.0871
 2370TIP3   OH2 7073   1.916   4.077   2.831 -0.6532 -0.1463 -0.4727
 2370TIP3    H1 7074   2.002   4.038   2.817  0.1600  1.4907 -0.2390
 2370TIP3    H2 7075   1.870   4.015   2.888  0.0248 -1.4670 -1.3151
 2371TIP3   OH2 7076   3.661   4.376   3.612  0.2460 -0.2665 -0.3609
 2371TIP3    H1 7077   3.662   4.454   3.669  1.1214 -1.0943  0.7972
 2371TIP3    H2 7078   3.752   4.365   3.585  0.3253 -1.4479  0.3080
 2372TIP3   OH2 7079   4.361   0.720   1.379 -0.3894 -0.0629  0.0451
 2372TIP3    H1 7080   4.353   0.626   1.362  0.7450 -0.1779  0.0934
 2372TIP3    H2 7081   4.317   0.761   1.305  0.4644 -0.6224 -0.7965
 2373TIP3   OH2 7082   3.826   0.953   1.011  0.1612 -0.4278 -0.1300
 2373TIP3    H1 7083   3.912   0.979   0.980  0.1534  1.6355  1.3599
 2373TIP3    H2 7084   3.842   0.883   1.074  0.8127  0.1617  0.3771
 2374TIP3   OH2 7085   0.267   3.826   1.372 -0.3524  0.4302 -0.2192
 2374TIP3    H1 7086   0.222   3.872   1.301 -1.7414  0.0619  0.3863
 2374TIP3    H2 7087   0.359   3.849   1.360 -0.5883  0.6434 -1.9284
 2375TIP3   OH2 7088   6.155   3.514   5.660 -0.1499 -0.2536  0.3099
 2375TIP3    H1 7089   6.080   3.514   5.599 -0.3833 -0.3020  0.5931
 2375TIP3    H2 7090   6.225   3.469   5.612  0.0702  0.8274 -0.3969
 2376TIP3   OH2 7091   1.404   1.020   2.210  0.4744 -0.1158  0.0077
 2376TIP3    H1 7092   1.331   0.959   2.201 -0.8709  1.3280  0.6690
 2376TIP3    H2 7093   1.482   0.965   2.203 -0.6436 -1.6280 -1.2876
 2377TIP3   OH2 7094   6.585   2.952   2.049  0.5906  0.0810  0.0111
 2377TIP3    H1 7095   6.529   2.989   1.981 -0.5443 -0.2799  0.7326
 2377TIP3    H2 7096   6.670   2.940   2.006  0.5950  2.1164 -0.6665
 2378TIP3   OH2 7097   7.102   5.096   0.677  0.0280  0.0008 -0.6944
 2378TIP3    H1 7098   7.019   5.079   0.720 -1.4707  3.4438 -1.8711
 2378TIP3    H2 7099   7.095   5.051   0.593  1.2864 -3.2889  0.7812
 2379TIP3   OH2 7100   6.811   3.969   1.090  0.1928  0.3642  0.3262
 2379TIP3    H1 7101   6.716   3.980   1.102  0.2020  1.2839 -0.3070
 2379TIP3    H2 7102   6.826   3.876   1.103 -1.5572 -0.8200 -4.2981
 2380TIP3   OH2 7103   5.202   1.940   2.116 -0.0926  0.0468  0.3390
 2380TIP3    H1 7104   5.165   1.860   2.079 -2.0154  0.1278  1.8997
 2380TIP3    H2 7105   5.290   1.916   2.144 -0.4535 -1.3909  0.3057
 2381TIP3   OH2 7106   6.473   1.989   1.242  0.0919 -0.2199  0.2876
 2381TIP3    H1 7107   6.508   2.069   1.204  1.9508 -0.9687  0.3480
 2381TIP3    H2 7108   6.402   2.019   1.299  0.0770  1.2792 -0.4837
 2382TIP3   OH2 7109   2.982   5.092   2.021 -0.0331 -0.2056 -0.1139
 2382TIP3    H1 7110   3.038   5.099   2.099  0.8909 -0.3322 -0.7526
 2382TIP3    H2 7111   2.924   5.018   2.041  0.7266 -0.7502  0.1367
 2383TIP3   OH2 7112   2.759   6.733   5.374  0.3852 -0.3578 -0.1859
 2383TIP3    H1 7113   2.690   6.750   5.309  1.4851  0.6510 -1.1286
 2383TIP3    H2 7114   2.838   6.770   5.336  1.0797  0.2645  1.7449
 2384TIP3   OH2 7115   5.563   4.745   5.107 -0.3957 -0.1310 -0.5287
 2384TIP3    H1 7116   5.470   4.728   5.090 -0.4187  1.3016 -2.0876
 2384TIP3    H2 7117   5.568   4.761   5.201 -1.8343  0.3285 -0.5035
 2385TIP3   OH2 7118   0.459   1.609   2.952  0.3033 -0.1402  0.1773
 2385TIP3    H1 7119   0.482   1.552   3.026 -0.2257 -0.8294 -0.1884
 2385TIP3    H2 7120   0.539   1.613   2.900  0.7274  0.4634  0.8418
 2386TIP3   OH2 7121   7.038   3.131   2.722 -0.8249  0.1383 -0.0878
 2386TIP3    H1 7122   7.053   3.216   2.762 -1.2090  0.8151 -1.3365
 2386TIP3    H2 7123   6.992   3.150   2.640  1.6356 -0.9836 -1.8574
 2387TIP3   OH2 7124   5.507   3.793   5.219 -0.2191  0.3299  1.1273
 2387TIP3    H1 7125   5.453   3.715   5.220  0.0153  0.1522  0.4695
 2387TIP3    H2 7126   5.478   3.842   5.142  1.0813 -0.1504  0.3051
 2388TIP3   OH2 7127   5.994   0.817   5.257 -0.4082  0.5513  0.4509
 2388TIP3    H1 7128   5.989   0.878   5.330  2.2661  0.4457  0.8243
 2388TIP3    H2 7129   6.022   0.734   5.296 -0.9863 -0.0891 -0.4444
 2389TIP3   OH2 7130   1.891   1.040   3.931 -0.0095 -0.1355  0.2468
 2389TIP3    H1 7131   1.866   0.948   3.917  0.0715 -0.4348  1.8479
 2389TIP3    H2 7132   1.986   1.039   3.937 -0.0170  0.0291  0.4045
 2390TIP3   OH2 7133   1.795   3.949   5.216  0.4719 -0.0213 -0.2623
 2390TIP3    H1 7134   1.880   3.993   5.219  0.3577  0.1865 -0.0318
 2390TIP3    H2 7135   1.760   3.971   5.130  0.6908 -0.1836 -0.3941
 2391TIP3   OH2 7136   5.239   4.102   2.668  0.3328 -0.2657  0.3179
 2391TIP3    H1 7137   5.153   4.059   2.661  0.1449  0.1795 -0.1700
 2391TIP3    H2 7138   5.226   4.188   2.628  1.3428 -0.6667 -0.9379
 2392TIP3   OH2 7139   6.616   1.785   0.513 -0.1051  0.8381 -0.1575
 2392TIP3    H1 7140   6.527   1.776   0.547 -1.4842 -0.3113 -3.6795
 2392TIP3    H2 7141   6.607   1.842   0.436  1.5303 -1.8365 -2.4978
 2393TIP3   OH2 7142   6.123   5.962   1.526 -0.0582  0.5018  0.0287
 2393TIP3    H1 7143   6.139   5.878   1.568 -1.2381 -0.5436 -1.5190
 2393TIP3    H2 7144   6.058   6.005   1.582 -1.8559 -1.0018 -0.8252
 2394TIP3   OH2 7145   2.994   2.317   1.248 -0.5677 -0.0805 -0.5977
 2394TIP3    H1 7146   3.062   2.384   1.246 -0.1476 -0.5089 -1.1532
 2394TIP3    H2 7147   3.027   2.248   1.190  0.1704 -1.9133  1.8448
 2395TIP3   OH2 7148   2.799   6.766   4.443  0.7454  0.0119  0.6662
 2395TIP3    H1 7149   2.883   6.740   4.481  0.1940 -1.0539  1.1918
 2395TIP3    H2 7150   2.744   6.689   4.452 -0.6145  1.0286  1.2622
 2396TIP3   OH2 7151   2.976   1.808   5.089 -0.2167 -1.1746  0.2933
 2396TIP3    H1 7152   2.945   1.774   5.006  1.8592  3.1277 -2.6327
 2396TIP3    H2 7153   2.909   1.871   5.115 -0.3360 -1.7235  1.3669
 2397TIP3   OH2 7154   4.407   2.047   4.505 -0.0957 -0.0824  0.3015
 2397TIP3    H1 7155   4.401   1.958   4.469  0.6266  0.3717 -1.0069
 2397TIP3    H2 7156   4.370   2.103   4.437 -0.7957  0.6046  1.2352
 2398TIP3   OH2 7157   0.877   4.312   2.668 -0.2341 -0.3614  0.5303
 2398TIP3    H1 7158   0.788   4.327   2.635 -0.5464 -3.0474 -0.0174
 2398TIP3    H2 7159   0.914   4.247   2.609  1.2151 -1.1364  2.2178
 2399TIP3   OH2 7160   4.041   4.913   1.217  0.9364  0.5780 -0.3638
 2399TIP3    H1 7161   4.076   4.925   1.129  1.4089 -1.0631 -0.4277
 2399TIP3    H2 7162   4.074   4.828   1.245 -0.4156  0.4003  0.8279
 2400TIP3   OH2 7163   4.384   0.910   1.022  0.5358  0.1749 -0.6096
 2400TIP3    H1 7164   4.374   0.848   0.950  0.8838 -0.8812  0.2161
 2400TIP3    H2 7165   4.327   0.875   1.091 -0.0799  1.3694 -0.4896
 2401TIP3   OH2 7166   7.015   5.796   1.819  0.1393 -0.1927  0.2049
 2401TIP3    H1 7167   6.941   5.773   1.876 -1.1517 -0.1787 -1.3961
 2401TIP3    H2 7168   7.035   5.716   1.771  0.7261 -0.0087  0.1284
 2402TIP3   OH2 7169   0.374   6.553   0.538  0.3330  0.3016  0.4702
 2402TIP3    H1 7170   0.447   6.602   0.576  0.6789 -0.2434  0.5236
 2402TIP3    H2 7171   0.342   6.608   0.467  1.7170 -0.0904 -0.4771
 2403TIP3   OH2 7172   0.206   4.785   2.739  0.2802  0.4112 -0.0055
 2403TIP3    H1 7173   0.178   4.695   2.723 -0.3788  0.7752 -0.9376
 2403TIP3    H2 7174   0.239   4.783   2.829 -1.2169 -0.4132  0.5719
 2404TIP3   OH2 7175   3.145   1.765   1.749 -0.5049  0.1880 -0.3962
 2404TIP3    H1 7176   3.115   1.781   1.839  1.9021 -2.5785  1.0834
 2404TIP3    H2 7177   3.217   1.826   1.737  0.3313 -0.6354  0.2920
 2405TIP3   OH2 7178   0.946   4.631   2.942 -0.1459 -0.0422 -0.5726
 2405TIP3    H1 7179   1.004   4.592   2.877  1.1876 -1.9085  1.5612
 2405TIP3    H2 7180   0.870   4.574   2.945  0.1135 -0.3693 -0.0388
 2406TIP3   OH2 7181   2.771   3.774   4.789 -0.4245 -0.4537  0.0275
 2406TIP3    H1 7182   2.813   3.739   4.867  1.6936 -0.5159 -1.0553
 2406TIP3    H2 7183   2.748   3.698   4.737 -0.7481 -0.3842  0.0687
 2407TIP3   OH2 7184   5.794   2.060   0.036 -0.4390  0.0236  0.0659
 2407TIP3    H1 7185   5.731   1.995   0.003  0.3444  0.0203 -1.5003
 2407TIP3    H2 7186   5.862   2.008   0.078 -1.0140 -0.0107  1.0048
 2408TIP3   OH2 7187   6.513   2.482   0.755  0.2653  0.2204 -0.4238
 2408TIP3    H1 7188   6.556   2.530   0.825 -0.1527  0.1511 -0.1190
 2408TIP3    H2 7189   6.422   2.473   0.783  0.4200 -1.1296 -0.2706
 2409TIP3   OH2 7190   3.075   5.100   0.804  0.3571  0.3953  0.0614
 2409TIP3    H1 7191   3.094   5.055   0.886  0.9210  1.4439  0.5286
 2409TIP3    H2 7192   2.988   5.069   0.779  1.9484 -3.5203 -1.4474
 2410TIP3   OH2 7193   4.090  -0.008   5.122 -0.0422  0.1642  0.1167
 2410TIP3    H1 7194   4.140   0.028   5.195  0.6663 -0.2883 -0.1412
 2410TIP3    H2 7195   4.012   0.047   5.118 -0.0571  0.2363  1.1679
 2411TIP3   OH2 7196   3.905   1.178   4.743 -0.7401  0.1716 -0.3006
 2411TIP3    H1 7197   3.849   1.219   4.678  1.0219 -0.3299 -2.2502
 2411TIP3    H2 7198   3.972   1.244   4.762 -0.7167 -0.0256  0.3284
 2412TIP3   OH2 7199   2.084   4.685   1.572  0.4450  0.2659  0.0721
 2412TIP3    H1 7200   2.058   4.772   1.543  2.2115  0.9072  0.3352
 2412TIP3    H2 7201   2.107   4.696   1.665  0.9561 -0.4130  0.0358
 2413TIP3   OH2 7202   0.037   1.601   0.471 -0.1452 -0.1721  0.2170
 2413TIP3    H1 7203   0.118   1.619   0.518 -0.7971 -0.2989  1.4306
 2413TIP3    H2 7204  -0.022   1.565   0.538 -0.6846 -1.5874 -0.9565
 2414TIP3   OH2 7205   5.473   6.425   0.988 -0.3491 -0.2668 -0.1232
 2414TIP3    H1 7206   5.546   6.393   1.040  0.3915  0.3989 -0.7264
 2414TIP3    H2 7207   5.472   6.519   1.003 -3.6774 -0.6021  3.1167
 2415TIP3   OH2 7208   3.563   0.164   3.117  0.0678 -0.0302  0.0944
 2415TIP3    H1 7209   3.487   0.119   3.080 -1.3234  1.3144  1.1985
 2415TIP3    H2 7210   3.536   0.187   3.206  1.5173  1.0917  0.2794
 2416TIP3   OH2 7211   0.733   6.626   1.866  0.8766  0.6644  0.5959
 2416TIP3    H1 7212   0.648   6.643   1.906  0.6734  0.9470  0.0597
 2416TIP3    H2 7213   0.776   6.566   1.926  0.2049  0.3286  0.7553
 2417TIP3   OH2 7214   5.200   4.981   0.923 -0.5879 -0.2760  0.1540
 2417TIP3    H1 7215   5.150   5.034   0.986  1.0666  1.3030  0.2089
 2417TIP3    H2 7216   5.219   4.900   0.970 -3.2419 -1.0704  0.0411
 2418TIP3   OH2 7217   5.866   6.367   5.242  0.0872 -0.2768 -0.2921
 2418TIP3    H1 7218   5.831   6.437   5.188 -0.3523  0.0991  0.4714
 2418TIP3    H2 7219   5.789   6.320   5.274  0.3988 -1.9994 -1.9268
 2419TIP3   OH2 7220   3.381   2.147   5.503 -0.1381  0.1564  0.3880
 2419TIP3    H1 7221   3.409   2.231   5.540  0.7336 -0.1672  0.4767
 2419TIP3    H2 7222   3.462   2.100   5.485 -0.5870 -0.2935 -0.5470
 2420TIP3   OH2 7223   0.963   0.293   0.479  0.5810 -0.8928  0.0016
 2420TIP3    H1 7224   0.934   0.335   0.560  1.3432 -2.6531  1.2718
 2420TIP3    H2 7225   0.967   0.364   0.415  0.3200  0.6458  1.5995
 2421TIP3   OH2 7226   5.879   0.287   1.162  0.3552 -0.1039  0.0973
 2421TIP3    H1 7227   5.784   0.286   1.156  0.4161  0.2584 -1.1318
 2421TIP3    H2 7228   5.908   0.339   1.087  1.4033  3.1434  2.5212
 2422TIP3   OH2 7229   3.831   3.006   3.406  0.0573  0.3844 -1.0286
 2422TIP3    H1 7230   3.866   3.074   3.463  1.4675 -0.9702 -0.2011
 2422TIP3    H2 7231   3.857   3.033   3.318 -1.1656  1.9177 -0.9726
 2423TIP3   OH2 7232   4.644   4.224   2.563 -0.2942  0.1461  0.1037
 2423TIP3    H1 7233   4.658   4.139   2.606 -2.5819 -0.2534  0.1793
 2423TIP3    H2 7234   4.663   4.207   2.471  1.9837  0.3246  0.4627
 2424TIP3   OH2 7235   1.934   4.305   1.316  0.3963 -0.5307 -0.0799
 2424TIP3    H1 7236   1.938   4.233   1.253  0.5075 -0.9261  0.3720
 2424TIP3    H2 7237   1.865   4.362   1.283 -0.2922 -1.2931  0.0245
 2425TIP3   OH2 7238   2.124   6.202   2.008 -0.4226 -0.1928  0.6480
 2425TIP3    H1 7239   2.194   6.137   2.010  0.5939  0.8780  1.0029
 2425TIP3    H2 7240   2.157   6.272   1.951 -1.0971  0.4481  1.0210
 2426TIP3   OH2 7241   7.033   0.844   2.102  1.2079  0.4240 -0.0249
 2426TIP3    H1 7242   7.086   0.915   2.065  1.7154  0.9709  1.6316
 2426TIP3    H2 7243   7.024   0.868   2.195 -1.3422 -0.0380 -0.0878
 2427TIP3   OH2 7244   0.685   5.270   2.731  0.7469 -0.4117 -0.3397
 2427TIP3    H1 7245   0.729   5.280   2.647 -1.2267 -0.4406 -1.4568
 2427TIP3    H2 7246   0.624   5.197   2.717 -0.0248 -0.0429  0.9344
 2428TIP3   OH2 7247   0.116   0.541   5.044  0.6057  0.1533 -0.1741
 2428TIP3    H1 7248   0.157   0.620   5.009  0.8842  0.8190  1.5562
 2428TIP3    H2 7249   0.026   0.545   5.013  0.4432  1.5114  0.3835
 2429TIP3   OH2 7250   0.831   4.843   4.993 -0.6709  0.1916  0.3191
 2429TIP3    H1 7251   0.753   4.788   4.997 -0.6713  0.2433  1.2738
 2429TIP3    H2 7252   0.838   4.881   5.081  1.4420 -1.2029  0.8118
 2430TIP3   OH2 7253   6.216   6.585   1.603 -0.2521  0.2087  0.2434
 2430TIP3    H1 7254   6.188   6.511   1.549  1.3630  1.0733 -1.9667
 2430TIP3    H2 7255   6.307   6.565   1.627 -0.2979  0.7831  0.9362
 2431TIP3   OH2 7256   4.475   1.944   5.309  0.1435 -0.1042  0.3371
 2431TIP3    H1 7257   4.412   2.000   5.263  1.0147  0.3402 -0.3547
 2431TIP3    H2 7258   4.536   1.916   5.240  1.1699  0.1349  1.1316
 2432TIP3   OH2 7259   3.874   6.056   5.040 -0.0100  0.1268  0.1237
 2432TIP3    H1 7260   3.931   6.117   5.086 -0.8476  0.5716  0.5952
 2432TIP3    H2 7261   3.786   6.077   5.070 -0.2532 -1.9165  1.0109
 2433TIP3   OH2 7262   2.131   3.577   3.490  0.2625  0.6060 -0.6605
 2433TIP3    H1 7263   2.110   3.517   3.561 -1.0460  0.9936 -0.6899
 2433TIP3    H2 7264   2.048   3.589   3.444  0.7836  1.4516 -1.4064
 2434TIP3   OH2 7265   6.370   0.588   3.537 -0.2252 -0.0324 -0.3985
 2434TIP3    H1 7266   6.379   0.493   3.528 -0.5395 -0.1878  0.8314
 2434TIP3    H2 7267   6.326   0.615   3.456 -0.6300 -0.9996 -0.5226
 2435TIP3   OH2 7268   1.861   4.258   5.297 -0.3500 -0.0649 -0.6880
 2435TIP3    H1 7269   1.861   4.256   5.393 -0.9656  1.2087 -0.6522
 2435TIP3    H2 7270   1.937   4.205   5.273  0.7567  0.8932  0.5402
 2436TIP3   OH2 7271   1.074   4.142   5.545 -0.1340  0.6258  1.0045
 2436TIP3    H1 7272   1.001   4.086   5.571 -0.7110  0.8902 -0.0078
 2436TIP3    H2 7273   1.107   4.103   5.464  1.0926  0.3015  1.6292
 2437TIP3   OH2 7274   6.759   0.835   3.199 -0.2652  0.1278 -0.2451
 2437TIP3    H1 7275   6.804   0.754   3.220 -0.3966  0.1074 -0.0418
 2437TIP3    H2 7276   6.816   0.904   3.232  0.4591  0.1740 -1.5322
 2438TIP3   OH2 7277   2.969   1.266   0.426  0.3195 -0.0775 -0.2595
 2438TIP3    H1 7278   3.007   1.337   0.478  1.5836 -1.1096  0.3069
 2438TIP3    H2 7279   2.878   1.262   0.454  0.2770  1.1908 -0.1746
 2439TIP3   OH2 7280   5.924   4.051   4.792  0.1209 -0.4011  0.5321
 2439TIP3    H1 7281   5.988   3.999   4.840 -0.8177  0.3866  2.7974
 2439TIP3    H2 7282   5.878   3.988   4.736  0.6494 -1.5460  1.3573
 2440TIP3   OH2 7283   2.597   4.010   2.164 -0.1461 -0.4351  0.1470
 2440TIP3    H1 7284   2.556   4.066   2.098 -2.7158 -0.5562  1.4930
 2440TIP3    H2 7285   2.689   4.037   2.165 -0.4524  0.9080 -2.0692
 2441TIP3   OH2 7286   5.254   6.440   5.717 -0.3181 -0.0060 -0.1172
 2441TIP3    H1 7287   5.306   6.383   5.774 -0.1434  1.0118  0.7718
 2441TIP3    H2 7288   5.226   6.383   5.645  1.3298 -0.7702 -0.1862
 2442TIP3   OH2 7289   0.567   6.507   0.135 -0.0127  0.3715 -0.1798
 2442TIP3    H1 7290   0.494   6.497   0.073  0.5062 -0.2197 -0.7155
 2442TIP3    H2 7291   0.640   6.459   0.094  0.2834 -0.2254  0.9909
 2443TIP3   OH2 7292   1.061   6.190   5.685  0.3498 -0.7800 -0.3859
 2443TIP3    H1 7293   1.122   6.256   5.652 -0.1251 -0.5081 -0.7251
 2443TIP3    H2 7294   1.045   6.216   5.776  1.4761 -1.3985  0.0138
 2444TIP3   OH2 7295   6.474   5.340   3.739  0.0881 -0.1650  0.3148
 2444TIP3    H1 7296   6.522   5.420   3.717  0.7580 -0.4787  0.6195
 2444TIP3    H2 7297   6.411   5.367   3.806  1.1695 -0.1308  1.3526
 2445TIP3   OH2 7298   1.084   6.266   1.561  0.3218  0.7425 -0.2679
 2445TIP3    H1 7299   1.036   6.209   1.501 -0.2320  1.8732 -0.9264
 2445TIP3    H2 7300   1.020   6.288   1.630  0.9409 -0.5174  0.7575
 2446TIP3   OH2 7301   3.032   1.034   0.287 -0.2378 -0.3051 -0.0388
 2446TIP3    H1 7302   2.953   0.981   0.299 -0.5876  0.5554  1.9133
 2446TIP3    H2 7303   3.009   1.119   0.324  0.0408  1.5538 -3.7247
 2447TIP3   OH2 7304   2.227   2.696   1.807  0.8046 -0.2891 -0.2437
 2447TIP3    H1 7305   2.239   2.602   1.804  0.7453 -0.3456  0.8636
 2447TIP3    H2 7306   2.150   2.709   1.861  0.2435  0.3664 -1.1733
 2448TIP3   OH2 7307   4.902   3.430   3.644  0.2033 -0.0636  0.0995
 2448TIP3    H1 7308   4.839   3.493   3.679  1.3551  0.1615  1.8944
 2448TIP3    H2 7309   4.912   3.456   3.553 -1.2645  0.7419  0.1198
 2449TIP3   OH2 7310   3.897   2.295   4.741  0.4769 -0.2990 -0.1553
 2449TIP3    H1 7311   3.845   2.218   4.717 -0.7810  1.4198 -3.6682
 2449TIP3    H2 7312   3.833   2.359   4.771  0.7267  1.0862 -2.3676
 2450TIP3   OH2 7313   6.283   0.256   0.869  0.0035 -0.2953 -0.4250
 2450TIP3    H1 7314   6.349   0.324   0.858  0.2462 -0.7831 -2.3612
 2450TIP3    H2 7315   6.333   0.178   0.895 -0.0825 -0.1572  0.1757
 2451TIP3   OH2 7316   0.815   1.488   1.443  0.1373 -0.3210 -0.4338
 2451TIP3    H1 7317   0.806   1.568   1.391  0.6707  0.2235  0.2886
 2451TIP3    H2 7318   0.782   1.418   1.386  0.3250  0.3148 -1.3457
 2452TIP3   OH2 7319   4.741   4.625   0.938  0.3993  0.1299  0.1507
 2452TIP3    H1 7320   4.779   4.608   1.024 -0.5804  0.2495  0.6241
 2452TIP3    H2 7321   4.745   4.541   0.892  0.7923  0.0307  0.3624
 2453TIP3   OH2 7322   0.540   4.373   1.134  0.4358 -0.4041  0.3813
 2453TIP3    H1 7323   0.634   4.378   1.154  0.5761 -1.9905  0.2311
 2453TIP3    H2 7324   0.513   4.289   1.169 -1.0316  0.1772  0.7083
 2454TIP3   OH2 7325   2.713   6.519   1.126  0.4679 -0.3581 -0.4361
 2454TIP3    H1 7326   2.803   6.505   1.157  0.2176 -0.3079  0.3358
 2454TIP3    H2 7327   2.696   6.612   1.142 -0.3728 -0.7474  1.2609
 2455TIP3   OH2 7328   4.845   0.983   2.083  0.0356 -0.1514 -0.1223
 2455TIP3    H1 7329   4.781   0.937   2.029 -0.5929  0.4110  0.1288
 2455TIP3    H2 7330   4.895   1.037   2.022 -0.8999  0.7466 -0.1213
 2456TIP3   OH2 7331   2.318   1.948   3.633  0.2865 -0.1011 -0.6714
 2456TIP3    H1 7332   2.262   1.995   3.572 -0.7014 -0.6251 -0.1990
 2456TIP3    H2 7333   2.394   1.921   3.581 -0.4661 -0.4168 -1.6391
 2457TIP3   OH2 7334   0.065   3.810   0.551  0.1329  0.0316 -0.2804
 2457TIP3    H1 7335   0.148   3.849   0.522 -0.2399  1.5640  0.5776
 2457TIP3    H2 7336   0.011   3.885   0.576 -1.2221 -0.9839 -0.0261
 2458TIP3   OH2 7337   5.608   0.066   0.264 -0.3275 -0.0237 -0.0563
 2458TIP3    H1 7338   5.605   0.146   0.316 -1.2712  0.5265 -0.9072
 2458TIP3    H2 7339   5.599  -0.005   0.328 -1.9749  0.6453  0.5208
 2459TIP3   OH2 7340   2.987   3.343   3.987  0.3439 -0.2711  0.4253
 2459TIP3    H1 7341   2.986   3.405   4.060  0.8359 -0.7411  0.8364
 2459TIP3    H2 7342   3.074   3.305   3.989  0.9419  0.8949 -1.4331
 2460TIP3   OH2 7343   3.667   2.233   3.186 -0.6822 -0.1391 -0.4420
 2460TIP3    H1 7344   3.746   2.285   3.200 -0.8314  0.3672 -1.3533
 2460TIP3    H2 7345   3.655   2.185   3.267 -0.5568  1.2766  0.4416
 2461TIP3   OH2 7346   6.149   4.431   2.676  0.4475  0.2736  0.3901
 2461TIP3    H1 7347   6.216   4.495   2.698  0.4543  0.2642  0.3963
 2461TIP3    H2 7348   6.067   4.481   2.679  0.4856  0.3567  0.0792
 2462TIP3   OH2 7349   3.396   0.952   5.262  0.4654 -0.2166 -0.1612
 2462TIP3    H1 7350   3.373   1.045   5.266  1.6702  0.0900  0.0430
 2462TIP3    H2 7351   3.316   0.906   5.289  0.5773  0.8442  2.1494
 2463TIP3   OH2 7352   4.222   0.417   1.567 -0.1646 -0.2078 -0.2656
 2463TIP3    H1 7353   4.244   0.413   1.474  0.1048  0.5461 -0.2377
 2463TIP3    H2 7354   4.152   0.352   1.578  0.1751 -0.6878 -0.8851
 2464TIP3   OH2 7355   1.082   1.446   2.626  0.0849 -0.4739  0.0604
 2464TIP3    H1 7356   1.141   1.466   2.553  0.1736  0.5272  0.3931
 2464TIP3    H2 7357   0.997   1.479   2.598 -0.5373 -2.5537 -0.7193
 2465TIP3   OH2 7358   4.808   0.972   1.680 -0.0881 -0.0793  0.2190
 2465TIP3    H1 7359   4.720   0.971   1.642  0.0972  2.4396 -0.4349
 2465TIP3    H2 7360   4.800   0.919   1.760 -2.3398  0.5348  0.4611
 2466TIP3   OH2 7361   5.788   2.494   2.300  0.0921  0.4480  0.1678
 2466TIP3    H1 7362   5.718   2.507   2.236 -0.0234  1.1845  0.4279
 2466TIP3    H2 7363   5.802   2.399   2.303  1.4297  0.4598 -2.3894
 2467TIP3   OH2 7364   2.960   3.804   3.532 -0.6416  0.1143 -0.2165
 2467TIP3    H1 7365   2.926   3.890   3.555 -2.1770 -0.3312 -0.7521
 2467TIP3    H2 7366   2.886   3.744   3.542 -0.1609 -0.8245 -1.8256
 2468TIP3   OH2 7367   1.093   0.713   0.347  0.5158  0.3990 -0.4005
 2468TIP3    H1 7368   1.028   0.644   0.333  0.6189  0.2258 -0.0283
 2468TIP3    H2 7369   1.042   0.794   0.350  0.5009  0.4767 -1.9762
 2469TIP3   OH2 7370   4.428   0.561   4.941 -0.3059  0.2283  0.1463
 2469TIP3    H1 7371   4.380   0.628   4.892  2.4099  1.7951 -0.6419
 2469TIP3    H2 7372   4.492   0.610   4.993  0.6113 -1.6786  0.9401
 2470TIP3   OH2 7373   3.869   2.388   4.098 -0.1454 -0.2875 -0.5850
 2470TIP3    H1 7374   3.861   2.472   4.144  0.1761 -0.3093 -0.4851
 2470TIP3    H2 7375   3.799   2.389   4.034 -0.2008  0.0213 -0.5228
 2471TIP3   OH2 7376   7.050   0.084   3.823 -0.2981  0.0297 -0.2808
 2471TIP3    H1 7377   7.004   0.167   3.832 -0.6866 -0.3454  1.8048
 2471TIP3    H2 7378   7.091   0.070   3.909  2.1279 -0.5879 -1.4332
 2472TIP3   OH2 7379   3.474   3.248   1.540 -0.3264  0.1985 -0.5686
 2472TIP3    H1 7380   3.535   3.309   1.499 -1.2734 -0.1474 -2.6222
 2472TIP3    H2 7381   3.388   3.274   1.506 -0.8949 -1.4680 -0.4832
 2473TIP3   OH2 7382   5.232   5.566   5.228  0.3649  0.0137  0.1146
 2473TIP3    H1 7383   5.137   5.566   5.241  0.4384 -2.5183  1.3392
 2473TIP3    H2 7384   5.244   5.541   5.137 -0.1120  0.3814 -0.0588
 2474TIP3   OH2 7385   6.616   1.963   0.956 -0.1784 -0.4179  0.0173
 2474TIP3    H1 7386   6.538   1.972   1.010 -0.3679  0.6161 -0.4192
 2474TIP3    H2 7387   6.685   2.007   1.006 -0.6522  1.8116 -1.1598
 2475TIP3   OH2 7388   6.705   0.591   4.999  0.0801 -0.0378  0.0127
 2475TIP3    H1 7389   6.765   0.562   5.068 -0.1948 -0.1608  0.2024
 2475TIP3    H2 7390   6.743   0.559   4.918 -0.2876 -1.0516  0.2287
 2476TIP3   OH2 7391   5.953   0.312   5.686  0.1438 -0.2078 -0.1595
 2476TIP3    H1 7392   5.943   0.237   5.744  0.2193  0.4119  0.6780
 2476TIP3    H2 7393   6.000   0.377   5.739  0.0654  0.4350 -0.8606
 2477TIP3   OH2 7394   6.789   3.658   3.783  0.4830  0.7843  0.3586
 2477TIP3    H1 7395   6.696   3.635   3.781  0.1553  2.0989 -0.7278
 2477TIP3    H2 7396   6.804   3.690   3.871 -0.3081  1.3726  0.2928
 2478TIP3   OH2 7397   0.221   6.559   4.401  0.4904  0.1252  0.0533
 2478TIP3    H1 7398   0.179   6.599   4.478  0.6136  0.8765 -0.2646
 2478TIP3    H2 7399   0.234   6.468   4.426 -0.2268  0.1666  0.6165
 2479TIP3   OH2 7400   0.357   6.719   0.282 -0.1754 -0.5180 -0.4336
 2479TIP3    H1 7401   0.427   6.682   0.229 -0.7936  0.5015 -2.0298
 2479TIP3    H2 7402   0.396   6.798   0.321 -0.5336  0.3293 -1.7234
 2480TIP3   OH2 7403   5.764   4.927   2.912  0.4221  0.6009 -0.1074
 2480TIP3    H1 7404   5.855   4.902   2.898  0.0832 -0.7174 -0.1444
 2480TIP3    H2 7405   5.715   4.875   2.848 -0.4483  0.4095  0.6934
 2481TIP3   OH2 7406   0.594   4.015   4.385 -0.1222 -0.5895  0.0021
 2481TIP3    H1 7407   0.594   3.921   4.403 -0.0158 -0.7487 -0.7961
 2481TIP3    H2 7408   0.510   4.032   4.343 -0.6272 -0.1141  1.1437
 2482TIP3   OH2 7409   1.277   1.375   5.510 -0.2067 -0.6628  0.3876
 2482TIP3    H1 7410   1.299   1.301   5.567  0.2676 -1.0945 -0.3427
 2482TIP3    H2 7411   1.343   1.442   5.530  0.5508 -1.1774 -0.3263
 2483TIP3   OH2 7412   0.833   5.884   1.223  0.0194  0.2736  0.0289
 2483TIP3    H1 7413   0.860   5.882   1.315 -0.8911 -1.3787  0.3094
 2483TIP3    H2 7414   0.784   5.802   1.211 -1.4344  1.2845 -1.4475
 2484TIP3   OH2 7415   2.159   3.811   5.002 -0.8203  0.4995  0.0882
 2484TIP3    H1 7416   2.176   3.842   4.913  0.5505  0.1746  0.2255
 2484TIP3    H2 7417   2.215   3.864   5.058  1.1525 -1.7412  0.3818
 2485TIP3   OH2 7418   1.185   0.980   1.165  0.3023 -0.5126 -0.1214
 2485TIP3    H1 7419   1.168   0.999   1.257  0.4664 -1.1335  0.0387
 2485TIP3    H2 7420   1.227   1.059   1.132 -1.4503  0.4704 -0.1431
 2486TIP3   OH2 7421   4.769   0.121   2.863 -0.4069 -0.0452 -0.7149
 2486TIP3    H1 7422   4.749   0.148   2.774  2.3674  1.1472 -1.0733
 2486TIP3    H2 7423   4.715   0.044   2.877 -1.5286  0.2182 -3.1271
 2487TIP3   OH2 7424   6.668   4.919   0.091  0.1964  0.8275  0.4865
 2487TIP3    H1 7425   6.621   5.002   0.100 -1.6393 -0.0142 -0.5999
 2487TIP3    H2 7426   6.653   4.894  -0.001  0.1111 -1.0130  0.9685
 2488TIP3   OH2 7427   6.715   5.467   0.386 -0.6156  1.0444  0.1411
 2488TIP3    H1 7428   6.668   5.462   0.470 -0.5095  2.2305  0.2962
 2488TIP3    H2 7429   6.646   5.472   0.320 -0.7226  2.2036  0.3255
 2489TIP3   OH2 7430   6.425   0.321   3.473  0.4433 -0.1361  0.0014
 2489TIP3    H1 7431   6.404   0.244   3.421 -0.0163  0.4076 -0.6450
 2489TIP3    H2 7432   6.381   0.307   3.556 -0.5382 -0.0931 -0.4960
 2490TIP3   OH2 7433   6.355   3.648   3.559  0.3459  0.1615 -0.1307
 2490TIP3    H1 7434   6.288   3.677   3.621  0.3856 -1.2517  0.6226
 2490TIP3    H2 7435   6.436   3.650   3.610  1.1396  2.8278 -1.3135
 2491TIP3   OH2 7436   4.385   2.459   5.061  0.2293 -0.1801  0.2278
 2491TIP3    H1 7437   4.445   2.472   4.988  0.9475 -0.7897  0.7012
 2491TIP3    H2 7438   4.329   2.386   5.034 -0.2391  0.3180 -0.1675
 2492TIP3   OH2 7439   2.593   1.164   5.230 -0.3717  0.3703  0.3371
 2492TIP3    H1 7440   2.590   1.258   5.251 -0.8930  0.2286  0.9257
 2492TIP3    H2 7441   2.523   1.152   5.166 -1.9324 -0.0290  2.0413
 2493TIP3   OH2 7442   4.644   3.471   3.463  0.4008  0.2067  0.0818
 2493TIP3    H1 7443   4.617   3.563   3.471  1.0764  0.3804  0.4636
 2493TIP3    H2 7444   4.731   3.475   3.425 -0.0587 -0.3467 -1.0652
 2494TIP3   OH2 7445   5.367   6.173   0.009 -0.1337  0.2137 -0.5915
 2494TIP3    H1 7446   5.418   6.249   0.037 -1.1781  0.3295  1.1726
 2494TIP3    H2 7447   5.395   6.103   0.069 -0.0745 -0.4587 -1.3977
 2495TIP3   OH2 7448   4.165   5.864   0.962  0.5913 -0.3152  0.0901
 2495TIP3    H1 7449   4.154   5.902   0.875  0.5503 -0.2992  0.1021
 2495TIP3    H2 7450   4.163   5.939   1.022  0.5997 -0.3280  0.1065
 2496TIP3   OH2 7451   5.734   2.451   1.113 -0.3867 -0.4077  0.4558
 2496TIP3    H1 7452   5.800   2.442   1.044 -1.9845 -0.9449 -1.0481
 2496TIP3    H2 7453   5.732   2.544   1.132  1.0740 -0.4181  0.8316
 2497TIP3   OH2 7454   4.362   6.439   1.300  0.0224 -0.3381  0.0759
 2497TIP3    H1 7455   4.358   6.534   1.285 -0.8576 -0.3473  0.1784
 2497TIP3    H2 7456   4.446   6.425   1.343  0.7677  0.2209 -1.1410
 2498TIP3   OH2 7457   5.999   2.649   4.067 -0.5491  0.6846 -0.2621
 2498TIP3    H1 7458   5.999   2.624   4.160  0.1847  0.3507 -0.3426
 2498TIP3    H2 7459   5.975   2.742   4.067 -1.3379  0.4891  0.1978
 2499TIP3   OH2 7460   6.986   4.418   1.380  0.7557 -0.1988  0.2657
 2499TIP3    H1 7461   7.026   4.464   1.306  1.0698  0.6220  0.9271
 2499TIP3    H2 7462   7.037   4.337   1.388 -0.0446 -0.8662 -1.1482
 2500TIP3   OH2 7463   3.188   0.378   3.106  0.1621 -0.2485  0.0164
 2500TIP3    H1 7464   3.122   0.333   3.053  2.4560 -0.9554 -2.4654
 2500TIP3    H2 7465   3.186   0.333   3.190 -2.0079 -0.6524 -0.1735
 2501TIP3   OH2 7466   5.592   2.549   0.777  0.4111  0.2181 -0.3416
 2501TIP3    H1 7467   5.684   2.523   0.785 -0.1937 -2.1687 -0.2565
 2501TIP3    H2 7468   5.577   2.554   0.683  0.2049 -1.2505 -0.4105
 2502TIP3   OH2 7469   3.134   2.022   5.030 -0.1715 -0.1177  0.1326
 2502TIP3    H1 7470   3.100   1.933   5.042 -1.5073  0.0571 -1.9400
 2502TIP3    H2 7471   3.097   2.051   4.947  0.8169  2.1351  0.4128
 2503TIP3   OH2 7472   4.562   3.023   3.071 -0.0212  0.2123  0.0736
 2503TIP3    H1 7473   4.574   2.933   3.102  1.7203  0.9134  1.6099
 2503TIP3    H2 7474   4.651   3.058   3.066 -0.4663  1.1822 -2.7609
 2504TIP3   OH2 7475   5.786   0.042   0.862 -0.2526 -0.0161  0.4217
 2504TIP3    H1 7476   5.796   0.107   0.793  1.8119 -0.8380 -0.1215
 2504TIP3    H2 7477   5.866  -0.010   0.858 -1.4538 -2.0689  1.3773
 2505TIP3   OH2 7478   0.881   0.021   4.936 -0.9643  0.0455  0.3125
 2505TIP3    H1 7479   0.936   0.096   4.959 -0.5377 -0.3945  0.7763
 2505TIP3    H2 7480   0.806   0.059   4.891 -0.5755  0.7153  0.2139
 2506TIP3   OH2 7481   1.285   6.706   3.716 -0.8109 -0.2361  0.2281
 2506TIP3    H1 7482   1.217   6.643   3.691 -0.9254 -0.0746  0.1349
 2506TIP3    H2 7483   1.236   6.784   3.743 -0.6652  1.2742 -3.3291
 2507TIP3   OH2 7484   2.657   2.945   0.379 -0.5685  0.2550 -0.3116
 2507TIP3    H1 7485   2.598   2.877   0.346 -3.4971  3.0399 -1.2840
 2507TIP3    H2 7486   2.713   2.965   0.304  1.4673 -2.0479  0.4638
 2508TIP3   OH2 7487   2.981   2.455   3.182  0.4864  0.0951 -0.4683
 2508TIP3    H1 7488   2.891   2.485   3.192  0.6359  0.1326  1.1677
 2508TIP3    H2 7489   2.982   2.367   3.221  1.5677  0.9719  1.7092
 2509TIP3   OH2 7490   3.438   5.393   3.496  0.4033  0.3243  0.0724
 2509TIP3    H1 7491   3.449   5.466   3.556  0.4401  1.4153 -1.2057
 2509TIP3    H2 7492   3.404   5.433   3.415  0.6402 -1.0317 -0.7363
 2510TIP3   OH2 7493   2.857   5.530   0.070  0.0429 -0.1797 -0.3272
 2510TIP3    H1 7494   2.851   5.465   0.139  2.6198 -0.2366 -0.0331
 2510TIP3    H2 7495   2.852   5.480  -0.011  1.3695 -0.7050 -0.1052
 2511TIP3   OH2 7496   4.363   6.247   0.176 -0.1321 -0.2149  0.2099
 2511TIP3    H1 7497   4.324   6.334   0.187 -0.5582 -0.2723 -0.7415
 2511TIP3    H2 7498   4.362   6.209   0.264  0.9307  1.0892  0.8308
 2512TIP3   OH2 7499   2.489   4.150   4.370 -0.2382  0.1695  0.2812
 2512TIP3    H1 7500   2.459   4.197   4.292  2.6171  0.6974 -0.6131
 2512TIP3    H2 7501   2.512   4.063   4.338  0.0950  0.1026  0.6992
 2513TIP3   OH2 7502   6.900   4.462   1.904 -0.0919  0.0557  0.1474
 2513TIP3    H1 7503   6.948   4.416   1.835 -1.5136 -1.9538  0.4119
 2513TIP3    H2 7504   6.863   4.538   1.860  1.0285  0.1326 -0.7121
 2514TIP3   OH2 7505   1.771   6.059   0.861  0.2810 -0.2132  0.0624
 2514TIP3    H1 7506   1.730   6.114   0.794  0.7202 -0.9175 -0.8004
 2514TIP3    H2 7507   1.734   5.972   0.847  0.0564 -0.2814  1.0234
 2515TIP3   OH2 7508   7.160   3.280   4.012 -0.2277  0.8987 -0.1316
 2515TIP3    H1 7509   7.170   3.312   4.101  0.2309  0.4589 -0.0258
 2515TIP3    H2 7510   7.238   3.227   3.996 -0.8148  0.1063 -0.4244
 2516TIP3   OH2 7511   2.851   3.176   3.786 -0.2198  0.0230  0.0742
 2516TIP3    H1 7512   2.915   3.213   3.847 -0.5271 -1.5897  1.4586
 2516TIP3    H2 7513   2.904   3.142   3.714  0.5471 -1.1647  1.1304
 2517TIP3   OH2 7514   6.998   1.766   2.020 -0.4626  0.1231  0.1648
 2517TIP3    H1 7515   7.038   1.828   2.081  0.5918 -1.7120  1.4050
 2517TIP3    H2 7516   6.992   1.684   2.069 -1.2558 -0.9460 -1.6240
 2518TIP3   OH2 7517   4.752   2.930   2.819 -0.2874  0.4375 -0.1402
 2518TIP3    H1 7518   4.670   2.902   2.779 -0.5291 -1.1048  1.3042
 2518TIP3    H2 7519   4.732   3.015   2.859 -1.9674 -0.9485  2.2264
 2519TIP3   OH2 7520   0.430   4.408   2.812  0.2483 -0.0264  0.3306
 2519TIP3    H1 7521   0.368   4.432   2.743  1.8261  4.9058  0.2055
 2519TIP3    H2 7522   0.382   4.423   2.893  0.5429  1.8250  0.2155
 2520TIP3   OH2 7523   1.360   3.946   0.549  0.1593  0.1677 -0.5832
 2520TIP3    H1 7524   1.438   3.933   0.602  0.0563  3.0235  0.4906
 2520TIP3    H2 7525   1.388   4.003   0.477 -0.6383  0.1316 -0.9413
 2521TIP3   OH2 7526   3.703   6.166   2.551 -0.4018 -0.5157 -0.0046
 2521TIP3    H1 7527   3.791   6.195   2.524 -1.0150 -0.4250 -2.0547
 2521TIP3    H2 7528   3.679   6.099   2.487 -1.7996 -0.6115  0.5875
 2522TIP3   OH2 7529   3.388   1.498   4.265 -0.0263 -0.1611 -0.1405
 2522TIP3    H1 7530   3.447   1.560   4.308 -0.2625  0.2304 -0.3694
 2522TIP3    H2 7531   3.396   1.518   4.172  0.0958 -0.6583 -0.2351
 2523TIP3   OH2 7532   0.866   4.025   1.954 -0.2136 -0.2431  0.3677
 2523TIP3    H1 7533   0.936   4.005   1.891 -0.2368 -1.6642  0.7428
 2523TIP3    H2 7534   0.872   4.119   1.968  1.5801 -0.3035  0.2942
 2524TIP3   OH2 7535   3.534   2.896   0.085 -0.2182  0.6609 -0.0903
 2524TIP3    H1 7536   3.580   2.844   0.019 -1.0585  0.3538 -0.4433
 2524TIP3    H2 7537   3.511   2.978   0.040 -1.6511  0.0615 -0.5031
 2525TIP3   OH2 7538   5.320   2.599   2.346 -0.3656 -0.7043  0.1047
 2525TIP3    H1 7539   5.408   2.633   2.362 -0.0264 -1.2375 -0.5957
 2525TIP3    H2 7540   5.316   2.583   2.252 -1.8885  1.1343 -0.2035
 2526TIP3   OH2 7541   0.608   1.379   2.066 -0.1129 -0.3180  0.1491
 2526TIP3    H1 7542   0.584   1.359   2.156 -2.9643  0.5921 -0.2903
 2526TIP3    H2 7543   0.684   1.437   2.073  1.1013 -1.9913  1.8095
 2527TIP3   OH2 7544   3.104   0.809   3.820 -0.4916  0.2436 -0.2663
 2527TIP3    H1 7545   3.150   0.826   3.737 -0.4013  0.3315 -0.1991
 2527TIP3    H2 7546   3.023   0.859   3.813  0.5798  2.2276  0.6717
 2528TIP3   OH2 7547   4.283   4.390   3.952 -0.0609  0.0027 -0.5694
 2528TIP3    H1 7548   4.358   4.445   3.931 -1.4769  1.9156 -0.8977
 2528TIP3    H2 7549   4.259   4.348   3.869  0.3943 -0.3245 -0.5414
 2529TIP3   OH2 7550   4.096   1.647   2.480  0.0068  0.0392 -0.2939
 2529TIP3    H1 7551   4.053   1.718   2.432  0.4980 -0.4449 -1.4976
 2529TIP3    H2 7552   4.033   1.621   2.547 -0.2342  1.5118  0.0946
 2530TIP3   OH2 7553   6.952   3.006   0.417 -0.2516 -0.6730  0.7397
 2530TIP3    H1 7554   6.914   2.935   0.365 -0.5000 -0.6483  0.8875
 2530TIP3    H2 7555   6.903   3.084   0.390 -0.0505 -0.5756  0.6537
 2531TIP3   OH2 7556   5.093   5.812   4.400 -0.1202  0.1352  0.1728
 2531TIP3    H1 7557   5.053   5.894   4.429 -0.9407 -0.6527  1.4140
 2531TIP3    H2 7558   5.031   5.777   4.335 -0.4079 -0.0774  0.5541
 2532TIP3   OH2 7559   1.154   0.676   2.738 -0.0011  0.3530 -0.1813
 2532TIP3    H1 7560   1.175   0.762   2.775  0.6996  0.2810 -0.3959
 2532TIP3    H2 7561   1.198   0.675   2.653  1.1528 -0.7174  0.3759
 2533TIP3   OH2 7562   0.239   3.198   1.275 -0.1966  0.1050  0.0350
 2533TIP3    H1 7563   0.288   3.151   1.207  1.3261 -0.9239  1.7512
 2533TIP3    H2 7564   0.264   3.289   1.264  0.1924 -0.0735 -0.6265
 2534TIP3   OH2 7565   6.142   0.046   5.595 -0.0055 -0.0432  0.2659
 2534TIP3    H1 7566   6.119   0.030   5.687  1.2777  0.6322  0.7295
 2534TIP3    H2 7567   6.183   0.132   5.595  0.3508 -0.1944 -0.8824
 2535TIP3   OH2 7568   6.832   4.946   4.217  0.7079  0.3190  0.4183
 2535TIP3    H1 7569   6.898   4.893   4.172  0.2190  0.3861 -0.4064
 2535TIP3    H2 7570   6.799   5.006   4.149 -0.2248  0.2593  0.8014
 2536TIP3   OH2 7571   1.748   4.487   3.368 -0.4744  0.3034 -0.1989
 2536TIP3    H1 7572   1.675   4.542   3.338  0.1352  0.4055 -1.5522
 2536TIP3    H2 7573   1.705   4.410   3.406 -1.3879  2.0754  2.6979
 2537TIP3   OH2 7574   3.283   4.758   5.806 -0.3277  0.0669  0.6930
 2537TIP3    H1 7575   3.199   4.781   5.768 -0.3300 -0.8212  0.1291
 2537TIP3    H2 7576   3.315   4.839   5.845 -0.8737  0.7081 -0.1644
 2538TIP3   OH2 7577   1.201   5.215   0.051 -0.0791 -0.5904  0.1898
 2538TIP3    H1 7578   1.264   5.270   0.098 -0.6646 -1.2868  1.8723
 2538TIP3    H2 7579   1.116   5.255   0.069 -0.3226 -0.8738 -0.3030
 2539TIP3   OH2 7580   5.341   3.066   0.470  0.1125  0.1112  0.0641
 2539TIP3    H1 7581   5.388   3.148   0.464  0.2082  0.4188  3.4914
 2539TIP3    H2 7582   5.259   3.082   0.422  0.5451  1.8424 -0.1503
 2540TIP3   OH2 7583   6.727   6.761   0.960 -0.1070  0.2680 -0.3896
 2540TIP3    H1 7584   6.807   6.729   0.918  1.1362  4.0668 -1.3156
 2540TIP3    H2 7585   6.734   6.731   1.051  1.9143 -0.3110 -0.6885
 2541TIP3   OH2 7586   3.284   5.146   3.479 -0.3257  0.0441  0.1203
 2541TIP3    H1 7587   3.281   5.197   3.560  0.1158 -0.7659  0.6577
 2541TIP3    H2 7588   3.343   5.196   3.422  0.1565  0.1161  0.6661
 2542TIP3   OH2 7589   2.377   0.291   4.375 -0.8052  0.1162 -0.1002
 2542TIP3    H1 7590   2.434   0.351   4.423 -0.8809 -0.2606  0.4796
 2542TIP3    H2 7591   2.419   0.205   4.386 -0.5316  0.0980 -1.1747
 2543TIP3   OH2 7592   0.517   6.681   2.652 -0.1329 -0.5305 -0.1999
 2543TIP3    H1 7593   0.600   6.634   2.652 -0.2163 -0.6802 -0.1716
 2543TIP3    H2 7594   0.512   6.722   2.566  0.1917 -0.1207 -0.0296
 2544TIP3   OH2 7595   7.114   2.767   1.534  0.2536  0.0924 -0.1543
 2544TIP3    H1 7596   7.130   2.717   1.614  0.3666  1.1077  0.4589
 2544TIP3    H2 7597   7.025   2.744   1.508  0.6398 -1.1896 -0.4402
 2545TIP3   OH2 7598   1.829   1.966   5.542  0.2349 -0.2337 -0.4531
 2545TIP3    H1 7599   1.843   1.970   5.636  0.9758 -0.7555 -0.5367
 2545TIP3    H2 7600   1.756   2.026   5.526 -0.7911 -1.1534  0.6162
 2546TIP3   OH2 7601   3.478   3.976   0.403 -0.3683 -0.3863  0.1726
 2546TIP3    H1 7602   3.500   3.982   0.496 -0.1253 -0.7207  0.1395
 2546TIP3    H2 7603   3.467   4.066   0.375  2.0338 -0.0869 -0.0595
 2547TIP3   OH2 7604   4.947   0.095   5.290 -0.2732  0.3005  0.1368
 2547TIP3    H1 7605   4.907   0.169   5.243  0.6328  0.4751 -0.3732
 2547TIP3    H2 7606   4.897   0.019   5.260 -0.5789  0.5802 -0.0786
 2548TIP3   OH2 7607   3.349   3.387   5.558 -0.2837  0.4704  0.1039
 2548TIP3    H1 7608   3.419   3.326   5.582  0.4698  1.1161 -0.4086
 2548TIP3    H2 7609   3.288   3.335   5.505 -0.0971 -0.0407  0.3796
 2549TIP3   OH2 7610   6.390   4.492   3.231 -0.4637 -0.2254 -0.6221
 2549TIP3    H1 7611   6.480   4.475   3.202  0.0142  0.3342  0.4555
 2549TIP3    H2 7612   6.354   4.405   3.248  1.3665 -0.4799  3.1585
 2550TIP3   OH2 7613   1.968   1.252   1.796 -0.6506  0.2078  0.0503
 2550TIP3    H1 7614   2.054   1.214   1.811 -0.9576 -0.9398 -0.9693
 2550TIP3    H2 7615   1.919   1.233   1.877  0.1969  1.4037  0.8873
 2551TIP3   OH2 7616   4.780   3.248   0.141  0.4272  0.2695  0.0582
 2551TIP3    H1 7617   4.825   3.228   0.059  0.1412  0.4235 -0.1390
 2551TIP3    H2 7618   4.781   3.165   0.190  1.0393  0.3064  0.1163
 2552TIP3   OH2 7619   5.181   0.031   3.622  0.0375 -0.6101  0.0713
 2552TIP3    H1 7620   5.130  -0.049   3.608 -1.8221  0.5546 -0.1619
 2552TIP3    H2 7621   5.172   0.048   3.716  0.0925 -0.4581  0.0492
 2553TIP3   OH2 7622   6.112   3.408   0.254 -0.1289 -0.3081  0.7789
 2553TIP3    H1 7623   6.028   3.436   0.218 -0.3625  0.3336  1.7747
 2553TIP3    H2 7624   6.135   3.331   0.203 -0.3287  0.6680 -0.8758
 2554TIP3   OH2 7625   3.826   0.032   0.961  0.0926  0.0557  0.3632
 2554TIP3    H1 7626   3.856   0.070   0.878 -0.3907  0.7590  0.4946
 2554TIP3    H2 7627   3.797  -0.056   0.939  0.6417 -0.0139 -0.0804
 2555TIP3   OH2 7628   3.371   1.132   1.862 -0.2530 -0.0869  0.0726
 2555TIP3    H1 7629   3.400   1.209   1.814 -1.0977  1.4807  1.9408
 2555TIP3    H2 7630   3.446   1.109   1.918  1.1189 -2.5266 -2.4981
 2556TIP3   OH2 7631   6.145   3.963   2.483 -0.1723 -0.4325  0.0748
 2556TIP3    H1 7632   6.064   3.913   2.489  0.8950 -2.3164 -0.3297
 2556TIP3    H2 7633   6.141   4.023   2.557 -1.5744 -1.0529  0.5441
 2557TIP3   OH2 7634   0.028   4.228   5.481 -0.2592 -1.1064  0.0949
 2557TIP3    H1 7635   0.057   4.182   5.402  0.1590  0.5496 -0.7660
 2557TIP3    H2 7636  -0.051   4.275   5.454  1.1810  1.3764 -0.0755
 2558TIP3   OH2 7637   6.954   0.298   0.112 -0.6981  0.5056 -0.1551
 2558TIP3    H1 7638   6.883   0.312   0.174  0.5413  0.3541  1.3369
 2558TIP3    H2 7639   6.996   0.384   0.104  1.5158 -0.2340  2.2706
 2559TIP3   OH2 7640   1.024   0.246   2.847  0.0252  0.2798  0.1871
 2559TIP3    H1 7641   1.003   0.258   2.939  0.5284 -0.2639  0.3765
 2559TIP3    H2 7642   1.104   0.297   2.833  0.7614 -0.7751  0.4049
 2560TIP3   OH2 7643   0.379   2.313   2.027 -0.0014 -0.3352  0.3105
 2560TIP3    H1 7644   0.306   2.374   2.036  1.7276  2.4082 -2.5004
 2560TIP3    H2 7645   0.363   2.269   1.943  1.3213  0.0192 -0.1476
 2561TIP3   OH2 7646   1.978   2.490   3.060 -0.1286 -0.0746  0.0186
 2561TIP3    H1 7647   1.963   2.500   2.966 -0.9909  0.5730  0.2098
 2561TIP3    H2 7648   1.991   2.580   3.091 -0.0912 -0.2646  0.5519
 2562TIP3   OH2 7649   5.343   1.624   4.932  0.0260  0.1364  0.0652
 2562TIP3    H1 7650   5.264   1.676   4.919  1.4937  2.0316 -2.1172
 2562TIP3    H2 7651   5.401   1.651   4.860  1.9623 -2.5240  0.4834
 2563TIP3   OH2 7652   0.611   0.951   0.750 -0.2002  0.3557 -0.2430
 2563TIP3    H1 7653   0.647   1.038   0.767  0.1997  0.6598 -2.4304
 2563TIP3    H2 7654   0.684   0.891   0.768 -0.3673  0.4785  0.9077
 2564TIP3   OH2 7655   5.929   6.591   1.544 -0.3370  0.0283  0.3590
 2564TIP3    H1 7656   5.914   6.564   1.635  1.6307  0.4155  0.8349
 2564TIP3    H2 7657   6.006   6.647   1.548 -0.0616 -0.1527 -1.6063
 2565TIP3   OH2 7658   2.723   1.927   1.282  0.4521  0.1747 -0.0806
 2565TIP3    H1 7659   2.745   1.908   1.191 -1.6018  1.1120 -0.8326
 2565TIP3    H2 7660   2.797   1.893   1.333  0.6217 -2.4210 -1.9090
 2566TIP3   OH2 7661   4.859   6.471   5.328 -0.0292  0.4375  0.4341
 2566TIP3    H1 7662   4.886   6.450   5.239 -0.5202 -1.8100  0.7603
 2566TIP3    H2 7663   4.938   6.503   5.371  0.4910  0.3751 -0.4622
 2567TIP3   OH2 7664   1.420   1.787   4.107  0.3188  0.2188 -0.3513
 2567TIP3    H1 7665   1.403   1.745   4.191  0.6958  1.0277  0.1435
 2567TIP3    H2 7666   1.348   1.758   4.051 -2.4560  3.0134  1.4488
 2568TIP3   OH2 7667   5.757   3.259   0.471  0.5083  0.0085 -0.2527
 2568TIP3    H1 7668   5.762   3.193   0.402  1.2770 -0.4500  0.2297
 2568TIP3    H2 7669   5.703   3.328   0.434  0.7490 -0.3180 -1.2445
 2569TIP3   OH2 7670   3.397   4.132   4.167  0.2158 -0.4759 -0.6492
 2569TIP3    H1 7671   3.406   4.224   4.192 -0.4799 -0.4006 -0.6513
 2569TIP3    H2 7672   3.481   4.092   4.192 -0.0205 -0.1580  0.7489
 2570TIP3   OH2 7673   1.083   1.408   0.757 -0.3348 -0.2624 -0.0245
 2570TIP3    H1 7674   1.128   1.491   0.770  1.5608 -1.1772 -0.3405
 2570TIP3    H2 7675   1.012   1.408   0.821  2.1211 -0.1260  2.9399
 2571TIP3   OH2 7676   4.645   2.996   4.117  0.0482 -0.0181 -0.3948
 2571TIP3    H1 7677   4.741   3.001   4.124 -0.1412  1.3966  2.7346
 2571TIP3    H2 7678   4.625   3.040   4.035  2.0953 -1.4506 -1.7754
 2572TIP3   OH2 7679   1.663   4.437   1.196  0.6729 -0.5970 -0.0363
 2572TIP3    H1 7680   1.584   4.468   1.239 -0.4303 -0.0327 -2.3042
 2572TIP3    H2 7681   1.631   4.379   1.127  2.2483 -0.5785 -0.8305
 2573TIP3   OH2 7682   4.175   0.845   4.456 -0.7524  0.2172  0.1544
 2573TIP3    H1 7683   4.160   0.803   4.540 -0.5423 -1.2438 -0.5144
 2573TIP3    H2 7684   4.183   0.938   4.477  1.8621 -0.3417  2.0977
 2574TIP3   OH2 7685   5.503   2.992   0.164 -0.0411  0.3389 -0.7298
 2574TIP3    H1 7686   5.568   3.052   0.128 -1.0148  1.6949 -0.2997
 2574TIP3    H2 7687   5.420   3.039   0.159 -0.9972 -1.3100 -1.1594
 2575TIP3   OH2 7688   0.788   3.469   3.407  0.1102  0.3685 -0.0832
 2575TIP3    H1 7689   0.720   3.537   3.407 -0.9638 -0.6416 -1.0987
 2575TIP3    H2 7690   0.745   3.394   3.448  1.0628  0.0993  0.4329
 2576TIP3   OH2 7691   2.278   4.537   3.718 -0.0609 -0.3043 -0.3872
 2576TIP3    H1 7692   2.344   4.543   3.787 -0.0935  1.2662 -0.4637
 2576TIP3    H2 7693   2.312   4.470   3.658  2.0985  1.2946 -1.0633
 2577TIP3   OH2 7694   4.736   3.327   4.313  0.2302 -0.8339 -0.1579
 2577TIP3    H1 7695   4.655   3.370   4.284 -0.1255 -2.2206 -1.3794
 2577TIP3    H2 7696   4.772   3.289   4.233  1.3782 -1.4098  0.6097
 2578TIP3   OH2 7697   2.296   2.818   1.366 -0.3004  0.2722 -0.3020
 2578TIP3    H1 7698   2.322   2.908   1.349  3.1035 -0.7557 -1.3106
 2578TIP3    H2 7699   2.239   2.795   1.293  2.2389  0.4344 -2.4936
 2579TIP3   OH2 7700   2.571   1.903   0.221 -0.3250 -0.2040  0.3136
 2579TIP3    H1 7701   2.537   1.906   0.132 -0.1242 -0.4196  0.2265
 2579TIP3    H2 7702   2.594   1.993   0.242 -2.4421  0.2266  0.9747
 2580TIP3   OH2 7703   2.842   5.085   5.289 -0.6801  0.5666 -0.4663
 2580TIP3    H1 7704   2.749   5.098   5.271 -0.3176  0.7016 -2.3543
 2580TIP3    H2 7705   2.888   5.131   5.219  0.8540  1.2511  0.9155
 2581TIP3   OH2 7706   0.445   3.449   0.248 -0.2035  0.4910 -0.2267
 2581TIP3    H1 7707   0.394   3.511   0.197 -0.3188  1.0268  0.5278
 2581TIP3    H2 7708   0.387   3.424   0.320  0.5275  0.9548  0.5281
 2582TIP3   OH2 7709   0.220   3.699   4.005  0.2058 -0.2571  0.0707
 2582TIP3    H1 7710   0.268   3.690   4.087 -0.0047  1.5212  0.4456
 2582TIP3    H2 7711   0.128   3.708   4.032 -0.2891 -2.7613 -0.5864
 2583TIP3   OH2 7712   0.046   2.203   5.021  0.0712 -0.2549  0.0634
 2583TIP3    H1 7713   0.104   2.172   4.952  0.6228 -0.1311  0.4628
 2583TIP3    H2 7714   0.031   2.296   5.000  0.0013 -0.2903 -0.0470
 2584TIP3   OH2 7715   6.524   2.598   4.694  0.0214 -0.0431 -0.7118
 2584TIP3    H1 7716   6.569   2.555   4.766  1.1855  0.5645 -1.0491
 2584TIP3    H2 7717   6.502   2.528   4.633 -2.3439 -0.7939  0.8845
 2585TIP3   OH2 7718   7.009   6.131   0.254 -0.0748  0.3524 -0.6597
 2585TIP3    H1 7719   7.097   6.097   0.269 -0.0300  0.8779  0.4082
 2585TIP3    H2 7720   7.018   6.225   0.263 -0.9779  0.3249  0.8810
 2586TIP3   OH2 7721   0.932   1.388   0.991 -0.2843  0.3443  0.2554
 2586TIP3    H1 7722   0.978   1.328   1.049  2.0823  1.4969 -0.3344
 2586TIP3    H2 7723   0.839   1.374   1.011  0.3813  0.1454  3.7227
 2587TIP3   OH2 7724   5.116   2.002   3.100 -0.1123 -0.0609  0.0158
 2587TIP3    H1 7725   5.162   2.006   3.016  2.1731  0.0989  1.2028
 2587TIP3    H2 7726   5.117   2.092   3.132 -1.6812  0.0222 -0.1026
 2588TIP3   OH2 7727   4.271   6.343   2.062  0.2823  0.7016 -0.1761
 2588TIP3    H1 7728   4.236   6.429   2.080 -0.3566  0.4012  0.0321
 2588TIP3    H2 7729   4.233   6.318   1.977 -2.6655 -0.9543  1.4596
 2589TIP3   OH2 7730   6.710   1.176   2.466  0.2409 -0.2853  0.3781
 2589TIP3    H1 7731   6.687   1.088   2.437  0.1965  0.3355 -1.5685
 2589TIP3    H2 7732   6.635   1.231   2.443  1.3879  0.7571 -1.1108
 2590TIP3   OH2 7733   5.147   1.516   4.563 -0.0883 -0.5442 -0.1378
 2590TIP3    H1 7734   5.224   1.501   4.618  0.1317 -0.8673 -0.5247
 2590TIP3    H2 7735   5.168   1.472   4.480 -0.9820 -1.2721 -0.0043
 2591TIP3   OH2 7736   0.955   2.486   5.724 -0.0510  0.0674 -0.1273
 2591TIP3    H1 7737   0.986   2.520   5.807  0.9505  1.4470 -1.0231
 2591TIP3    H2 7738   0.887   2.423   5.747  0.8751 -0.3023  1.7557
 2592TIP3   OH2 7739   5.767   0.375   2.400 -0.0839 -0.2555 -0.0098
 2592TIP3    H1 7740   5.737   0.285   2.389 -1.6734  0.0212  1.6566
 2592TIP3    H2 7741   5.863   0.368   2.399 -0.1692 -1.8914 -0.2467
 2593TIP3   OH2 7742   3.199   1.441   5.491 -0.3683 -0.0614 -0.2024
 2593TIP3    H1 7743   3.294   1.454   5.497 -0.0085 -2.1009 -0.8070
 2593TIP3    H2 7744   3.169   1.514   5.436  0.7764  0.7966  0.2432
 2594TIP3   OH2 7745   6.808   6.160   0.636 -0.5514 -0.0366  0.3123
 2594TIP3    H1 7746   6.777   6.072   0.656  1.3952 -1.0495 -0.8273
 2594TIP3    H2 7747   6.783   6.174   0.544  1.4445 -0.5466 -0.3671
 2595TIP3   OH2 7748   2.500   6.376   3.873  0.1230 -0.3239 -0.1725
 2595TIP3    H1 7749   2.592   6.392   3.852  0.4467  2.7764  2.6646
 2595TIP3    H2 7750   2.502   6.308   3.940  0.3231 -0.4978 -0.3557
 2596TIP3   OH2 7751   2.097   1.167   4.392 -0.0574 -0.0165 -0.2487
 2596TIP3    H1 7752   2.172   1.151   4.334 -0.2655 -1.5538 -0.1349
 2596TIP3    H2 7753   2.022   1.172   4.333 -0.2514 -1.4490 -0.1416
 2597TIP3   OH2 7754   3.295   4.831   0.842 -0.0857  0.1814 -0.1711
 2597TIP3    H1 7755   3.343   4.816   0.924  1.7595 -0.7371 -1.3379
 2597TIP3    H2 7756   3.361   4.869   0.783 -1.2636  0.4367 -1.3696
 2598TIP3   OH2 7757   0.834   6.234   0.159  0.2689 -0.0732  0.6854
 2598TIP3    H1 7758   0.743   6.212   0.176  0.6597 -0.7888  2.0121
 2598TIP3    H2 7759   0.853   6.194   0.074 -0.5714 -0.1440  0.5215
 2599TIP3   OH2 7760   0.216   4.823   4.693  0.1079 -0.2050 -0.2930
 2599TIP3    H1 7761   0.199   4.914   4.717 -1.4220 -0.6670  0.5804
 2599TIP3    H2 7762   0.308   4.809   4.715 -0.2727  0.4390  2.0569
 2600TIP3   OH2 7763   0.439   0.544   3.907 -0.3739  0.1745 -0.1534
 2600TIP3    H1 7764   0.487   0.605   3.962 -1.5245  1.7150 -0.7772
 2600TIP3    H2 7765   0.408   0.476   3.967 -0.5884  1.1813  0.9027
 2601TIP3   OH2 7766   4.477   3.430   2.379 -0.5143 -1.2130 -0.2652
 2601TIP3    H1 7767   4.504   3.487   2.307 -1.2456 -2.0870 -1.2473
 2601TIP3    H2 7768   4.545   3.363   2.383 -0.7517 -1.4649 -0.4827
 2602TIP3   OH2 7769   0.314   0.918   2.423 -0.4504  0.3461  0.9977
 2602TIP3    H1 7770   0.274   0.994   2.465 -1.0703  0.4482  0.2480
 2602TIP3    H2 7771   0.261   0.903   2.345  1.8641  1.4568 -0.9237
 2603TIP3   OH2 7772   5.875   3.095   0.702 -0.3545 -0.1411 -0.1152
 2603TIP3    H1 7773   5.852   3.022   0.644 -0.0405  0.0214 -0.4511
 2603TIP3    H2 7774   5.911   3.161   0.643 -1.4601  0.6474  0.0656
 2604TIP3   OH2 7775   3.155   0.755   0.461 -0.3104 -0.2715 -0.4930
 2604TIP3    H1 7776   3.140   0.817   0.532 -2.2369 -0.1377 -0.9660
 2604TIP3    H2 7777   3.221   0.695   0.495  0.6196  1.2236  0.4641
 2605TIP3   OH2 7778   7.097   2.485   5.003 -0.0766  0.9140  0.1062
 2605TIP3    H1 7779   7.186   2.522   4.999  0.7555 -1.0425 -1.1624
 2605TIP3    H2 7780   7.063   2.497   4.914 -0.3780  0.0283  0.1016
 2606TIP3   OH2 7781   3.885   5.016   4.775  0.0442  0.0816 -0.3847
 2606TIP3    H1 7782   3.791   5.028   4.789 -0.0277 -0.6639 -0.1793
 2606TIP3    H2 7783   3.916   4.973   4.854  0.3485 -0.6823 -0.9074
 2607TIP3   OH2 7784   1.469   4.683   1.847 -0.0547 -0.2895 -0.5793
 2607TIP3    H1 7785   1.507   4.712   1.929  0.3259 -0.0838 -0.8242
 2607TIP3    H2 7786   1.475   4.587   1.849  2.2297 -0.2232 -1.4202
 2608TIP3   OH2 7787   4.348   3.044   3.794  0.0007  0.0426  0.0322
 2608TIP3    H1 7788   4.260   3.018   3.765 -0.4692  0.1503  1.2924
 2608TIP3    H2 7789   4.400   3.046   3.714 -1.1243 -0.1121 -0.7294
 2609TIP3   OH2 7790   2.518   1.672   3.720 -0.1409  0.4646 -0.1394
 2609TIP3    H1 7791   2.474   1.588   3.711 -0.5898  0.6359  0.3611
 2609TIP3    H2 7792   2.488   1.706   3.805  0.3356  0.9499 -0.1571
 2610TIP3   OH2 7793   4.019   3.067   1.969  0.0466  0.1856  0.6180
 2610TIP3    H1 7794   4.042   3.138   2.029 -0.5037  0.6936  0.2420
 2610TIP3    H2 7795   4.051   3.096   1.884 -1.8937  0.9216  0.0765
 2611TIP3   OH2 7796   3.727   2.090   0.316 -0.0359  0.2973  0.0397
 2611TIP3    H1 7797   3.638   2.068   0.344 -0.7534  1.2774 -1.3788
 2611TIP3    H2 7798   3.736   2.049   0.230  0.6802  0.7140 -0.0937
 2612TIP3   OH2 7799   5.949   2.264   2.858 -0.6646  0.5604 -0.4389
 2612TIP3    H1 7800   6.041   2.274   2.883 -0.8744 -0.5878  0.9102
 2612TIP3    H2 7801   5.930   2.172   2.873 -1.8606  0.6266 -1.3953
 2613TIP3   OH2 7802   2.390   0.815   4.070  0.3520 -0.1482 -0.0152
 2613TIP3    H1 7803   2.471   0.863   4.054 -0.3349  0.8715 -0.5754
 2613TIP3    H2 7804   2.387   0.749   4.001  1.3207 -1.0656  0.7805
 2614TIP3   OH2 7805   4.886   5.457   1.837  0.1970 -0.0562 -0.1126
 2614TIP3    H1 7806   4.837   5.440   1.918  0.0021 -0.6858 -0.3551
 2614TIP3    H2 7807   4.821   5.450   1.768  0.3583  0.5121 -0.3228
 2615TIP3   OH2 7808   7.034   2.337   1.928 -0.4899  0.3088 -0.1363
 2615TIP3    H1 7809   7.098   2.291   1.983 -1.1937 -0.3398  0.1581
 2615TIP3    H2 7810   6.976   2.381   1.990 -1.6409 -0.8963 -0.3081
 2616TIP3   OH2 7811   4.890   3.147   1.251 -0.1721 -0.2560 -0.0892
 2616TIP3    H1 7812   4.800   3.130   1.222  0.2637 -1.7230 -0.6404
 2616TIP3    H2 7813   4.880   3.174   1.342 -1.3766  2.2581 -0.8443
 2617TIP3   OH2 7814   4.536   1.070   1.535 -0.0502  0.4075 -0.0310
 2617TIP3    H1 7815   4.523   0.978   1.556  1.1365  0.8071  2.8605
 2617TIP3    H2 7816   4.451   1.099   1.501 -0.6420 -1.5427 -0.3123
 2618TIP3   OH2 7817   3.395   5.809   4.579 -0.2940 -0.0107  0.7535
 2618TIP3    H1 7818   3.446   5.834   4.656 -0.0817 -1.7850  1.2283
 2618TIP3    H2 7819   3.308   5.790   4.613 -0.6831  0.8532  0.2746
 2619TIP3   OH2 7820   2.191   5.297   4.278  0.5159 -0.0535  0.3836
 2619TIP3    H1 7821   2.154   5.297   4.190  3.7817  0.7193 -1.1200
 2619TIP3    H2 7822   2.147   5.369   4.323 -2.4141 -1.5009  0.0645
 2620TIP3   OH2 7823   4.786   3.924   1.670 -0.0950 -0.4323 -0.3048
 2620TIP3    H1 7824   4.717   3.946   1.732  0.7651  0.0879  0.4898
 2620TIP3    H2 7825   4.771   3.982   1.595  0.3538  0.7407  0.4992
 2621TIP3   OH2 7826   6.916   4.994   5.840  0.2661 -1.1584  0.0762
 2621TIP3    H1 7827   6.970   5.055   5.891  1.2342 -1.2115 -0.8414
 2621TIP3    H2 7828   6.864   4.947   5.905 -0.5730  0.6937  0.8118
 2622TIP3   OH2 7829   3.899   4.723   2.602  0.2156 -0.3960  0.8027
 2622TIP3    H1 7830   3.967   4.665   2.567 -0.7600 -0.1621 -1.6702
 2622TIP3    H2 7831   3.934   4.811   2.590 -0.6528 -0.2562 -0.8618
 2623TIP3   OH2 7832   6.067   0.375   2.434 -0.0350 -0.4040  0.5136
 2623TIP3    H1 7833   6.065   0.464   2.400  1.3961 -0.3368  0.5290
 2623TIP3    H2 7834   6.057   0.384   2.528  2.8498  0.0502  0.8829
 2624TIP3   OH2 7835   1.081   4.088   4.500 -0.1577 -0.0036 -0.0893
 2624TIP3    H1 7836   1.068   4.181   4.480  1.1037  0.5486  1.3618
 2624TIP3    H2 7837   1.094   4.046   4.415  0.5812  1.3959 -0.7085
 2625TIP3   OH2 7838   3.962   6.625   0.900  0.2362  0.1204 -0.2829
 2625TIP3    H1 7839   3.873   6.593   0.890 -0.9768  2.7841  1.0539
 2625TIP3    H2 7840   4.008   6.594   0.821 -1.5832 -2.0070 -0.6017
 2626TIP3   OH2 7841   0.508   0.701   0.882  0.1340  0.1652  0.4840
 2626TIP3    H1 7842   0.542   0.751   0.957 -0.4924 -1.3640  1.8535
 2626TIP3    H2 7843   0.518   0.760   0.808 -3.6169  3.8273  2.4270
 2627TIP3   OH2 7844   1.611   0.355   4.811 -0.4607  0.2985  0.4855
 2627TIP3    H1 7845   1.645   0.432   4.857  0.8845 -0.5314  0.9743
 2627TIP3    H2 7846   1.595   0.385   4.721  0.2100  1.1051  0.6255
 2628TIP3   OH2 7847   1.268   1.295   3.275 -0.0244 -0.0308 -0.0536
 2628TIP3    H1 7848   1.216   1.374   3.288  0.9446  0.4591  1.0763
 2628TIP3    H2 7849   1.229   1.230   3.333  0.4067  0.2320  0.5340
 2629TIP3   OH2 7850   1.338   0.235   1.405  0.3454  0.7382 -0.3704
 2629TIP3    H1 7851   1.271   0.302   1.418  0.8346  1.6709 -2.2994
 2629TIP3    H2 7852   1.327   0.175   1.480 -1.1367  2.0805  0.5521
 2630TIP3   OH2 7853   4.697   2.390   0.751  0.5207 -0.1389  0.1946
 2630TIP3    H1 7854   4.641   2.451   0.703 -0.8397 -1.2686  0.2836
 2630TIP3    H2 7855   4.671   2.304   0.720  2.1836 -0.7102  0.3011
 2631TIP3   OH2 7856   2.820   0.312   1.294  0.6020  0.2417  0.4586
 2631TIP3    H1 7857   2.829   0.230   1.342  2.0780 -0.4115 -0.8506
 2631TIP3    H2 7858   2.909   0.333   1.266 -0.1700  0.5441 -2.0120
 2632TIP3   OH2 7859   5.868   0.390   4.619 -0.1289  0.1911  0.4507
 2632TIP3    H1 7860   5.901   0.479   4.603  1.7712 -0.4518  0.5170
 2632TIP3    H2 7861   5.945   0.342   4.649 -0.9763 -1.6532 -0.2233
 2633TIP3   OH2 7862   2.541   1.299   2.061  0.1849  0.0550  0.1143
 2633TIP3    H1 7863   2.468   1.338   2.013  0.7925 -1.1169 -1.8582
 2633TIP3    H2 7864   2.615   1.303   2.000  0.8050 -2.1580  0.6438
 2634TIP3   OH2 7865   6.599   6.201   5.797 -0.2336  0.3697  0.0221
 2634TIP3    H1 7866   6.651   6.237   5.725 -0.8569  2.6657  0.6483
 2634TIP3    H2 7867   6.613   6.262   5.869 -1.4899 -0.5850  1.1213
 2635TIP3   OH2 7868   1.892   0.772   3.929 -0.3611 -0.0636  0.4234
 2635TIP3    H1 7869   1.893   0.690   3.879 -1.9411 -1.0459  1.8743
 2635TIP3    H2 7870   1.982   0.783   3.959  0.3530 -0.0772 -1.5765
 2636TIP3   OH2 7871   7.133   1.577   3.342  0.1257  0.1059 -0.0842
 2636TIP3    H1 7872   7.193   1.602   3.412  1.1604 -0.6948 -0.6568
 2636TIP3    H2 7873   7.189   1.564   3.266 -0.7794 -0.5591 -0.6579
 2637TIP3   OH2 7874   5.007   3.595   2.797  0.3745  0.4715  0.1580
 2637TIP3    H1 7875   4.920   3.556   2.796  1.2521 -1.5954 -0.3162
 2637TIP3    H2 7876   5.012   3.641   2.881 -0.7676 -0.3539  0.6960
 2638TIP3   OH2 7877   6.603   0.758   5.404 -0.1723  0.1905  0.0546
 2638TIP3    H1 7878   6.511   0.779   5.385  0.0966  2.5271  1.0111
 2638TIP3    H2 7879   6.652   0.807   5.338  0.4154 -1.0754 -0.4680
 2639TIP3   OH2 7880   3.192   2.439   4.728 -0.6871  0.9587 -0.2578
 2639TIP3    H1 7881   3.250   2.511   4.753  2.3918 -0.9065 -1.4682
 2639TIP3    H2 7882   3.163   2.461   4.639  0.0433  0.8699 -0.5272
 2640TIP3   OH2 7883   0.172   1.583   2.973  0.1142  0.2528  0.4950
 2640TIP3    H1 7884   0.252   1.633   2.988 -0.4449  0.9510  1.1920
 2640TIP3    H2 7885   0.201   1.491   2.978  0.7632  0.4884  1.4068
 2641TIP3   OH2 7886   1.581   2.216   1.136  0.2179 -0.1143  0.7266
 2641TIP3    H1 7887   1.508   2.225   1.075  0.4594  0.6347  0.5408
 2641TIP3    H2 7888   1.625   2.135   1.109 -1.8257 -1.8398  2.2363
 2642TIP3   OH2 7889   3.223   0.968   5.797 -0.9154 -0.0996 -0.2465
 2642TIP3    H1 7890   3.276   1.009   5.729  0.1941 -0.0852  0.6000
 2642TIP3    H2 7891   3.206   0.879   5.764 -0.3649 -0.1006 -0.5347
 2643TIP3   OH2 7892   2.540   2.423   2.237 -0.1492 -0.4828 -0.0588
 2643TIP3    H1 7893   2.473   2.488   2.217 -0.9971 -1.7197 -1.4220
 2643TIP3    H2 7894   2.583   2.406   2.154  0.2006 -1.4890  0.3058
 2644TIP3   OH2 7895   0.830   0.162   3.355  0.5312 -0.5523 -0.7461
 2644TIP3    H1 7896   0.748   0.113   3.361 -0.5419  1.3334  1.5693
 2644TIP3    H2 7897   0.853   0.182   3.446  3.1705 -0.3329 -1.3820
 2645TIP3   OH2 7898   6.443   3.345   5.149 -1.3034 -0.2450  0.3499
 2645TIP3    H1 7899   6.387   3.270   5.131  0.8164 -2.0926  0.9386
 2645TIP3    H2 7900   6.479   3.327   5.236  1.8099 -0.3274 -0.8392
 2646TIP3   OH2 7901   7.186   5.979   3.165 -0.0102  0.3335  0.5305
 2646TIP3    H1 7902   7.105   5.974   3.114  0.3371  0.1809 -0.0173
 2646TIP3    H2 7903   7.179   5.908   3.229  0.2535 -0.5165 -0.3555
 2647TIP3   OH2 7904   0.777   3.798   3.289  0.2049  0.6603  0.4237
 2647TIP3    H1 7905   0.726   3.843   3.222  0.9457  1.1944  0.2051
 2647TIP3    H2 7906   0.720   3.793   3.365 -0.8866 -0.5101 -0.4228
 2648TIP3   OH2 7907   5.344   1.903   5.566  0.5493 -0.5551 -0.9830
 2648TIP3    H1 7908   5.396   1.824   5.583  0.7357 -0.0652  0.9666
 2648TIP3    H2 7909   5.407   1.969   5.538  0.8895 -0.2048  0.5464
 2649TIP3   OH2 7910   5.524   2.403   1.267  0.0210 -0.2070 -0.6179
 2649TIP3    H1 7911   5.471   2.475   1.301  0.1706  0.0511 -0.9305
 2649TIP3    H2 7912   5.579   2.443   1.200  0.1060 -0.6119 -0.7925
 2650TIP3   OH2 7913   4.281   4.735   5.776  0.1977  0.1119  0.1818
 2650TIP3    H1 7914   4.360   4.686   5.751 -0.9472 -2.6060  1.4497
 2650TIP3    H2 7915   4.293   4.754   5.869 -1.4408 -2.3450  1.0230
 2651TIP3   OH2 7916   1.721   4.199   4.595 -0.3397 -0.0674  0.2802
 2651TIP3    H1 7917   1.711   4.220   4.688 -2.5694 -0.2092  0.1196
 2651TIP3    H2 7918   1.789   4.131   4.593 -1.7191 -1.5831  2.0321
 2652TIP3   OH2 7919   6.897   2.355   3.725  0.1981  0.1042  0.1015
 2652TIP3    H1 7920   6.826   2.309   3.769 -0.7848  0.7869 -0.7193
 2652TIP3    H2 7921   6.868   2.446   3.722  1.0715  0.3784 -0.3294
 2653TIP3   OH2 7922   5.004   4.941   3.569 -0.3999 -0.4191  0.1024
 2653TIP3    H1 7923   4.945   4.905   3.635 -0.4303 -3.3622 -1.3674
 2653TIP3    H2 7924   5.076   4.878   3.565  0.9920  1.1529 -0.7670
 2654TIP3   OH2 7925   5.690   4.978   4.996  0.0462  0.3215 -0.5159
 2654TIP3    H1 7926   5.698   4.914   5.067  0.5242  0.7367 -0.1907
 2654TIP3    H2 7927   5.660   4.926   4.921 -0.1708 -0.1735 -0.0945
 2655TIP3   OH2 7928   0.881   0.388   1.867 -0.6384 -0.1736  0.1740
 2655TIP3    H1 7929   0.839   0.342   1.940  0.7502 -1.4263  0.2379
 2655TIP3    H2 7930   0.966   0.415   1.902 -0.8476  1.2344 -0.3173
 2656TIP3   OH2 7931   1.488   1.121   5.047 -0.0996  0.4763 -0.2033
 2656TIP3    H1 7932   1.412   1.068   5.025 -1.1702  1.6446  0.5380
 2656TIP3    H2 7933   1.478   1.140   5.140  2.2338 -1.0819  0.4360
 2657TIP3   OH2 7934   5.056   4.356   1.228 -0.6517  0.2701  0.2142
 2657TIP3    H1 7935   5.001   4.316   1.295  0.8771 -0.8897  0.8253
 2657TIP3    H2 7936   5.075   4.443   1.263 -3.0356  1.2145 -0.5877
 2658TIP3   OH2 7937   4.722   4.320   0.217  0.4156  0.3972 -0.2987
 2658TIP3    H1 7938   4.638   4.323   0.171  0.2589 -1.2649 -0.1868
 2658TIP3    H2 7939   4.699   4.326   0.310  0.4792  0.5108 -0.2895
 2659TIP3   OH2 7940   5.787   2.370   5.321  0.1530  0.7518 -0.3246
 2659TIP3    H1 7941   5.747   2.443   5.272 -1.7599 -1.2389 -1.9209
 2659TIP3    H2 7942   5.833   2.319   5.255 -0.1774 -0.5299  0.4066
 2660TIP3   OH2 7943   4.710   2.596   5.649  0.7833  0.5298  0.1164
 2660TIP3    H1 7944   4.804   2.584   5.635  0.6261 -1.2167  0.3306
 2660TIP3    H2 7945   4.671   2.576   5.564  0.5669  0.5877  0.2025
 2661TIP3   OH2 7946   3.233   4.404   3.636 -0.3969  0.3224  0.3933
 2661TIP3    H1 7947   3.303   4.463   3.662  0.7005  0.7368 -3.0117
 2661TIP3    H2 7948   3.276   4.340   3.579 -2.4826 -0.4947 -0.3535
 2662TIP3   OH2 7949   3.644   2.050   5.501  0.5110 -0.5306 -0.4866
 2662TIP3    H1 7950   3.724   2.007   5.471  0.9103 -1.4207  1.6934
 2662TIP3    H2 7951   3.670   2.097   5.580 -0.7366  0.7109 -0.7722
 2663TIP3   OH2 7952   3.780   2.273   0.864  0.2904  0.3440  0.4100
 2663TIP3    H1 7953   3.760   2.288   0.771 -0.3364  0.1529  0.5163
 2663TIP3    H2 7954   3.774   2.359   0.904 -0.3410  0.2845  0.4455
 2664TIP3   OH2 7955   1.815   6.807   1.093 -0.1213  0.1076  0.8540
 2664TIP3    H1 7956   1.776   6.730   1.134  2.4136 -1.2092  1.0009
 2664TIP3    H2 7957   1.848   6.859   1.166 -1.2393  1.0467  0.7180
 2665TIP3   OH2 7958   2.553   4.156   4.638  0.2721 -0.4443  0.2068
 2665TIP3    H1 7959   2.555   4.163   4.542 -4.1345  0.0358 -0.0409
 2665TIP3    H2 7960   2.541   4.063   4.654  2.6244 -0.7543  0.4798
 2666TIP3   OH2 7961   2.239   3.904   5.805 -0.2097  0.1987 -0.2661
 2666TIP3    H1 7962   2.263   3.863   5.722 -1.8130  1.3454 -1.3543
 2666TIP3    H2 7963   2.226   3.996   5.783 -2.5091  0.1964  0.8339
 2667TIP3   OH2 7964   0.504   6.385   0.378  0.4686 -0.4161 -0.2619
 2667TIP3    H1 7965   0.531   6.440   0.304  3.2664 -0.2457  0.7738
 2667TIP3    H2 7966   0.476   6.447   0.445 -2.6020 -0.5835 -1.2233
 2668TIP3   OH2 7967   3.532   5.854   0.624  0.0665 -0.3454 -0.4081
 2668TIP3    H1 7968   3.494   5.931   0.581  1.4994  0.2430 -0.6673
 2668TIP3    H2 7969   3.526   5.873   0.718 -0.7158 -0.4887 -0.4214
 2669TIP3   OH2 7970   2.872   3.612   4.967 -0.5857 -0.0044  0.0529
 2669TIP3    H1 7971   2.942   3.547   4.979  1.3292  1.9436  0.1241
 2669TIP3    H2 7972   2.829   3.617   5.053  0.4115  0.0685  0.5642
 2670TIP3   OH2 7973   5.203   2.772   1.789 -0.3538  0.5379 -0.2150
 2670TIP3    H1 7974   5.247   2.856   1.785  0.5620  0.0197 -1.8434
 2670TIP3    H2 7975   5.137   2.783   1.857  0.6092  2.1383  0.5169
 2671TIP3   OH2 7976   5.462   6.710   5.674  0.1652  0.5219  0.1170
 2671TIP3    H1 7977   5.449   6.754   5.589 -2.2524 -2.0150 -0.9789
 2671TIP3    H2 7978   5.484   6.620   5.651 -3.1112 -0.9451  2.0271
 2672TIP3   OH2 7979   4.554   2.004   0.549 -0.4045  0.7351 -0.4744
 2672TIP3    H1 7980   4.572   2.076   0.610  0.9175 -1.1270  1.4622
 2672TIP3    H2 7981   4.523   1.933   0.605 -2.1415 -0.1081 -2.3820
 2673TIP3   OH2 7982   6.045   2.517   2.696  0.0255 -0.3430 -0.5449
 2673TIP3    H1 7983   5.994   2.548   2.621 -0.3021 -0.1222 -0.2319
 2673TIP3    H2 7984   5.982   2.472   2.752  0.2638 -0.4865 -0.3864
 2674TIP3   OH2 7985   1.126   2.119   1.220  0.4141 -0.2948  0.2069
 2674TIP3    H1 7986   1.133   2.044   1.279 -2.4309 -1.4133 -0.6689
 2674TIP3    H2 7987   1.137   2.081   1.132 -3.5424 -0.3890 -0.4520
 2675TIP3   OH2 7988   3.100   4.133   5.777 -0.0197  0.2028 -0.1611
 2675TIP3    H1 7989   3.135   4.082   5.705 -1.5995 -1.2896  0.0494
 2675TIP3    H2 7990   3.147   4.216   5.774  0.8415 -0.3135 -2.1001
 2676TIP3   OH2 7991   1.436   3.136   1.533 -0.4377 -0.8274  0.0454
 2676TIP3    H1 7992   1.358   3.083   1.548  0.2672 -2.0810 -0.4488
 2676TIP3    H2 7993   1.473   3.099   1.452  1.3932 -1.2066  1.0120
 2677TIP3   OH2 7994   3.085   1.236   5.232 -0.4843  0.2269  0.1831
 2677TIP3    H1 7995   3.092   1.272   5.144 -2.0443  4.0852  1.4363
 2677TIP3    H2 7996   3.174   1.244   5.268  0.0355 -0.8651 -0.7992
 2678TIP3   OH2 7997   1.403   0.980   1.382  0.3335 -0.4206  0.6995
 2678TIP3    H1 7998   1.492   1.001   1.410  0.0001 -0.8151  2.1459
 2678TIP3    H2 7999   1.374   0.913   1.443 -0.4723 -1.3151 -0.6237
 2679TIP3   OH2 8000   1.142   1.491   3.377 -0.3174  0.2031 -0.0591
 2679TIP3    H1 8001   1.157   1.491   3.472 -0.1466 -1.2019 -0.0637
 2679TIP3    H2 8002   1.060   1.540   3.366  0.1787  1.2548  0.7004
 2680TIP3   OH2 8003   1.636   2.728   1.542 -0.4893 -0.5849 -0.3161
 2680TIP3    H1 8004   1.662   2.666   1.475 -1.2885 -0.0412 -1.1578
 2680TIP3    H2 8005   1.612   2.807   1.493 -1.4244 -0.2955  0.5755
 2681TIP3   OH2 8006   6.421   6.327   4.266 -0.4673  0.5247 -0.4971
 2681TIP3    H1 8007   6.487   6.393   4.246 -0.1463  0.7112  1.0057
 2681TIP3    H2 8008   6.441   6.253   4.208  2.1590 -0.1070  1.0276
 2682TIP3   OH2 8009   1.238   1.044   0.431  0.0935  0.3652 -0.0433
 2682TIP3    H1 8010   1.155   1.033   0.386 -0.3401  0.5580  0.6886
 2682TIP3    H2 8011   1.255   1.138   0.429  1.2444  0.1671 -1.8187
 2683TIP3   OH2 8012   4.578   5.651   5.708 -0.0219  0.2885 -0.1132
 2683TIP3    H1 8013   4.533   5.733   5.730  0.4072  0.4336  0.2433
 2683TIP3    H2 8014   4.646   5.677   5.646  0.5893  0.3303  0.5536
 2684TIP3   OH2 8015   7.097   0.611   4.481  0.3516  0.3187 -0.3932
 2684TIP3    H1 8016   7.059   0.575   4.402 -3.4637  1.0879  0.8902
 2684TIP3    H2 8017   7.150   0.540   4.517  3.2635  0.3220 -4.0349
 2685TIP3   OH2 8018   4.177   1.328   4.765  0.1285  0.7453  0.3404
 2685TIP3    H1 8019   4.271   1.315   4.776 -0.1279 -2.4665 -0.3640
 2685TIP3    H2 8020   4.148   1.361   4.850  1.5067 -1.0590  1.6063
 2686TIP3   OH2 8021   2.253   1.900   5.642  0.4598 -0.7616  0.0941
 2686TIP3    H1 8022   2.278   1.987   5.611  1.4854 -0.5811  1.3652
 2686TIP3    H2 8023   2.335   1.857   5.666 -0.1092 -1.7288  0.3891
 2687TIP3   OH2 8024   0.596   4.621   3.374  0.3607  0.1599 -0.2158
 2687TIP3    H1 8025   0.670   4.609   3.432 -0.3757  1.3187  1.0224
 2687TIP3    H2 8026   0.573   4.714   3.383 -1.1065 -0.1280 -0.7259
 2688TIP3   OH2 8027   3.845   2.170   0.536 -0.0242  0.2911 -0.5094
 2688TIP3    H1 8028   3.806   2.126   0.461 -1.6816 -0.2993  0.6389
 2688TIP3    H2 8029   3.780   2.234   0.563  0.4109  0.3018  0.5934
 2689TIP3   OH2 8030   2.901   2.342   2.815 -0.0257  0.2890  0.4878
 2689TIP3    H1 8031   2.898   2.250   2.787 -2.1415  0.5695 -0.3454
 2689TIP3    H2 8032   2.865   2.341   2.904 -2.2265  0.5301 -0.3386
 2690TIP3   OH2 8033   1.429   1.723   1.072  0.1256 -0.0449 -0.1650
 2690TIP3    H1 8034   1.342   1.683   1.070  0.6711 -1.2560 -1.7251
 2690TIP3    H2 8035   1.486   1.654   1.106  0.6368  0.4293 -0.0434
 2691TIP3   OH2 8036   2.678   5.271   5.038  0.1146 -0.1080  0.1422
 2691TIP3    H1 8037   2.628   5.348   5.064  0.7752  0.8262 -1.2445
 2691TIP3    H2 8038   2.617   5.218   4.987  0.1193  0.3111 -0.3015
 2692TIP3   OH2 8039   2.319   1.147   2.551  0.3219  0.3145 -0.0852
 2692TIP3    H1 8040   2.338   1.164   2.458  1.6985 -0.2939  0.0645
 2692TIP3    H2 8041   2.361   1.219   2.597  0.7293 -0.0619  0.1383
 2693TIP3   OH2 8042   2.143   0.680   0.847  0.0377  0.4421  0.1534
 2693TIP3    H1 8043   2.145   0.697   0.752  3.3311 -2.0040 -0.3829
 2693TIP3    H2 8044   2.126   0.587   0.854 -1.7362  0.8458  2.1569
 2694TIP3   OH2 8045   0.106   3.155   3.745 -0.4876 -0.8068 -0.1195
 2694TIP3    H1 8046   0.146   3.222   3.691  1.8893 -1.3921  0.7781
 2694TIP3    H2 8047   0.140   3.172   3.833 -3.1583 -0.7044  1.0029
 2695TIP3   OH2 8048   1.887   2.199   4.513 -0.2319 -0.3243 -0.3574
 2695TIP3    H1 8049   1.846   2.128   4.563 -0.8411 -0.2458 -0.7377
 2695TIP3    H2 8050   1.959   2.229   4.569  0.6319 -1.8669 -0.6096
 2696TIP3   OH2 8051   1.731   5.997   3.640 -0.0972 -0.2069  0.6980
 2696TIP3    H1 8052   1.735   6.024   3.549  1.0237  0.7326  1.0025
 2696TIP3    H2 8053   1.748   5.903   3.638  1.7244  0.1013  0.0647
 2697TIP3   OH2 8054   5.645   3.099   5.792 -0.1486  0.5715  0.4565
 2697TIP3    H1 8055   5.563   3.061   5.763  0.4102 -1.2031  1.0772
 2697TIP3    H2 8056   5.706   3.025   5.799  1.5795  1.8463 -0.2025
 2698TIP3   OH2 8057   2.298   3.071   2.292  0.4283  0.2137  0.3263
 2698TIP3    H1 8058   2.215   3.117   2.280  0.0506 -0.4288  0.4780
 2698TIP3    H2 8059   2.347   3.127   2.353  1.5611  2.4468 -2.3660
 2699TIP3   OH2 8060   3.115   3.847   2.202  0.1297 -0.2715 -0.1229
 2699TIP3    H1 8061   3.143   3.934   2.228  0.1251  0.3190 -1.9401
 2699TIP3    H2 8062   3.191   3.809   2.158 -0.3497 -0.5700 -0.7151
 2700TIP3   OH2 8063   2.883   4.228   0.518  0.3097 -0.0361  0.0992
 2700TIP3    H1 8064   2.962   4.197   0.562  0.6247 -2.3222 -1.8475
 2700TIP3    H2 8065   2.915   4.294   0.457  0.2865  0.9809  1.1503
 2701TIP3   OH2 8066   3.617   4.677   3.015 -0.0457  0.1161  0.1292
 2701TIP3    H1 8067   3.623   4.662   2.921 -0.4451 -1.2333  0.2983
 2701TIP3    H2 8068   3.680   4.747   3.033  0.5372 -0.0946 -1.0352
 2702TIP3   OH2 8069   6.168   6.331   1.487  0.5685 -0.0434 -0.0226
 2702TIP3    H1 8070   6.142   6.307   1.398  0.6751 -1.0292  0.1900
 2702TIP3    H2 8071   6.264   6.334   1.483  0.6761 -1.8114  0.4350
 2703TIP3   OH2 8072   4.058   6.821   1.792 -0.2255  0.5910 -0.6644
 2703TIP3    H1 8073   4.053   6.730   1.822 -2.1258  0.3912 -1.4746
 2703TIP3    H2 8074   4.064   6.814   1.697 -1.3606  1.2948 -0.8067
 2704TIP3   OH2 8075   3.567   4.030   0.702  0.2203  0.3826  0.9736
 2704TIP3    H1 8076   3.613   4.100   0.748 -0.2368 -0.5631  2.9470
 2704TIP3    H2 8077   3.636   3.965   0.684  0.4189  0.7982  0.1979
 2705TIP3   OH2 8078   1.373   4.002   3.131  0.1422 -0.0078  0.5111
 2705TIP3    H1 8079   1.397   4.093   3.147 -1.4068  0.4903  0.1897
 2705TIP3    H2 8080   1.399   3.985   3.040 -0.5569  0.4618  0.2214
 2706TIP3   OH2 8081   3.679   1.109   3.686  0.1948  0.0455  0.0717
 2706TIP3    H1 8082   3.734   1.175   3.729  1.5911 -1.2237  0.3102
 2706TIP3    H2 8083   3.594   1.115   3.730  0.4462  1.3234  0.4208
 2707TIP3   OH2 8084   0.418   6.231   0.875 -0.5096 -0.2375  0.6015
 2707TIP3    H1 8085   0.385   6.307   0.923 -0.2832 -0.3457  0.9313
 2707TIP3    H2 8086   0.349   6.165   0.884 -1.1930  0.2731 -0.5901
 2708TIP3   OH2 8087   2.061   3.331   0.275  0.7070  0.1607 -0.3804
 2708TIP3    H1 8088   2.031   3.421   0.270 -0.2409 -0.0602  0.9033
 2708TIP3    H2 8089   2.103   3.315   0.190  1.4338  1.9778 -0.4175
 2709TIP3   OH2 8090   6.070   6.409   2.758  0.6318  0.1268 -0.6023
 2709TIP3    H1 8091   6.041   6.450   2.676  1.0887 -0.0887 -0.8720
 2709TIP3    H2 8092   6.162   6.432   2.765  0.4761  0.5545  0.1059
 2710TIP3   OH2 8093   1.651   1.407   2.421 -0.8918 -0.0832 -0.3247
 2710TIP3    H1 8094   1.699   1.348   2.479  0.0270  1.2248  0.2805
 2710TIP3    H2 8095   1.573   1.357   2.397 -0.4320 -1.3293  0.6206
 2711TIP3   OH2 8096   0.699   0.643   0.287 -0.1210 -0.2823  0.6889
 2711TIP3    H1 8097   0.648   0.582   0.233  0.0757 -0.0510  0.2351
 2711TIP3    H2 8098   0.641   0.665   0.360 -0.6112 -0.1573  0.2670
 2712TIP3   OH2 8099   1.356   1.653   4.321  0.2034 -0.0710  0.4229
 2712TIP3    H1 8100   1.436   1.633   4.370  1.1872 -1.3281 -1.5384
 2712TIP3    H2 8101   1.311   1.569   4.313  0.0764  0.0848 -0.7620
 2713TIP3   OH2 8102   5.324   2.860   4.206  0.2743 -0.3840  0.0219
 2713TIP3    H1 8103   5.327   2.873   4.111  0.1307 -0.5795 -0.0088
 2713TIP3    H2 8104   5.264   2.788   4.219  0.2407 -0.3140  0.2683
 2714TIP3   OH2 8105   2.000   4.899   2.753  0.4806 -0.7590 -0.0783
 2714TIP3    H1 8106   1.982   4.880   2.845 -0.4726 -1.7676 -0.4607
 2714TIP3    H2 8107   1.962   4.986   2.739  1.2245 -0.3037  0.6340
 2715TIP3   OH2 8108   0.415   4.691   2.154  0.9037  0.2064 -0.3438
 2715TIP3    H1 8109   0.378   4.688   2.242 -1.3049 -0.7908 -1.2442
 2715TIP3    H2 8110   0.361   4.631   2.103  0.9416  2.1164 -2.8226
 2716TIP3   OH2 8111   1.032   5.593   5.482 -0.5953  0.0694  0.4979
 2716TIP3    H1 8112   1.085   5.660   5.438 -1.0869  0.6937  0.8447
 2716TIP3    H2 8113   1.094   5.549   5.540  0.0299 -0.6602 -0.6626
 2717TIP3   OH2 8114   6.940   2.642   0.498  0.1255 -0.3774 -0.0379
 2717TIP3    H1 8115   6.919   2.643   0.591  0.4657 -0.4041  0.0379
 2717TIP3    H2 8116   6.917   2.554   0.469 -0.7285 -0.1298 -0.1519
 2718TIP3   OH2 8117   2.978   6.527   2.317  0.0951 -0.2845  0.9812
 2718TIP3    H1 8118   3.009   6.578   2.392 -1.1553 -1.2433  2.1963
 2718TIP3    H2 8119   2.990   6.436   2.343 -1.5521 -0.6491  0.5676
 2719TIP3   OH2 8120   4.165   4.758   1.624 -0.0305  0.1547  0.3476
 2719TIP3    H1 8121   4.075   4.766   1.591 -0.0274 -1.9232 -0.3283
 2719TIP3    H2 8122   4.175   4.832   1.685 -1.7111  1.2340 -0.5948
 2720TIP3   OH2 8123   5.751   5.661   0.827  0.0410  0.2127 -0.4216
 2720TIP3    H1 8124   5.803   5.727   0.781  0.1750 -0.5775 -1.4551
 2720TIP3    H2 8125   5.804   5.635   0.901  0.3513  0.6573 -0.4825
 2721TIP3   OH2 8126   3.051   2.843   1.669  0.0899 -0.6858  0.2918
 2721TIP3    H1 8127   3.145   2.861   1.659  0.4248 -2.4314 -0.0907
 2721TIP3    H2 8128   3.019   2.913   1.726  0.6065  2.7427 -3.2599
 2722TIP3   OH2 8129   1.436   0.687   2.927  1.0275 -0.0230  0.0714
 2722TIP3    H1 8130   1.465   0.683   2.836 -0.5044  1.3181 -0.5227
 2722TIP3    H2 8131   1.458   0.776   2.955 -2.0165  0.9633 -0.3108
 2723TIP3   OH2 8132   7.068   4.193   4.513 -0.4984 -0.5150  0.2119
 2723TIP3    H1 8133   7.163   4.201   4.506 -0.5757  1.1385  0.7378
 2723TIP3    H2 8134   7.054   4.111   4.562  0.6607 -0.4855  0.6218
 2724TIP3   OH2 8135   7.159   5.776   5.213 -0.3567 -0.4461 -0.1603
 2724TIP3    H1 8136   7.211   5.835   5.159 -1.6683 -1.1380 -2.3591
 2724TIP3    H2 8137   7.072   5.815   5.215 -0.4702 -0.7188  1.0603
 2725TIP3   OH2 8138   6.065   3.837   4.952 -0.0527 -0.1558 -0.1397
 2725TIP3    H1 8139   6.111   3.812   5.032 -2.0472  0.6397  1.3381
 2725TIP3    H2 8140   6.000   3.768   4.939 -1.0733  0.7256  0.1113
 2726TIP3   OH2 8141   0.746   5.954   1.494  0.2814  0.4425 -0.2728
 2726TIP3    H1 8142   0.656   5.983   1.484 -0.6025 -1.7645  0.6193
 2726TIP3    H2 8143   0.776   5.996   1.575  0.1663  1.4207 -0.7325
 2727TIP3   OH2 8144   0.560   1.320   0.175 -0.3116  0.2277  0.2399
 2727TIP3    H1 8145   0.513   1.334   0.258  0.0647  1.2465  0.3061
 2727TIP3    H2 8146   0.625   1.391   0.173  0.2832 -0.3215 -0.5081
 2728TIP3   OH2 8147   0.035   0.124   5.583 -0.2974 -0.1802  0.1814
 2728TIP3    H1 8148   0.075   0.145   5.498 -0.8930  1.2182  0.2087
 2728TIP3    H2 8149  -0.056   0.152   5.574 -0.6013 -0.8659  0.9867
 2729TIP3   OH2 8150   3.355   0.962   1.166 -0.2655 -0.7272  0.0403
 2729TIP3    H1 8151   3.420   1.032   1.171 -1.0101 -0.0226  0.1726
 2729TIP3    H2 8152   3.391   0.892   1.221  0.6064 -0.5537 -0.2916
 2730TIP3   OH2 8153   3.706   6.816   1.010 -0.2050 -0.3125 -0.5219
 2730TIP3    H1 8154   3.726   6.722   1.013  0.9404 -0.0954 -1.0115
 2730TIP3    H2 8155   3.663   6.833   1.094  1.0499 -0.9623  0.2805
 2731TIP3   OH2 8156   3.647   4.105   2.603 -0.1820 -0.5662 -0.0206
 2731TIP3    H1 8157   3.683   4.182   2.559 -0.3219  0.0215  0.8544
 2731TIP3    H2 8158   3.570   4.139   2.650  0.6046 -0.9067  1.5745
 2732TIP3   OH2 8159   6.700   2.871   4.752  0.5085 -0.7334  0.1209
 2732TIP3    H1 8160   6.615   2.848   4.714  0.7367 -1.1160 -0.1715
 2732TIP3    H2 8161   6.680   2.909   4.837 -0.0237  0.1785 -0.3929
 2733TIP3   OH2 8162   2.848   4.094   2.153 -0.0271 -0.4968  0.1986
 2733TIP3    H1 8163   2.899   4.068   2.076  1.4155  0.7297  0.6962
 2733TIP3    H2 8164   2.913   4.103   2.223 -1.4013 -2.6451  1.9278
 2734TIP3   OH2 8165   0.912   2.799   3.150  0.3552 -0.5583  0.4522
 2734TIP3    H1 8166   0.939   2.866   3.087  1.8710 -0.8235  0.7784
 2734TIP3    H2 8167   0.985   2.737   3.152 -1.0105 -2.2450  0.1538
 2735TIP3   OH2 8168   5.867   2.487   0.863  0.0343 -0.4174 -0.0365
 2735TIP3    H1 8169   5.862   2.483   0.767  0.4558  0.2341 -0.0941
 2735TIP3    H2 8170   5.913   2.407   0.888  2.9122  0.9046 -0.6595
 2736TIP3   OH2 8171   7.099   6.693   1.190  0.2006 -0.2782  0.2264
 2736TIP3    H1 8172   7.044   6.703   1.268  0.0690 -2.0160  0.4049
 2736TIP3    H2 8173   7.073   6.765   1.133  0.0896  0.8626  1.6548
 2737TIP3   OH2 8174   3.927   5.521   2.722 -0.4796 -0.5683  0.0637
 2737TIP3    H1 8175   3.940   5.428   2.740 -0.7491 -1.7443 -4.4199
 2737TIP3    H2 8176   4.015   5.558   2.722  0.0475 -1.7073 -1.3834
 2738TIP3   OH2 8177   7.155   2.099   4.699 -0.4228  0.0681 -0.0069
 2738TIP3    H1 8178   7.067   2.102   4.737 -1.0037 -0.8021 -1.2045
 2738TIP3    H2 8179   7.176   2.191   4.680 -1.7455  0.1674 -1.1414
 2739TIP3   OH2 8180   6.194   4.132   3.953  0.1367  0.1986  0.0779
 2739TIP3    H1 8181   6.128   4.111   3.886  1.5299 -1.4032 -0.8597
 2739TIP3    H2 8182   6.244   4.204   3.915  0.4995 -0.2615 -0.3364
 2740TIP3   OH2 8183   0.851   2.060   4.584 -0.6346  0.3967  0.1521
 2740TIP3    H1 8184   0.757   2.049   4.601 -0.2148 -0.8612  1.8085
 2740TIP3    H2 8185   0.888   1.973   4.592  0.4434  0.5122 -2.4725
 2741TIP3   OH2 8186   4.138   0.374   5.306 -0.4009  0.1861 -0.1638
 2741TIP3    H1 8187   4.177   0.423   5.379 -1.0962 -0.6223  0.7867
 2741TIP3    H2 8188   4.166   0.421   5.228  1.3113  0.4342  0.5586
 2742TIP3   OH2 8189   5.672   2.009   4.098 -0.1812  0.2718  0.1207
 2742TIP3    H1 8190   5.668   2.089   4.045  1.1766  0.3940  0.1627
 2742TIP3    H2 8191   5.706   1.943   4.038  2.5303  0.6896  1.0739
 2743TIP3   OH2 8192   0.639   3.204   4.382 -0.5396  0.1344  0.1984
 2743TIP3    H1 8193   0.635   3.235   4.472  1.0173 -1.7243  0.9892
 2743TIP3    H2 8194   0.710   3.140   4.382 -0.8906 -0.3627 -2.2284
 2744TIP3   OH2 8195   1.767   5.172   0.439  0.5041  0.0449 -0.6256
 2744TIP3    H1 8196   1.852   5.199   0.474  0.1899 -0.1059  0.2923
 2744TIP3    H2 8197   1.787   5.102   0.377  0.9946 -0.5739  0.2067
 2745TIP3   OH2 8198   1.247   0.426   0.085 -0.1130  0.3439  0.5374
 2745TIP3    H1 8199   1.169   0.399   0.133  0.0460 -1.3554 -0.0836
 2745TIP3    H2 8200   1.215   0.447  -0.003  0.3178 -2.8311 -0.5368
 2746TIP3   OH2 8201   5.610   1.236   4.951  0.4602 -0.5248 -0.0230
 2746TIP3    H1 8202   5.588   1.237   4.858  1.3017 -0.6214 -0.2317
 2746TIP3    H2 8203   5.705   1.230   4.953  0.5901  1.2763  0.8481
 2747TIP3   OH2 8204   3.946   2.651   4.649  0.1144 -0.5819  0.3188
 2747TIP3    H1 8205   3.927   2.594   4.723 -1.3657  0.9713  1.2002
 2747TIP3    H2 8206   3.987   2.728   4.688 -1.0632  0.4361 -0.3872
 2748TIP3   OH2 8207   0.714   2.692   0.670  0.1499 -0.0312  0.0522
 2748TIP3    H1 8208   0.798   2.653   0.648 -0.4664 -2.0722  1.0434
 2748TIP3    H2 8209   0.729   2.736   0.753 -0.0204 -1.5766  0.9485
 2749TIP3   OH2 8210   1.739   5.876   2.240  0.4810 -0.2987 -0.2416
 2749TIP3    H1 8211   1.678   5.837   2.177  0.4768  0.5043 -0.7468
 2749TIP3    H2 8212   1.695   5.956   2.270  0.4436 -0.7090  0.8587
 2750TIP3   OH2 8213   4.162   6.642   3.860  0.3064 -0.0708  0.7690
 2750TIP3    H1 8214   4.242   6.694   3.862 -0.0650  0.5193  2.5385
 2750TIP3    H2 8215   4.095   6.701   3.897 -1.2841 -0.0606 -1.8449
 2751TIP3   OH2 8216   4.914   3.531   3.408  0.3123  0.5050  0.1392
 2751TIP3    H1 8217   4.982   3.494   3.352 -0.7639 -0.5774 -0.4944
 2751TIP3    H2 8218   4.902   3.620   3.377  1.0980  0.5473 -0.0541
 2752TIP3   OH2 8219   1.360   0.858   3.779  0.1093  0.4079 -0.0117
 2752TIP3    H1 8220   1.390   0.913   3.851 -0.0784  0.6743 -0.1364
 2752TIP3    H2 8221   1.377   0.911   3.700 -1.1431  0.7739 -0.0571
 2753TIP3   OH2 8222   6.836   3.424   2.252  0.1747 -0.1428 -0.3346
 2753TIP3    H1 8223   6.799   3.337   2.268 -0.2983  0.0358 -0.4379
 2753TIP3    H2 8224   6.837   3.432   2.156  1.1920 -0.4412 -0.3652
 2754TIP3   OH2 8225   3.353   1.219   5.301 -0.0031  0.1922 -0.4471
 2754TIP3    H1 8226   3.340   1.301   5.348 -1.5388 -0.0154 -0.4663
 2754TIP3    H2 8227   3.445   1.221   5.274  1.0865  0.1822  2.8091
 2755TIP3   OH2 8228   0.521   4.059   2.878  0.2575  0.4466  0.1898
 2755TIP3    H1 8229   0.435   4.022   2.860  0.1856  0.6654  0.0772
 2755TIP3    H2 8230   0.540   4.115   2.802  1.0390 -0.5519 -0.3676
 2756TIP3   OH2 8231   5.954   5.843   4.607 -0.0430 -0.2466  0.1090
 2756TIP3    H1 8232   5.996   5.787   4.672  0.7409 -0.7447 -0.7988
 2756TIP3    H2 8233   5.981   5.932   4.630 -2.1291 -0.0605  2.1840
 2757TIP3   OH2 8234   0.955   5.416   3.717 -0.6245  0.0180 -0.7635
 2757TIP3    H1 8235   1.051   5.414   3.726 -0.5775  1.3342 -0.7018
 2757TIP3    H2 8236   0.936   5.359   3.642 -0.0532 -2.3962  0.8149
 2758TIP3   OH2 8237   3.267   5.125   0.079 -0.6311 -0.0934  0.0085
 2758TIP3    H1 8238   3.275   5.197   0.142 -0.3675  0.5857 -0.7729
 2758TIP3    H2 8239   3.189   5.147   0.028 -0.1824 -0.0221 -0.6518
 2759TIP3   OH2 8240   3.803   1.975   2.109 -0.3112 -0.0019  0.2199
 2759TIP3    H1 8241   3.760   1.924   2.041  0.2258 -1.9769  1.2695
 2759TIP3    H2 8242   3.862   2.033   2.062 -1.0808 -0.1952 -1.0453
 2760TIP3   OH2 8243   5.986   6.056   1.102 -0.2835 -0.4220 -0.5736
 2760TIP3    H1 8244   6.014   5.999   1.173 -1.7436  1.7739  1.9501
 2760TIP3    H2 8245   6.026   6.141   1.121 -1.3979  0.4555 -1.8909
 2761TIP3   OH2 8246   5.646   3.650   1.397  0.2575 -0.0052  0.0428
 2761TIP3    H1 8247   5.609   3.708   1.331 -0.0076  0.4653  0.5962
 2761TIP3    H2 8248   5.613   3.684   1.481  3.4452  1.7380  0.8023
 2762TIP3   OH2 8249   2.998   3.823   5.088 -0.4163  0.1753  0.3247
 2762TIP3    H1 8250   2.936   3.763   5.046 -0.1793  0.3811 -0.3266
 2762TIP3    H2 8251   3.022   3.779   5.170 -0.4282 -0.5138 -0.0318
 2763TIP3   OH2 8252   5.261   4.098   2.341  0.0083  0.1396 -0.1098
 2763TIP3    H1 8253   5.282   4.181   2.385 -0.2860  0.0275  0.2460
 2763TIP3    H2 8254   5.319   4.034   2.382 -2.4746 -0.6515  2.5310
 2764TIP3   OH2 8255   0.451   2.866   1.244  0.6434 -0.6689  0.0435
 2764TIP3    H1 8256   0.538   2.826   1.248  0.3512 -1.3220  0.0291
 2764TIP3    H2 8257   0.390   2.792   1.242  0.0545 -0.2233  0.6870
 2765TIP3   OH2 8258   5.599   3.518   3.852  0.2227  0.0277  0.0071
 2765TIP3    H1 8259   5.687   3.527   3.815  0.5913  1.3790  1.1306
 2765TIP3    H2 8260   5.541   3.530   3.776  0.9648  2.4104 -0.2871
 2766TIP3   OH2 8261   6.753   1.549   0.246 -0.6238 -0.1599  0.3426
 2766TIP3    H1 8262   6.790   1.598   0.320 -0.1265  0.7614 -0.4990
 2766TIP3    H2 8263   6.659   1.567   0.250 -0.3924  1.3306 -0.2594
 2767TIP3   OH2 8264   0.969   2.723   5.599  0.5122 -0.1566  0.4227
 2767TIP3    H1 8265   1.044   2.762   5.643  1.5021 -0.5233 -0.8753
 2767TIP3    H2 8266   0.967   2.633   5.630  0.5550 -0.1244  0.5188
 2768TIP3   OH2 8267   2.529   3.586   2.826  0.1008  0.2899 -0.0098
 2768TIP3    H1 8268   2.459   3.645   2.853 -0.5263 -1.0853  1.4877
 2768TIP3    H2 8269   2.600   3.602   2.888  0.4153  0.3473 -0.3760
 2769TIP3   OH2 8270   3.977   4.845   2.274  0.5889  0.1140 -0.4101
 2769TIP3    H1 8271   3.945   4.755   2.277 -0.3372  0.4040 -1.1264
 2769TIP3    H2 8272   4.066   4.840   2.309  0.0681 -0.8494  0.8640
 2770TIP3   OH2 8273   5.531   5.325   5.594  0.1784 -0.0015 -0.3607
 2770TIP3    H1 8274   5.456   5.340   5.537  0.5525 -0.3826 -0.9749
 2770TIP3    H2 8275   5.583   5.405   5.588  0.2177 -0.0414 -0.5635
 2771TIP3   OH2 8276   0.547   6.209   2.064 -0.0290 -0.6680  0.1233
 2771TIP3    H1 8277   0.486   6.282   2.051 -0.5683 -0.9630  0.9185
 2771TIP3    H2 8278   0.498   6.132   2.034  0.3436 -0.7728 -0.2175
 2772TIP3   OH2 8279   2.185   4.327   5.081 -0.0274  0.3463 -0.0719
 2772TIP3    H1 8280   2.166   4.236   5.107 -1.0256 -0.2672 -2.6066
 2772TIP3    H2 8281   2.279   4.329   5.066 -0.0658 -0.4682 -0.4972
 2773TIP3   OH2 8282   2.147   2.357   3.458  0.3078 -0.2180  1.0887
 2773TIP3    H1 8283   2.062   2.381   3.421  0.5238 -1.6916 -0.4630
 2773TIP3    H2 8284   2.203   2.433   3.439 -0.2730  0.1508  0.8134
 2774TIP3   OH2 8285   4.804   1.052   4.791  0.5711 -0.4508  0.2585
 2774TIP3    H1 8286   4.715   1.040   4.759 -0.0078 -1.7301  2.1231
 2774TIP3    H2 8287   4.860   1.015   4.723 -0.4556 -1.2917 -0.1470
 2775TIP3   OH2 8288   6.852   5.742   0.407  0.0561 -0.0674  0.1794
 2775TIP3    H1 8289   6.836   5.648   0.397 -1.9123  0.3788 -1.4118
 2775TIP3    H2 8290   6.798   5.784   0.340  1.4810  2.1936  0.3140
 2776TIP3   OH2 8291   2.224   5.796   2.035 -0.2135 -0.0815  0.2408
 2776TIP3    H1 8292   2.192   5.817   2.123 -0.1262 -0.8656  0.4704
 2776TIP3    H2 8293   2.299   5.854   2.022 -0.0279 -0.1810  0.8128
 2777TIP3   OH2 8294   3.209   3.826   1.413 -0.8674 -0.0165  0.3466
 2777TIP3    H1 8295   3.220   3.815   1.319 -1.9177  2.5834 -0.1698
 2777TIP3    H2 8296   3.131   3.881   1.422 -1.0107 -0.4863  2.7707
 2778TIP3   OH2 8297   5.230   2.071   1.545 -0.1135 -0.1263 -0.3990
 2778TIP3    H1 8298   5.226   2.160   1.580  0.0503 -0.1204 -0.3953
 2778TIP3    H2 8299   5.310   2.033   1.582  0.3087  0.0321 -1.1127
 2779TIP3   OH2 8300   0.591   2.950   5.372  0.1892 -0.7643 -0.1004
 2779TIP3    H1 8301   0.560   2.883   5.311 -0.9231 -1.5476  1.2604
 2779TIP3    H2 8302   0.651   2.903   5.430 -0.8041 -0.6763  1.0280
 2780TIP3   OH2 8303   1.708   5.328   4.783 -0.4682 -0.0069  0.4822
 2780TIP3    H1 8304   1.793   5.362   4.811 -0.4914  0.7985 -0.3764
 2780TIP3    H2 8305   1.646   5.366   4.845 -0.4303  1.1010 -0.1442
 2781TIP3   OH2 8306   7.124   5.532   0.262 -0.3670 -0.5396  0.2181
 2781TIP3    H1 8307   7.203   5.499   0.306 -0.9632 -0.4602  1.3991
 2781TIP3    H2 8308   7.148   5.618   0.229  0.0767 -0.5478  0.5122
 2782TIP3   OH2 8309   6.780   2.663   2.188 -0.3757 -0.1327  0.0733
 2782TIP3    H1 8310   6.687   2.652   2.168 -0.3639  1.1630 -0.8450
 2782TIP3    H2 8311   6.821   2.674   2.102  0.4179  0.6596  0.5370
 2783TIP3   OH2 8312   6.129   6.053   3.420  0.1140 -0.7045  0.0606
 2783TIP3    H1 8313   6.177   5.994   3.479 -1.5561 -1.6445  0.5339
 2783TIP3    H2 8314   6.037   6.030   3.433 -0.3550 -0.4388 -2.3832
 2784TIP3   OH2 8315   1.492   0.367   4.531 -0.1535  0.1937 -0.3067
 2784TIP3    H1 8316   1.412   0.317   4.547 -0.2773  0.1671 -0.9769
 2784TIP3    H2 8317   1.556   0.302   4.502  0.3583  0.0921  0.9440
 2785TIP3   OH2 8318   3.698   3.777   3.362  0.1447  0.2592  0.6117
 2785TIP3    H1 8319   3.605   3.766   3.378 -0.3785 -1.2188 -2.7311
 2785TIP3    H2 8320   3.735   3.689   3.369  0.2374 -0.1618 -3.0312
 2786TIP3   OH2 8321   1.963   6.549   3.412 -0.7115 -0.1277 -0.0112
 2786TIP3    H1 8322   2.052   6.550   3.376 -0.6165 -0.1680  0.2187
 2786TIP3    H2 8323   1.910   6.508   3.344 -0.8467  1.3354 -0.8281
 2787TIP3   OH2 8324   0.556   0.913   1.059  0.5398  0.3052  0.0488
 2787TIP3    H1 8325   0.563   0.967   0.980 -2.1786 -1.4003 -1.5097
 2787TIP3    H2 8326   0.500   0.964   1.118  0.3011  0.3975 -0.2575
 2788TIP3   OH2 8327   2.096   2.819   3.764  0.0273  0.2257 -0.2693
 2788TIP3    H1 8328   2.020   2.874   3.745  1.0784  2.1295  0.7790
 2788TIP3    H2 8329   2.069   2.731   3.735 -2.4012  0.8969 -0.3069
 2789TIP3   OH2 8330   2.858   2.257   5.315  0.6453 -0.2952 -0.6135
 2789TIP3    H1 8331   2.814   2.310   5.381 -0.3859 -1.1158 -0.6205
 2789TIP3    H2 8332   2.951   2.266   5.335  0.3656 -0.3626  0.8296
 2790TIP3   OH2 8333   1.443   4.504   5.247 -0.0186  0.5039  0.4002
 2790TIP3    H1 8334   1.469   4.583   5.198  1.3193  1.2662  2.2309
 2790TIP3    H2 8335   1.356   4.483   5.213  0.3203  1.7093 -1.3903
 2791TIP3   OH2 8336   3.776   0.382   2.681 -0.0320 -0.4938  0.0305
 2791TIP3    H1 8337   3.761   0.307   2.623 -0.3263 -1.2485  1.0634
 2791TIP3    H2 8338   3.693   0.428   2.683 -0.1440 -0.7041  0.1927
 2792TIP3   OH2 8339   5.538   0.903   4.110 -0.1273  0.6197  0.0750
 2792TIP3    H1 8340   5.623   0.868   4.082 -0.5827  0.4671 -1.1627
 2792TIP3    H2 8341   5.511   0.846   4.181 -0.3146 -0.8851 -1.1533
 2793TIP3   OH2 8342   5.726   5.148   4.219 -0.0422  0.8787 -0.0445
 2793TIP3    H1 8343   5.732   5.054   4.204 -1.2246  0.5452  1.2796
 2793TIP3    H2 8344   5.816   5.177   4.232  0.4641  0.2009 -1.7880
 2794TIP3   OH2 8345   6.547   5.414   5.235 -0.0939 -0.1429  0.5374
 2794TIP3    H1 8346   6.471   5.458   5.275  0.4001  1.7748 -0.5437
 2794TIP3    H2 8347   6.512   5.375   5.155 -0.2173 -0.5092  0.7632
 2795TIP3   OH2 8348   7.075   5.916   2.493  0.2539  0.0409  0.0591
 2795TIP3    H1 8349   7.064   5.952   2.405  2.8333  1.0124  0.0619
 2795TIP3    H2 8350   7.014   5.967   2.547 -0.1270  0.6074 -0.8761
 2796TIP3   OH2 8351   5.789   1.925   0.643  0.3829  0.0821  0.2889
 2796TIP3    H1 8352   5.775   1.972   0.725  0.6734  0.6797  0.0029
 2796TIP3    H2 8353   5.703   1.887   0.623  0.0227  0.8392  0.3236
 2797TIP3   OH2 8354   6.121   6.244   4.051  0.1641  0.2284  0.2437
 2797TIP3    H1 8355   6.038   6.290   4.060  0.5462  0.7316  1.3450
 2797TIP3    H2 8356   6.103   6.173   3.989 -1.4649 -0.5484  1.5623
 2798TIP3   OH2 8357   1.635   4.287   2.277  0.8017  0.4456  0.1274
 2798TIP3    H1 8358   1.641   4.381   2.296 -1.0437  1.1680 -2.3214
 2798TIP3    H2 8359   1.622   4.283   2.182 -1.9931 -2.0843  0.4718
 2799TIP3   OH2 8360   4.216   0.800   3.955 -0.0233 -0.2433  0.5875
 2799TIP3    H1 8361   4.122   0.807   3.970 -0.2597 -1.0569 -0.4417
 2799TIP3    H2 8362   4.225   0.750   3.874  1.3154 -1.2492  1.2948
 2800TIP3   OH2 8363   3.241   6.142   2.839  0.0851  0.7468 -0.1509
 2800TIP3    H1 8364   3.188   6.086   2.895 -0.8902  0.0138 -1.7469
 2800TIP3    H2 8365   3.230   6.230   2.875 -0.3325  0.2755  0.9173
 2801TIP3   OH2 8366   5.713   5.996   5.741  0.1603  0.5014  0.1507
 2801TIP3    H1 8367   5.785   5.934   5.730 -0.0284  0.2285  0.4158
 2801TIP3    H2 8368   5.648   5.971   5.675  0.4025  0.8908 -0.2405
 2802TIP3   OH2 8369   4.834   6.736   3.678  0.0265 -0.4297  0.2348
 2802TIP3    H1 8370   4.783   6.671   3.630 -0.8961 -0.8360  1.6974
 2802TIP3    H2 8371   4.768   6.787   3.726  0.9518 -1.4508  2.7927
 2803TIP3   OH2 8372   3.047   6.100   3.059 -0.0147  0.0884 -0.0090
 2803TIP3    H1 8373   3.113   6.062   3.117 -0.2477  0.0246  0.2156
 2803TIP3    H2 8374   3.007   6.170   3.111 -1.7815 -1.4095  0.7498
 2804TIP3   OH2 8375   3.232   3.359   2.802  0.2315 -0.2102 -0.6269
 2804TIP3    H1 8376   3.270   3.285   2.753 -0.3341 -1.2884  0.4908
 2804TIP3    H2 8377   3.220   3.428   2.737 -0.3923 -1.5476 -1.9855
 2805TIP3   OH2 8378   6.708   3.608   0.269  0.4846  0.7648 -0.8688
 2805TIP3    H1 8379   6.674   3.697   0.273  2.6467  1.6573 -0.8730
 2805TIP3    H2 8380   6.698   3.582   0.177 -0.3126  0.9334 -0.8279
 2806TIP3   OH2 8381   3.002   0.295   4.978  0.5097  0.2777  0.1874
 2806TIP3    H1 8382   3.023   0.369   4.921  0.7924  0.8047  0.9620
 2806TIP3    H2 8383   2.951   0.334   5.049  0.7602 -0.2577  0.6636
 2807TIP3   OH2 8384   2.221   3.122   4.310  0.3694  0.6966 -0.1264
 2807TIP3    H1 8385   2.241   3.198   4.255 -1.2757  2.1976  1.2133
 2807TIP3    H2 8386   2.278   3.131   4.386  1.3034 -0.3310 -0.6808
 2808TIP3   OH2 8387   1.571   5.869   5.586 -0.6051 -0.1681  0.2516
 2808TIP3    H1 8388   1.516   5.844   5.660 -1.0836 -0.0548 -0.0593
 2808TIP3    H2 8389   1.578   5.965   5.592 -0.4123 -0.1841  0.3081
 2809TIP3   OH2 8390   1.095   2.315   2.922 -0.7353  0.4205 -0.1906
 2809TIP3    H1 8391   1.096   2.411   2.911 -2.3269  0.6343  1.1782
 2809TIP3    H2 8392   1.067   2.282   2.837 -1.0897  1.2279 -0.4004
 2810TIP3   OH2 8393   3.407   4.955   4.923 -0.4280 -0.6805 -0.3528
 2810TIP3    H1 8394   3.445   4.869   4.938  2.3614 -0.0091 -2.6701
 2810TIP3    H2 8395   3.439   5.008   4.996 -1.4646 -1.3735  0.6275
 2811TIP3   OH2 8396   2.346   4.183   2.987  0.2571  0.2544  0.5923
 2811TIP3    H1 8397   2.254   4.187   2.964  0.4490  1.1880 -0.0692
 2811TIP3    H2 8398   2.359   4.094   3.020 -0.7856 -0.0019  0.3413
 2812TIP3   OH2 8399   2.514   5.359   1.620 -0.1868  0.0261 -0.1680
 2812TIP3    H1 8400   2.433   5.395   1.657 -0.0564  0.6840 -0.5104
 2812TIP3    H2 8401   2.484   5.295   1.556 -0.4466  0.5672 -0.5920
 2813TIP3   OH2 8402   6.219   6.192   1.805  0.0418  0.8660 -0.3636
 2813TIP3    H1 8403   6.124   6.184   1.811  0.1162 -0.5108 -0.7200
 2813TIP3    H2 8404   6.235   6.231   1.720 -0.1664 -0.3575 -0.9861
 2814TIP3   OH2 8405   3.321   1.566   1.702  0.1065  0.5715  0.0394
 2814TIP3    H1 8406   3.277   1.632   1.756  1.4510  1.6032 -0.0684
 2814TIP3    H2 8407   3.285   1.580   1.614  1.3930  2.1832 -0.2879
 2815TIP3   OH2 8408   2.689   0.201   2.038  0.5154 -0.6375 -0.3568
 2815TIP3    H1 8409   2.773   0.245   2.022  0.4565 -0.0660  0.8019
 2815TIP3    H2 8410   2.666   0.162   1.954  1.0159  0.7980 -1.1877
 2816TIP3   OH2 8411   5.311   6.480   4.009 -0.0683  0.3583  0.0780
 2816TIP3    H1 8412   5.345   6.403   4.055 -1.8157 -0.6188 -0.1474
 2816TIP3    H2 8413   5.364   6.487   3.930  2.3442  1.4721  1.6762
 2817TIP3   OH2 8414   4.575   0.657   5.468 -0.6370  0.1282  0.4799
 2817TIP3    H1 8415   4.659   0.675   5.425 -1.0649 -1.6624 -1.2375
 2817TIP3    H2 8416   4.599   0.625   5.555  0.4278  0.0282  0.1672
 2818TIP3   OH2 8417   1.927   5.352   2.169  0.8041 -0.0567 -0.6941
 2818TIP3    H1 8418   2.014   5.377   2.200  0.1955  0.9076  0.3196
 2818TIP3    H2 8419   1.933   5.258   2.153  2.1235  0.0561 -1.0035
 2819TIP3   OH2 8420   2.054   2.848   5.121 -0.1611 -1.1017 -0.3845
 2819TIP3    H1 8421   1.993   2.922   5.120 -0.5922 -1.4300  0.5151
 2819TIP3    H2 8422   2.059   2.822   5.213  0.9812 -1.3792 -0.5095
 2820TIP3   OH2 8423   3.738   0.801   0.454 -0.1964 -0.5827  0.2279
 2820TIP3    H1 8424   3.647   0.824   0.468 -0.0858 -0.0192  0.0488
 2820TIP3    H2 8425   3.742   0.773   0.362 -0.1978 -0.6777  0.2559
 2821TIP3   OH2 8426   1.441   3.438   2.268  0.0734  0.6117 -0.2887
 2821TIP3    H1 8427   1.412   3.380   2.339  0.0157 -1.1048 -1.6713
 2821TIP3    H2 8428   1.528   3.468   2.297  0.6203 -1.0811 -0.0248
 2822TIP3   OH2 8429   7.199   1.350   4.996 -0.3629 -0.3070 -0.4708
 2822TIP3    H1 8430   7.108   1.321   4.987 -0.4175 -0.6575  0.9362
 2822TIP3    H2 8431   7.192   1.439   5.032 -0.2397 -1.7344  3.5992
 2823TIP3   OH2 8432   1.897   1.108   5.713  0.0322 -0.1977  0.1987
 2823TIP3    H1 8433   1.927   1.037   5.656 -0.8235  0.0182 -0.5430
 2823TIP3    H2 8434   1.815   1.075   5.751 -0.3915  0.3972 -0.1859
 2824TIP3   OH2 8435   4.166   1.702   1.929 -0.1372 -0.3627  0.4113
 2824TIP3    H1 8436   4.141   1.713   1.837 -0.6067 -0.6756  0.4938
 2824TIP3    H2 8437   4.214   1.781   1.951  0.5083 -0.5515 -0.2774
 2825TIP3   OH2 8438   5.107   1.034   0.239  0.0334  0.0603 -0.0166
 2825TIP3    H1 8439   5.103   1.060   0.331 -0.7601  1.2053 -0.3448
 2825TIP3    H2 8440   5.197   1.051   0.213  0.2102 -0.0765  0.4970
 2826TIP3   OH2 8441   1.978   2.780   5.564  0.0493  0.3848  0.3427
 2826TIP3    H1 8442   1.982   2.691   5.600 -1.5462 -0.1006 -0.5836
 2826TIP3    H2 8443   1.909   2.823   5.614 -0.8972  0.2920 -0.8464
 2827TIP3   OH2 8444   0.834   1.022   1.593  0.0381 -0.7793  0.2080
 2827TIP3    H1 8445   0.759   0.996   1.646 -1.1925 -1.9519 -1.9536
 2827TIP3    H2 8446   0.866   0.940   1.554  0.9040 -0.0002 -0.8068
 2828TIP3   OH2 8447   7.098   1.540   0.691  0.3483  0.2262 -0.3526
 2828TIP3    H1 8448   7.095   1.452   0.729 -2.3267  0.6113  0.5716
 2828TIP3    H2 8449   7.138   1.594   0.760 -0.0039  0.0741 -0.0210
 2829TIP3   OH2 8450   6.746   6.723   4.017 -0.3126  0.1692  0.3343
 2829TIP3    H1 8451   6.672   6.767   3.975 -0.2742 -1.3773 -1.4659
 2829TIP3    H2 8452   6.820   6.742   3.960 -0.0658 -1.2049  0.1545
 2830TIP3   OH2 8453   6.413   0.795   1.539 -0.0571 -0.1071  0.1364
 2830TIP3    H1 8454   6.489   0.829   1.587 -0.1987 -0.3275  0.5251
 2830TIP3    H2 8455   6.385   0.868   1.483  1.3808 -0.5101 -1.1870
 2831TIP3   OH2 8456   4.336   6.118   3.693  0.7715 -0.1747 -0.1648
 2831TIP3    H1 8457   4.312   6.100   3.602 -0.8411  0.5592  0.0760
 2831TIP3    H2 8458   4.303   6.207   3.709  3.6065  0.9048  0.2920
 2832TIP3   OH2 8459   4.993   4.139   2.382 -0.0865  1.2452  0.0224
 2832TIP3    H1 8460   5.080   4.117   2.349 -0.7204  0.8100 -1.4729
 2832TIP3    H2 8461   4.965   4.061   2.430  0.2753  1.3192  0.3546
 2833TIP3   OH2 8462   2.265   2.026   2.841 -0.6605  0.5364  0.9988
 2833TIP3    H1 8463   2.321   2.102   2.827  2.5762 -1.8491 -0.2089
 2833TIP3    H2 8464   2.322   1.962   2.884 -1.5173 -2.9723 -2.4837
 2834TIP3   OH2 8465   1.503   6.219   0.026  0.0670 -0.2055 -0.4501
 2834TIP3    H1 8466   1.417   6.253   0.049  0.5295  1.8921 -1.5095
 2834TIP3    H2 8467   1.561   6.253   0.094  0.4684  0.8926 -1.2936
 2835TIP3   OH2 8468   4.703   2.308   2.656 -0.0996  0.4806  0.3705
 2835TIP3    H1 8469   4.722   2.282   2.746  0.7594 -0.1626  0.0264
 2835TIP3    H2 8470   4.766   2.258   2.603 -1.7172 -0.5149 -0.7381
 2836TIP3   OH2 8471   5.461   6.719   2.790  0.2038  0.0798  0.7078
 2836TIP3    H1 8472   5.371   6.729   2.819 -0.0731 -3.5921  1.5792
 2836TIP3    H2 8473   5.514   6.734   2.868  0.0004 -1.6932  1.2341
 2837TIP3   OH2 8474   6.962   1.341   5.235 -0.0169 -0.0485 -0.1296
 2837TIP3    H1 8475   7.034   1.399   5.213  0.0844  0.2624  0.9652
 2837TIP3    H2 8476   7.003   1.268   5.281 -0.3539  0.0046  0.2667
 2838TIP3   OH2 8477   3.066   3.476   3.256  0.0180 -0.3388 -0.1315
 2838TIP3    H1 8478   3.085   3.498   3.165  0.2928  1.1853  0.2738
 2838TIP3    H2 8479   3.150   3.484   3.301 -0.3092 -0.0409  0.4428
 2839TIP3   OH2 8480   2.752   2.356   5.814  0.5724 -0.1174  0.1577
 2839TIP3    H1 8481   2.797   2.364   5.729 -2.1249 -1.6103 -1.5486
 2839TIP3    H2 8482   2.796   2.283   5.857  1.4903  0.1678 -0.2687
 2840TIP3   OH2 8483   6.809   5.830   4.767 -0.5209  0.0518 -0.4953
 2840TIP3    H1 8484   6.851   5.769   4.827  1.5669 -0.1698 -2.0822
 2840TIP3    H2 8485   6.750   5.775   4.715  0.3055 -0.3990 -0.9804
 2841TIP3   OH2 8486   5.524   2.048   4.625  0.2946 -0.6418  0.2181
 2841TIP3    H1 8487   5.478   2.055   4.542  0.0794 -0.5580  0.3425
 2841TIP3    H2 8488   5.611   2.084   4.608 -0.5944  1.9627  0.6994
 2842TIP3   OH2 8489   3.822   5.307  -0.026  0.1570 -0.3549 -0.7645
 2842TIP3    H1 8490   3.877   5.377   0.010  1.3783 -1.1733 -0.9509
 2842TIP3    H2 8491   3.799   5.254   0.050  1.0945 -0.9806 -0.9022
 2843TIP3   OH2 8492   4.608   6.359   1.386  0.0255  0.3742  0.1458
 2843TIP3    H1 8493   4.604   6.301   1.462  2.4532 -0.1738 -0.0597
 2843TIP3    H2 8494   4.662   6.433   1.415 -3.4504  3.0224  0.6045
 2844TIP3   OH2 8495   6.100   6.733   5.571  0.5813 -0.3489  0.4839
 2844TIP3    H1 8496   6.008   6.714   5.586  0.3943  1.5254  2.1963
 2844TIP3    H2 8497   6.101   6.821   5.532  1.6415 -0.3512  0.4555
 2845TIP3   OH2 8498   4.653   5.934   2.532 -0.0613  0.0788 -0.0387
 2845TIP3    H1 8499   4.577   5.948   2.589 -0.9751  0.5276 -1.3177
 2845TIP3    H2 8500   4.621   5.955   2.444  1.1931 -0.9840 -0.7874
 2846TIP3   OH2 8501   1.032  -0.008   3.167  0.2671 -0.0267 -0.0810
 2846TIP3    H1 8502   1.001   0.079   3.141 -0.2326 -0.0032  0.5534
 2846TIP3    H2 8503   1.010  -0.014   3.260  1.0693 -0.5025  0.0851
 2847TIP3   OH2 8504   0.665   1.078   1.378 -0.0315 -0.1197 -0.2290
 2847TIP3    H1 8505   0.708   1.080   1.463  0.7707 -0.7103 -0.6032
 2847TIP3    H2 8506   0.596   1.012   1.388  0.3848 -0.5579 -0.1668
 2848TIP3   OH2 8507   3.783   4.490   3.134 -0.3900 -0.5210 -0.0448
 2848TIP3    H1 8508   3.726   4.567   3.132 -1.1888 -1.0437  1.2687
 2848TIP3    H2 8509   3.725   4.418   3.108  0.1962 -0.7767 -0.6629
 2849TIP3   OH2 8510   3.245   0.055   2.731 -0.1295  0.1883 -0.7275
 2849TIP3    H1 8511   3.159   0.070   2.692  0.3259  0.8663 -1.4925
 2849TIP3    H2 8512   3.285   0.141   2.736  0.9578 -0.2442 -1.4781
 2850TIP3   OH2 8513   0.541   6.678   0.691 -0.4513 -0.0091  0.3312
 2850TIP3    H1 8514   0.520   6.764   0.726 -0.7663 -0.5200  1.4437
 2850TIP3    H2 8515   0.614   6.693   0.631  0.2206  0.8848  1.3396
 2851TIP3   OH2 8516   3.054   4.923   1.308 -0.0804 -0.1316 -0.1266
 2851TIP3    H1 8517   3.112   4.847   1.308 -0.7868 -0.6871 -1.0473
 2851TIP3    H2 8518   3.031   4.936   1.399 -0.2935 -1.2884 -0.0032
 2852TIP3   OH2 8519   0.388   4.137   1.134 -0.1770 -0.0131 -0.3248
 2852TIP3    H1 8520   0.376   4.145   1.228  0.0176 -0.7398 -0.2328
 2852TIP3    H2 8521   0.309   4.094   1.102 -0.0080 -0.2644 -0.4125
 2853TIP3   OH2 8522   0.687   2.220   3.904 -0.4324 -0.0945 -0.1417
 2853TIP3    H1 8523   0.646   2.151   3.851 -1.6696  0.1157  0.5004
 2853TIP3    H2 8524   0.613   2.264   3.946  0.3254  1.7361 -0.6465
 2854TIP3   OH2 8525   6.054   4.738   3.132  0.1649  0.7920  0.2095
 2854TIP3    H1 8526   6.048   4.833   3.125  1.9689  1.0088  0.9508
 2854TIP3    H2 8527   6.142   4.722   3.168  0.8642 -1.2713 -2.1183
 2855TIP3   OH2 8528   4.719   1.985   5.508  0.3987  0.4690 -0.1492
 2855TIP3    H1 8529   4.643   2.026   5.467  1.2201  0.9700 -1.2499
 2855TIP3    H2 8530   4.750   2.049   5.572 -0.2060  0.1818  0.4396
 2856TIP3   OH2 8531   5.482   5.961   2.367  0.2798 -0.2874  0.5549
 2856TIP3    H1 8532   5.418   5.926   2.429  0.6435 -2.7936 -0.3817
 2856TIP3    H2 8533   5.555   5.900   2.371  0.7039 -0.0152 -1.6552
 2857TIP3   OH2 8534   5.549   2.453   2.112  0.1016 -0.3875 -0.1870
 2857TIP3    H1 8535   5.576   2.534   2.069  0.7200  0.1664  1.1584
 2857TIP3    H2 8536   5.571   2.384   2.050  0.1438  0.4309 -1.1004
 2858TIP3   OH2 8537   5.500   2.024   3.165 -0.5761  1.1035  0.2253
 2858TIP3    H1 8538   5.561   1.964   3.209  1.4466  2.6612 -0.2663
 2858TIP3    H2 8539   5.446   1.968   3.111 -0.1466 -0.4484  1.3213
 2859TIP3   OH2 8540   4.688   2.842   5.833  0.8034  0.3038  0.0887
 2859TIP3    H1 8541   4.694   2.765   5.775 -0.8582  0.7424 -0.7294
 2859TIP3    H2 8542   4.757   2.828   5.898  0.2452 -2.1349  0.2753
 2860TIP3   OH2 8543   5.045   4.367   0.109  0.2104  0.7296 -0.3141
 2860TIP3    H1 8544   4.966   4.392   0.060 -1.0818 -0.8702  0.8442
 2860TIP3    H2 8545   5.041   4.271   0.113  1.8769  0.6594  0.3472
 2861TIP3   OH2 8546   2.368   2.093   1.778 -0.0928 -0.6800 -0.3761
 2861TIP3    H1 8547   2.298   2.029   1.791 -1.1641  0.1511 -1.7289
 2861TIP3    H2 8548   2.331   2.157   1.717  0.8715  1.3360  1.0251
 2862TIP3   OH2 8549   1.365   0.081   3.029  0.1898 -0.4928 -0.0244
 2862TIP3    H1 8550   1.415   0.000   3.037 -0.0596 -0.5499  1.1153
 2862TIP3    H2 8551   1.358   0.096   2.935  2.7988 -0.1902 -0.2528
 2863TIP3   OH2 8552   0.168   4.373   5.035  0.2939 -0.4018 -0.3977
 2863TIP3    H1 8553   0.192   4.404   5.122  3.2214  0.9647 -1.5199
 2863TIP3    H2 8554   0.190   4.446   4.977 -0.1288 -1.7792 -2.4109
 2864TIP3   OH2 8555   1.767   5.930   1.263  0.4562 -0.5357  0.0302
 2864TIP3    H1 8556   1.707   5.888   1.202  0.9900  0.3829 -1.1803
 2864TIP3    H2 8557   1.851   5.934   1.215  1.0693 -0.4185  1.0861
 2865TIP3   OH2 8558   6.953   6.596   1.731  0.8050  0.1084 -0.1852
 2865TIP3    H1 8559   7.018   6.666   1.739  0.0148  0.8417 -0.0540
 2865TIP3    H2 8560   6.971   6.538   1.806  2.0460 -0.3479 -0.8057
 2866TIP3   OH2 8561   1.911   6.487   0.979 -0.2043 -0.1388 -0.4918
 2866TIP3    H1 8562   1.863   6.538   0.914  0.6474 -0.3112 -1.2823
 2866TIP3    H2 8563   1.844   6.438   1.026 -0.8958  0.5709 -0.7288
 2867TIP3   OH2 8564   2.476   5.212   4.305 -0.0428 -0.1267 -0.0891
 2867TIP3    H1 8565   2.399   5.263   4.279 -0.0318 -0.3714 -0.6300
 2867TIP3    H2 8566   2.445   5.158   4.377 -0.5855 -0.7359 -0.7589
 2868TIP3   OH2 8567   7.199   0.244   3.398  0.1941  0.3880  0.2716
 2868TIP3    H1 8568   7.141   0.170   3.379 -0.9388  0.8803  1.6186
 2868TIP3    H2 8569   7.270   0.206   3.450  0.3844  0.0096 -0.2578
 2869TIP3   OH2 8570   4.575   0.426   1.137 -0.2935  0.5490  0.0444
 2869TIP3    H1 8571   4.598   0.335   1.118 -2.9267 -0.5776  1.7043
 2869TIP3    H2 8572   4.659   0.470   1.148  1.1429 -2.3339  1.9628
 2870TIP3   OH2 8573   0.421   1.614   2.165  0.4888  0.0182 -0.1715
 2870TIP3    H1 8574   0.398   1.697   2.123  1.7993  0.9096  0.7648
 2870TIP3    H2 8575   0.511   1.597   2.137  1.7020  1.0518  2.7376
 2871TIP3   OH2 8576   4.728   3.858   5.125 -0.5254 -0.0322 -0.3545
 2871TIP3    H1 8577   4.776   3.927   5.079  1.8011 -0.8998  0.5771
 2871TIP3    H2 8578   4.702   3.797   5.056 -0.9139  0.8216 -0.9694
 2872TIP3   OH2 8579   1.892   3.389   2.130  0.2748  0.2864  0.0909
 2872TIP3    H1 8580   1.831   3.348   2.192 -0.1674 -0.9260 -1.0857
 2872TIP3    H2 8581   1.872   3.347   2.046 -0.0045  2.7789 -1.1619
 2873TIP3   OH2 8582   5.630   2.672   5.547  0.2109 -0.4047 -0.3791
 2873TIP3    H1 8583   5.538   2.696   5.558  0.2087 -0.0928 -1.0444
 2873TIP3    H2 8584   5.672   2.703   5.628 -0.5459 -2.0807  0.7141
 2874TIP3   OH2 8585   4.857   4.205   4.209  0.2644 -0.2232  0.2226
 2874TIP3    H1 8586   4.908   4.279   4.244  0.1952  0.8864 -1.8871
 2874TIP3    H2 8587   4.776   4.245   4.176 -0.6972 -1.5537  0.8521
 2875TIP3   OH2 8588   6.647   0.299   5.797  0.5749 -0.6245 -0.0291
 2875TIP3    H1 8589   6.706   0.359   5.751  0.7318 -0.5284  0.2972
 2875TIP3    H2 8590   6.565   0.347   5.803  0.2257 -1.0458 -1.1516
 2876TIP3   OH2 8591   0.334   3.346   4.775  0.0467  0.0604  0.0812
 2876TIP3    H1 8592   0.422   3.312   4.791 -0.5969 -2.2301 -0.8301
 2876TIP3    H2 8593   0.335   3.435   4.811  2.0084 -0.7319  2.1864
 2877TIP3   OH2 8594   5.191   5.240   0.474  0.6760 -0.2979  0.4171
 2877TIP3    H1 8595   5.153   5.326   0.492  2.0048  0.7408 -1.4333
 2877TIP3    H2 8596   5.151   5.182   0.539 -0.9506  1.5150  1.1231
 2878TIP3   OH2 8597   0.985   6.597   5.113 -0.5551  0.1233 -0.0442
 2878TIP3    H1 8598   0.990   6.546   5.194  1.8543 -0.9471 -0.7678
 2878TIP3    H2 8599   0.892   6.604   5.094 -1.0874 -4.6013 -0.2060
 2879TIP3   OH2 8600   7.226   4.598   2.618  0.5943  0.4145 -0.0828
 2879TIP3    H1 8601   7.165   4.668   2.595 -0.3943 -0.3009  0.2887
 2879TIP3    H2 8602   7.172   4.531   2.660  0.9827 -1.7982 -2.8222
 2880TIP3   OH2 8603   6.033   2.528   5.065  0.1206  0.0566  0.8050
 2880TIP3    H1 8604   5.969   2.565   5.005  0.9022 -1.6939 -1.2096
 2880TIP3    H2 8605   6.092   2.601   5.085 -0.1631  0.6816 -0.5734
 2881TIP3   OH2 8606   3.553   4.447   1.743  0.1534  0.1087  0.3484
 2881TIP3    H1 8607   3.540   4.476   1.833 -0.5955 -0.8989  0.5856
 2881TIP3    H2 8608   3.600   4.364   1.752  1.4041  0.7188 -0.2681
 2882TIP3   OH2 8609   5.723   0.186   1.601  0.1124 -0.0176  0.3984
 2882TIP3    H1 8610   5.685   0.251   1.543  0.8462 -0.0668 -0.1538
 2882TIP3    H2 8611   5.732   0.108   1.546  2.1830  0.3641  0.1148
 2883TIP3   OH2 8612   2.256   1.366   0.803 -0.4452  0.5492 -0.4975
 2883TIP3    H1 8613   2.289   1.344   0.715 -0.9132  2.3119 -1.1414
 2883TIP3    H2 8614   2.161   1.356   0.796 -0.4246 -0.1370  0.0759
 2884TIP3   OH2 8615   6.512   5.680   0.563  0.2556  0.0943  0.3097
 2884TIP3    H1 8616   6.515   5.770   0.530  0.8532 -0.4136 -1.1303
 2884TIP3    H2 8617   6.502   5.627   0.484  0.2729 -1.1319  1.1118
 2885TIP3   OH2 8618   0.432   5.843   2.389  0.2125  0.0441  0.2858
 2885TIP3    H1 8619   0.456   5.882   2.473 -0.1244  1.2512 -0.1703
 2885TIP3    H2 8620   0.494   5.881   2.326  1.5875 -2.1315  0.2271
 2886TIP3   OH2 8621   0.213   5.701   4.627 -0.1971 -0.3038 -0.7800
 2886TIP3    H1 8622   0.204   5.739   4.540  0.2579  0.5364 -0.4727
 2886TIP3    H2 8623   0.266   5.622   4.614  0.6023  0.2799 -1.1575
 2887TIP3   OH2 8624   5.286   2.983   2.932 -0.1048 -0.2358  0.4531
 2887TIP3    H1 8625   5.349   3.051   2.906 -3.0207  2.0103 -1.3946
 2887TIP3    H2 8626   5.264   2.939   2.850 -0.1593 -1.7468  1.2453
 2888TIP3   OH2 8627   3.032   4.647   1.890 -0.1458  0.2075  0.4613
 2888TIP3    H1 8628   2.989   4.624   1.807 -0.3608 -1.5650  1.0205
 2888TIP3    H2 8629   3.094   4.575   1.905  1.0302  1.3046  1.0772
 2889TIP3   OH2 8630   4.744   3.798   5.403  0.1043 -0.4457 -0.3956
 2889TIP3    H1 8631   4.671   3.735   5.394  0.8677 -1.3762 -0.2280
 2889TIP3    H2 8632   4.746   3.843   5.319 -1.4651  0.5001  0.0258
 2890TIP3   OH2 8633   4.184   1.304   1.834  0.0505 -0.0914 -0.2651
 2890TIP3    H1 8634   4.226   1.367   1.893  1.1126 -0.0484 -1.0400
 2890TIP3    H2 8635   4.208   1.218   1.869 -1.2434 -0.1014  0.6831
 2891TIP3   OH2 8636   1.787   1.406   4.577  0.1284  1.0274  0.0642
 2891TIP3    H1 8637   1.871   1.409   4.622  0.8079 -3.2612 -0.4957
 2891TIP3    H2 8638   1.722   1.399   4.647  0.7640 -0.7657  0.5249
 2892TIP3   OH2 8639   4.897   2.531   1.548  0.3074 -0.5880  0.2536
 2892TIP3    H1 8640   4.973   2.510   1.495  0.9695  0.5624  0.7136
 2892TIP3    H2 8641   4.845   2.450   1.549  1.1957 -1.1850 -0.5873
 2893TIP3   OH2 8642   3.676   0.652   2.484 -0.1057 -0.6157 -0.6524
 2893TIP3    H1 8643   3.628   0.657   2.401  1.5698  0.9633 -1.5851
 2893TIP3    H2 8644   3.758   0.608   2.463 -0.4248 -1.9168  0.6104
 2894TIP3   OH2 8645   1.273   0.191   5.483 -0.5486  0.1183  0.1108
 2894TIP3    H1 8646   1.184   0.210   5.453 -1.0105 -1.5898  0.2881
 2894TIP3    H2 8647   1.279   0.235   5.568 -1.1278  0.4762 -0.0252
 2895TIP3   OH2 8648   2.983   4.482   3.697 -0.1705  0.1487 -0.4776
 2895TIP3    H1 8649   3.056   4.438   3.653  0.9452  0.4921  0.9350
 2895TIP3    H2 8650   2.986   4.572   3.665  0.0970  0.1859 -0.3550
 2896TIP3   OH2 8651   3.075   4.744   0.702 -0.1373  0.0890  0.3578
 2896TIP3    H1 8652   3.145   4.770   0.761 -0.7106 -0.6898  1.4013
 2896TIP3    H2 8653   3.117   4.683   0.641 -0.2552 -1.8506  2.1135
 2897TIP3   OH2 8654   5.589   5.481   3.611 -0.1120  0.0438 -0.1387
 2897TIP3    H1 8655   5.497   5.452   3.616  0.3529 -1.3781  1.1569
 2897TIP3    H2 8656   5.629   5.445   3.690  1.2935  1.7360 -0.0244
 2898TIP3   OH2 8657   5.907   5.992   4.243 -0.4536 -0.4095 -0.5941
 2898TIP3    H1 8658   5.828   5.949   4.275 -0.6375  0.8935  0.8162
 2898TIP3    H2 8659   5.932   5.942   4.166 -1.7584 -1.8064 -0.1586
 2899TIP3   OH2 8660   3.143   3.131   2.131 -0.4230 -0.2980 -0.2122
 2899TIP3    H1 8661   3.238   3.128   2.140 -0.4941 -1.3550  0.3351
 2899TIP3    H2 8662   3.125   3.074   2.056 -0.6991 -1.2010  0.5116
 2900TIP3   OH2 8663   7.142   4.657   2.298  0.7904 -0.0967  0.5038
 2900TIP3    H1 8664   7.159   4.692   2.385  0.9824  1.7267 -0.2242
 2900TIP3    H2 8665   7.047   4.665   2.287  0.8405  0.3101  0.3174
 2901TIP3   OH2 8666   5.846   1.603   4.667  0.0650  0.0718 -0.4660
 2901TIP3    H1 8667   5.911   1.566   4.727  0.4598  1.1740 -0.1893
 2901TIP3    H2 8668   5.890   1.607   4.582  0.5891  1.3572 -0.1567
 2902TIP3   OH2 8669   7.053   0.838   1.229 -0.2534 -0.1452  0.0985
 2902TIP3    H1 8670   7.017   0.794   1.151 -0.2912  1.2822 -0.7322
 2902TIP3    H2 8671   7.011   0.924   1.228  0.4012  0.1918  1.2369
 2903TIP3   OH2 8672   4.545   2.990   2.431 -0.4447  0.5719  0.2739
 2903TIP3    H1 8673   4.596   2.959   2.357 -0.9658 -2.8595  1.1889
 2903TIP3    H2 8674   4.594   2.962   2.508 -1.0725  1.9938  1.2312
 2904TIP3   OH2 8675   3.966   2.162   3.676  0.3248 -0.2277 -0.2267
 2904TIP3    H1 8676   4.040   2.209   3.714  0.2476 -0.4990  0.2666
 2904TIP3    H2 8677   3.889   2.213   3.702  0.1662 -1.0812  1.0406
 2905TIP3   OH2 8678   0.864   1.360   4.010 -0.1858  0.4540  0.5372
 2905TIP3    H1 8679   0.816   1.407   4.078  0.1789  0.2053  0.9725
 2905TIP3    H2 8680   0.811   1.371   3.932  0.4312  2.5719  0.3355
 2906TIP3   OH2 8681   1.122   3.232   0.859 -0.0543  0.3680  0.4972
 2906TIP3    H1 8682   1.154   3.145   0.837 -1.3873 -0.1030  0.3881
 2906TIP3    H2 8683   1.027   3.224   0.861 -0.1810  1.6915  1.0273
 2907TIP3   OH2 8684   4.127   1.188   5.757  0.3680 -0.5341 -0.0877
 2907TIP3    H1 8685   4.207   1.162   5.710  0.4140  0.2902 -0.4850
 2907TIP3    H2 8686   4.148   1.275   5.792  0.4573 -1.2744  1.7716
 2908TIP3   OH2 8687   1.345   0.170   2.273  0.5658  0.2717 -0.0704
 2908TIP3    H1 8688   1.274   0.113   2.304  1.1487  0.1626  1.1554
 2908TIP3    H2 8689   1.406   0.110   2.230  1.8512 -0.3472  2.4125
 2909TIP3   OH2 8690   2.206   0.739   3.816  0.7330 -0.4500 -0.1368
 2909TIP3    H1 8691   2.146   0.685   3.765 -0.4173 -0.2840  0.9844
 2909TIP3    H2 8692   2.268   0.677   3.853  1.3055 -0.6218 -1.3204
 2910TIP3   OH2 8693   2.723   5.538   5.002  0.0079 -0.1121 -0.2772
 2910TIP3    H1 8694   2.651   5.600   5.012  1.3866  1.3836  1.1215
 2910TIP3    H2 8695   2.696   5.480   4.931 -1.2387  2.3101 -1.9130
 2911TIP3   OH2 8696   6.005   0.424   1.934  0.4732 -0.0760  0.6121
 2911TIP3    H1 8697   5.922   0.435   1.888  1.0518  0.5370 -0.3296
 2911TIP3    H2 8698   6.041   0.343   1.897  1.3536  0.8878 -0.7266
 2912TIP3   OH2 8699   6.817   5.992   3.985  0.9402  0.2277 -0.0533
 2912TIP3    H1 8700   6.816   6.035   4.070  0.8147  0.0737  0.0235
 2912TIP3    H2 8701   6.889   6.033   3.938  0.3393  1.0803 -0.2624
 2913TIP3   OH2 8702   4.781   3.823   2.900 -0.3963  0.3395  0.2396
 2913TIP3    H1 8703   4.839   3.800   2.973 -0.1860  0.4749  0.1149
 2913TIP3    H2 8704   4.692   3.817   2.938 -0.2922  0.3487  0.4904
 2914TIP3   OH2 8705   2.603   3.650   0.585  0.3487  0.2942 -0.0159
 2914TIP3    H1 8706   2.552   3.633   0.664 -0.5242 -0.3303 -0.6932
 2914TIP3    H2 8707   2.567   3.732   0.551 -0.4139 -0.2810 -0.6356
 2915TIP3   OH2 8708   0.044   0.776   0.895  0.3978  0.1045 -0.6204
 2915TIP3    H1 8709  -0.030   0.758   0.953  1.8981  0.8468  1.6130
 2915TIP3    H2 8710   0.003   0.808   0.814 -1.7119  1.7240  0.9772
 2916TIP3   OH2 8711   4.003   1.468   2.237 -0.2283 -0.0727 -0.4131
 2916TIP3    H1 8712   3.935   1.526   2.202 -0.3784  0.6682  1.0471
 2916TIP3    H2 8713   4.072   1.526   2.267  0.4431 -0.7564 -0.5822
 2917TIP3   OH2 8714   2.462   2.030   2.247  0.4459  0.2711 -0.1903
 2917TIP3    H1 8715   2.449   2.096   2.179 -0.5158 -0.7939 -1.1012
 2917TIP3    H2 8716   2.508   1.959   2.202 -3.6575 -2.2168 -1.0462
 2918TIP3   OH2 8717   4.551   2.259   4.213 -0.7829  0.7109 -0.0551
 2918TIP3    H1 8718   4.537   2.259   4.308 -0.1743 -0.5491  0.0420
 2918TIP3    H2 8719   4.591   2.344   4.195  0.8761  0.2082  1.0934
 2919TIP3   OH2 8720   3.288   5.976   4.896 -0.1664 -0.3135 -0.4486
 2919TIP3    H1 8721   3.370   5.937   4.926 -0.2613  0.2129  0.5435
 2919TIP3    H2 8722   3.259   5.919   4.825  0.4441 -1.1974 -0.0119
 2920TIP3   OH2 8723   2.949   5.145   1.167  0.4263  0.1222  0.9588
 2920TIP3    H1 8724   2.935   5.124   1.259  3.4700 -1.1646  1.2438
 2920TIP3    H2 8725   2.999   5.072   1.132  1.5193  1.7034 -1.0707
 2921TIP3   OH2 8726   2.023   0.279   3.377  0.3735  0.2631  0.7310
 2921TIP3    H1 8727   2.093   0.319   3.325 -0.7018  0.8225 -0.3641
 2921TIP3    H2 8728   2.064   0.205   3.421  1.2024 -0.8074 -1.6488
 2922TIP3   OH2 8729   4.261   4.527   4.230 -0.8373  0.2919  0.6093
 2922TIP3    H1 8730   4.170   4.518   4.257 -0.7152  1.5766  1.5372
 2922TIP3    H2 8731   4.263   4.489   4.142 -2.0221 -0.7165  0.9749
 2923TIP3   OH2 8732   4.463   1.049   5.769  0.4064  0.7411 -0.1837
 2923TIP3    H1 8733   4.539   1.065   5.713 -0.6297  2.0493 -1.2715
 2923TIP3    H2 8734   4.436   0.959   5.747  1.1207  0.5804 -0.4170
 2924TIP3   OH2 8735   2.953   0.635   5.694  0.8211 -0.3050 -0.4162
 2924TIP3    H1 8736   2.939   0.727   5.716  0.2231 -0.1188 -1.5044
 2924TIP3    H2 8737   2.909   0.587   5.764  1.0665  0.2382  0.1169
 2925TIP3   OH2 8738   1.654   3.995   0.583 -0.3751 -0.0101  0.1339
 2925TIP3    H1 8739   1.736   4.004   0.536 -1.5756 -0.0466 -2.1308
 2925TIP3    H2 8740   1.679   3.980   0.674  2.0830  1.9282 -0.1065
 2926TIP3   OH2 8741   3.789   1.150   2.746 -0.6345 -0.3890  0.6094
 2926TIP3    H1 8742   3.789   1.233   2.794 -2.9001  1.6807 -2.5331
 2926TIP3    H2 8743   3.700   1.115   2.759 -0.3051 -1.3373  0.3848
 2927TIP3   OH2 8744   0.062   2.692   2.463 -0.0975  0.0763  0.2460
 2927TIP3    H1 8745   0.129   2.624   2.465 -1.1044 -1.0038 -0.6915
 2927TIP3    H2 8746  -0.019   2.644   2.443 -1.2630  1.2576  1.8954
 2928TIP3   OH2 8747   1.195   2.123   5.327 -0.0689  0.1445 -0.9625
 2928TIP3    H1 8748   1.199   2.215   5.300  0.9803  0.1147 -0.9598
 2928TIP3    H2 8749   1.248   2.118   5.406  0.4886 -0.5914 -1.3655
 2929TIP3   OH2 8750   2.974   0.808   2.329  0.0587  0.4240 -0.2032
 2929TIP3    H1 8751   2.965   0.810   2.424  0.4203  2.8700 -0.1431
 2929TIP3    H2 8752   2.884   0.821   2.296 -0.0508 -0.3177 -0.2213
 2930TIP3   OH2 8753   3.726   0.649   3.345  0.1504  0.1691 -0.0197
 2930TIP3    H1 8754   3.697   0.692   3.265 -1.3257  1.8742  1.3446
 2930TIP3    H2 8755   3.647   0.642   3.398  1.4621  1.2980  2.2443
 2931TIP3   OH2 8756   3.322   1.894   4.366 -0.0415 -0.2441  0.3151
 2931TIP3    H1 8757   3.277   1.963   4.415 -0.2859  0.1000 -0.3762
 2931TIP3    H2 8758   3.340   1.826   4.431  1.2808  0.9752  1.2864
 2932TIP3   OH2 8759   4.037   6.695   4.928  0.1776  0.2579  0.2285
 2932TIP3    H1 8760   4.126   6.714   4.957  0.2652  1.6468 -0.8500
 2932TIP3    H2 8761   4.048   6.660   4.839 -0.2884 -0.8082  0.5741
 2933TIP3   OH2 8762   2.799   5.855   5.616 -0.0051  0.2603  0.2354
 2933TIP3    H1 8763   2.777   5.946   5.637 -2.0214  0.1208 -0.9387
 2933TIP3    H2 8764   2.887   5.859   5.579 -0.4066  1.8982 -0.6512
 2934TIP3   OH2 8765   3.981   2.879   1.697 -0.4471 -0.2006 -0.0413
 2934TIP3    H1 8766   3.930   2.959   1.709  0.6221  0.0607  4.7175
 2934TIP3    H2 8767   4.071   2.909   1.686 -0.2824 -0.6959 -0.0676
 2935TIP3   OH2 8768   5.044   4.992   5.798  0.4107 -0.5531 -0.4039
 2935TIP3    H1 8769   5.105   4.923   5.770 -2.6567 -3.8068  0.2501
 2935TIP3    H2 8770   5.075   5.018   5.885  2.8272  0.6226 -1.4949
 2936TIP3   OH2 8771   1.290   0.556   5.461 -0.5910  0.4741 -0.2643
 2936TIP3    H1 8772   1.212   0.509   5.490 -0.4748 -0.0095 -0.7244
 2936TIP3    H2 8773   1.259   0.645   5.442 -0.8917  0.4743  0.2156
 2937TIP3   OH2 8774   3.914   0.339   4.333  0.4910 -0.1755  0.2501
 2937TIP3    H1 8775   3.997   0.294   4.351 -0.0791 -2.3653 -1.9767
 2937TIP3    H2 8776   3.852   0.269   4.314 -1.7706  1.4252  1.1686
 2938TIP3   OH2 8777   5.333   0.900   3.449  0.0941 -0.3554  0.0995
 2938TIP3    H1 8778   5.340   0.947   3.532  0.3906  3.0331 -1.6406
 2938TIP3    H2 8779   5.422   0.873   3.429 -0.1211 -2.0279  1.2578
 2939TIP3   OH2 8780   4.929   2.846   3.271  0.7503 -0.0489  0.0664
 2939TIP3    H1 8781   4.850   2.845   3.324  0.1247  2.5007 -0.7012
 2939TIP3    H2 8782   4.914   2.913   3.205  2.1918 -1.8768 -2.3299
 2940TIP3   OH2 8783   1.002   0.229   5.444  0.2592  0.4293  0.2441
 2940TIP3    H1 8784   0.984   0.172   5.519  1.0521  0.1675  0.2472
 2940TIP3    H2 8785   0.944   0.196   5.375  0.7638 -0.4551  0.2201
 2941TIP3   OH2 8786   3.769   3.330   1.824  0.6743  0.2247  0.1490
 2941TIP3    H1 8787   3.778   3.398   1.758  1.3472 -1.1496 -1.2419
 2941TIP3    H2 8788   3.819   3.256   1.789 -1.2079 -1.4896  0.8696
 2942TIP3   OH2 8789   1.649   5.728   2.808  0.3026  0.4161  0.6527
 2942TIP3    H1 8790   1.699   5.810   2.815  0.5366  0.1951  1.6271
 2942TIP3    H2 8791   1.681   5.688   2.727  0.2437  1.2485  0.2106
 2943TIP3   OH2 8792   6.376   1.264   0.013 -0.0050 -0.0813  0.6077
 2943TIP3    H1 8793   6.282   1.246   0.010 -0.3470  1.6294 -0.4542
 2943TIP3    H2 8794   6.417   1.179   0.006 -1.4791 -0.7015 -1.3689
 2944TIP3   OH2 8795   3.328   4.659   2.742  0.5577  0.5086 -0.1420
 2944TIP3    H1 8796   3.236   4.658   2.713  0.2771  2.0153  0.5956
 2944TIP3    H2 8797   3.326   4.618   2.828  0.8920 -1.0892 -0.8602
 2945TIP3   OH2 8798   2.660   3.024   2.873  0.0141 -0.4406 -0.3530
 2945TIP3    H1 8799   2.592   3.063   2.927 -0.7102 -1.7310 -0.2776
 2945TIP3    H2 8800   2.643   3.055   2.784  0.8357  1.1927  0.0237
 2946TIP3   OH2 8801   6.454   3.004   1.539 -0.2443 -0.6356 -0.3550
 2946TIP3    H1 8802   6.485   2.932   1.484 -0.1974 -2.0132  1.4038
 2946TIP3    H2 8803   6.371   2.974   1.574 -2.4906  1.9550 -2.9024
 2947TIP3   OH2 8804   4.222   5.243   0.729 -0.9386 -0.0820 -0.5130
 2947TIP3    H1 8805   4.219   5.214   0.638 -0.4416 -1.5831 -0.0817
 2947TIP3    H2 8806   4.310   5.280   0.740 -0.7104 -0.6348 -0.4462
 2948TIP3   OH2 8807   2.195   6.702   3.306 -0.1097 -0.2137  0.0544
 2948TIP3    H1 8808   2.109   6.734   3.280 -0.3081 -1.7304 -1.2990
 2948TIP3    H2 8809   2.245   6.698   3.224  0.7898 -0.6998  0.6127
 2949TIP3   OH2 8810   0.713   2.632   4.440 -0.3484 -0.0437 -0.0903
 2949TIP3    H1 8811   0.708   2.715   4.392 -0.4527 -0.4234 -0.7470
 2949TIP3    H2 8812   0.792   2.590   4.407 -0.3302 -0.2380  0.1976
 2950TIP3   OH2 8813   4.176   0.734   0.867  0.2875 -0.3131 -0.2646
 2950TIP3    H1 8814   4.108   0.728   0.934 -0.0060 -2.5168 -0.6688
 2950TIP3    H2 8815   4.240   0.667   0.891  2.4313  1.7515  0.1426
 2951TIP3   OH2 8816   1.118   0.284   3.405  0.0207  0.2412 -0.0107
 2951TIP3    H1 8817   1.128   0.279   3.310  0.5769 -1.8395  0.1065
 2951TIP3    H2 8818   1.067   0.206   3.428 -0.7314  1.0928  1.3336
 2952TIP3   OH2 8819   1.822   3.893   5.652 -0.5054  0.0042 -0.5463
 2952TIP3    H1 8820   1.792   3.944   5.728  0.8173  0.5433 -0.3604
 2952TIP3    H2 8821   1.878   3.825   5.690 -0.2696 -0.0544 -0.9994
 2953TIP3   OH2 8822   3.005   2.212   2.036  0.2601  0.2248  0.0814
 2953TIP3    H1 8823   2.996   2.225   1.941 -0.0884  0.5294  0.1519
 2953TIP3    H2 8824   2.920   2.239   2.071  0.2323 -0.3289  0.4369
 2954TIP3   OH2 8825   3.785   0.445   0.091  0.2605 -0.2985 -0.2118
 2954TIP3    H1 8826   3.694   0.421   0.075  0.2061 -0.5215  0.3996
 2954TIP3    H2 8827   3.796   0.435   0.186  0.2949  1.8932  0.0718
 2955TIP3   OH2 8828   6.489   0.855   0.534 -0.7143  0.1477 -0.0277
 2955TIP3    H1 8829   6.419   0.796   0.561  0.4651 -0.8947  0.9022
 2955TIP3    H2 8830   6.568   0.801   0.536  0.5804  1.9457  1.8139
 2956TIP3   OH2 8831   4.404   4.734   4.678  0.6117  0.0364 -0.1406
 2956TIP3    H1 8832   4.376   4.659   4.625 -0.5773  0.8773 -0.7305
 2956TIP3    H2 8833   4.354   4.725   4.760  0.9885 -0.1804  0.0713
 2957TIP3   OH2 8834   5.934   5.771   2.656  0.0526  0.0458  0.5103
 2957TIP3    H1 8835   5.915   5.683   2.626  2.3396 -0.6195  0.8381
 2957TIP3    H2 8836   5.950   5.821   2.576 -0.5909  0.0112  0.3560
 2958TIP3   OH2 8837   3.396   2.790   2.806 -0.2287  0.0322  0.8347
 2958TIP3    H1 8838   3.330   2.843   2.852  0.8064  1.1450  1.0906
 2958TIP3    H2 8839   3.445   2.854   2.754 -1.1751 -1.1446 -1.6424
 2959TIP3   OH2 8840   3.427   2.333   1.929 -0.4675  0.0129 -0.4921
 2959TIP3    H1 8841   3.417   2.428   1.936 -0.0938  0.0314 -0.2173
 2959TIP3    H2 8842   3.427   2.302   2.020  0.9951 -0.0857 -0.5102
 2960TIP3   OH2 8843   5.076   1.412   4.117  0.9420 -0.2069  0.0365
 2960TIP3    H1 8844   5.070   1.396   4.023 -0.0450 -0.4390  0.1318
 2960TIP3    H2 8845   5.059   1.505   4.126 -0.6252 -0.4819  0.1179
 2961TIP3   OH2 8846   1.436   5.140   2.903 -0.2764 -0.3714 -0.0184
 2961TIP3    H1 8847   1.498   5.105   2.967  0.3970 -0.9798 -0.9785
 2961TIP3    H2 8848   1.361   5.168   2.955  0.0371 -1.3279  0.9840
 2962TIP3   OH2 8849   5.745   6.308   1.439  0.6356  0.2553  0.1448
 2962TIP3    H1 8850   5.689   6.353   1.376 -1.2645  0.5867  1.9799
 2962TIP3    H2 8851   5.833   6.316   1.402 -0.5423 -1.4908 -3.5782
 2963TIP3   OH2 8852   3.527   6.380   2.868  0.3055  0.3105 -0.4496
 2963TIP3    H1 8853   3.502   6.341   2.952 -0.6131 -1.8164 -1.6366
 2963TIP3    H2 8854   3.505   6.473   2.878  1.4641  0.3938  2.0927
 2964TIP3   OH2 8855   2.893   2.981   4.022 -0.0046 -0.0926 -0.3534
 2964TIP3    H1 8856   2.852   2.977   3.936 -1.8899 -0.4655  0.5190
 2964TIP3    H2 8857   2.979   2.939   4.010 -0.5250 -0.7890 -1.8621
 2965TIP3   OH2 8858   2.723   4.698   4.948 -0.4646 -0.8029 -0.2518
 2965TIP3    H1 8859   2.761   4.779   4.914 -1.8925 -0.2876 -0.6819
 2965TIP3    H2 8860   2.643   4.726   4.993 -1.0851 -1.9750 -0.5733
 2966TIP3   OH2 8861   4.348   4.640   2.660  0.5286 -0.4431  0.1605
 2966TIP3    H1 8862   4.412   4.586   2.615  0.5298 -1.7971  1.6890
 2966TIP3    H2 8863   4.399   4.714   2.694  0.8186 -0.2791 -0.5982
 2967TIP3   OH2 8864   2.706   1.951   0.719  0.1877 -0.0949 -0.2841
 2967TIP3    H1 8865   2.774   1.916   0.661 -0.0002 -0.8014 -0.0849
 2967TIP3    H2 8866   2.646   1.996   0.661  0.5288  0.0483 -0.5270
 2968TIP3   OH2 8867   0.839   6.676   1.267 -0.0377 -0.0926  0.2890
 2968TIP3    H1 8868   0.748   6.696   1.244  0.2779  1.3698  0.1910
 2968TIP3    H2 8869   0.836   6.650   1.359 -0.5196  0.2958  0.3849
 2969TIP3   OH2 8870   2.512   4.441   4.593  0.3464 -0.0291 -0.6297
 2969TIP3    H1 8871   2.543   4.482   4.674  0.1962 -0.4880 -0.3418
 2969TIP3    H2 8872   2.492   4.351   4.617 -2.3360  0.5292 -0.5292
 2970TIP3   OH2 8873   6.704   2.473   2.438  0.3656  0.6211 -0.1006
 2970TIP3    H1 8874   6.670   2.548   2.389  1.2992  0.4763 -1.0141
 2970TIP3    H2 8875   6.691   2.398   2.380  0.3529  0.2412  0.3880
 2971TIP3   OH2 8876   4.812   0.537   3.120  0.2227 -0.2958 -0.2133
 2971TIP3    H1 8877   4.902   0.571   3.115  0.7725 -1.5516  0.5190
 2971TIP3    H2 8878   4.821   0.453   3.165 -1.4886  0.1572  1.0957
 2972TIP3   OH2 8879   0.671   1.077   4.859  0.1990 -0.3239  0.5113
 2972TIP3    H1 8880   0.601   1.060   4.922 -0.4050 -0.8335 -0.2929
 2972TIP3    H2 8881   0.720   1.150   4.898 -0.7026 -0.0289  1.1304
 2973TIP3   OH2 8882   3.114   5.938   0.565  0.7376  0.1814  0.5058
 2973TIP3    H1 8883   3.143   5.875   0.630  1.8616  0.2661  0.1055
 2973TIP3    H2 8884   3.112   6.022   0.611  1.3030  0.2014  0.4937
 2974TIP3   OH2 8885   0.485   4.075   4.695 -0.1099 -0.4950 -0.4545
 2974TIP3    H1 8886   0.509   4.023   4.771 -1.1000 -0.5809 -0.1876
 2974TIP3    H2 8887   0.392   4.095   4.708 -0.3119 -0.5754 -1.6795
 2975TIP3   OH2 8888   3.165   2.656   4.168  0.3860  0.2720  0.1973
 2975TIP3    H1 8889   3.246   2.606   4.173  0.7877  0.7845 -0.8051
 2975TIP3    H2 8890   3.108   2.606   4.109  0.7724  0.9349 -0.7722
 2976TIP3   OH2 8891   3.133   6.655   5.766 -0.7420  0.0141  0.0784
 2976TIP3    H1 8892   3.064   6.672   5.702  0.1938 -0.2636 -1.0283
 2976TIP3    H2 8893   3.204   6.714   5.742  0.5706 -1.7939 -0.6776
 2977TIP3   OH2 8894   1.886   0.948   2.152  0.0894  0.6652 -0.5023
 2977TIP3    H1 8895   1.878   0.993   2.236  0.2996  0.6913 -0.4967
 2977TIP3    H2 8896   1.906   0.857   2.176 -3.1427 -0.1426 -0.3980
 2978TIP3   OH2 8897   4.171   3.145   3.524 -0.8792 -0.8535  0.3081
 2978TIP3    H1 8898   4.185   3.120   3.433  0.1408  0.2468  0.1317
 2978TIP3    H2 8899   4.204   3.235   3.530 -1.3127 -0.7522  1.6677
 2979TIP3   OH2 8900   5.174   5.514   4.401  0.3324 -0.3303 -0.4438
 2979TIP3    H1 8901   5.121   5.593   4.406  2.5595  1.3787 -1.8169
 2979TIP3    H2 8902   5.120   5.451   4.353 -1.0345  0.7717 -0.3893
 2980TIP3   OH2 8903   2.776   0.491   4.317  0.6703 -0.0686 -0.4447
 2980TIP3    H1 8904   2.862   0.494   4.275  1.2114  0.2815  0.6469
 2980TIP3    H2 8905   2.716   0.526   4.251  1.2161 -1.1184 -1.5267
 2981TIP3   OH2 8906   6.124   0.926  -0.023  0.1542  0.0955 -0.2109
 2981TIP3    H1 8907   6.119   0.904   0.071 -1.0006  0.0211 -0.2766
 2981TIP3    H2 8908   6.215   0.910  -0.046  0.6527  0.8840  1.0897
 2982TIP3   OH2 8909   2.940   1.253   4.460 -0.1568  0.5501  0.4302
 2982TIP3    H1 8910   2.976   1.313   4.395  1.4072 -0.7367  0.0414
 2982TIP3    H2 8911   3.010   1.238   4.522 -1.0873  0.4516  1.4912
 2983TIP3   OH2 8912   2.069   3.432   3.722  0.4933 -0.0659  0.4305
 2983TIP3    H1 8913   2.096   3.355   3.672  1.3645  1.1445 -1.0700
 2983TIP3    H2 8914   2.004   3.399   3.784  1.7475 -2.2228  0.7203
 2984TIP3   OH2 8915   2.343   6.514   4.386  0.0425  0.0031  0.2208
 2984TIP3    H1 8916   2.369   6.551   4.301 -1.4027 -0.5465 -0.4935
 2984TIP3    H2 8917   2.247   6.519   4.385  0.0314  1.1226  2.3526
 2985TIP3   OH2 8918   1.877   5.082   4.150  0.0590  0.3261  0.3907
 2985TIP3    H1 8919   1.795   5.097   4.196 -0.8056 -0.5718 -0.7786
 2985TIP3    H2 8920   1.889   5.160   4.096 -0.9475 -0.2677 -0.7245
 2986TIP3   OH2 8921   6.220   4.531   1.847  0.5084  0.2723  0.0567
 2986TIP3    H1 8922   6.154   4.585   1.805  0.1756 -0.6169 -0.5997
 2986TIP3    H2 8923   6.174   4.451   1.871  1.6337 -1.0114 -1.7878
 2987TIP3   OH2 8924   5.980   1.514   3.157 -0.2932 -0.2578  0.3213
 2987TIP3    H1 8925   5.992   1.532   3.250 -0.5420 -0.8220  0.4683
 2987TIP3    H2 8926   5.975   1.600   3.116  0.0324 -0.0074  0.8009
 2988TIP3   OH2 8927   1.685   0.269   1.759 -0.0795 -0.1638  0.6013
 2988TIP3    H1 8928   1.642   0.354   1.746 -0.5649 -0.3258  1.0861
 2988TIP3    H2 8929   1.635   0.228   1.829  0.4139 -0.6789  0.6572
 2989TIP3   OH2 8930   4.413   4.143   4.498 -0.1379 -0.0479  0.0461
 2989TIP3    H1 8931   4.507   4.144   4.513 -0.1892 -1.3034  0.6141
 2989TIP3    H2 8932   4.404   4.133   4.404  0.3337 -1.0348  0.0894
 2990TIP3   OH2 8933   2.961   6.046   5.803 -0.4130  0.6546 -0.4230
 2990TIP3    H1 8934   2.950   5.951   5.805  2.6614  0.2079  0.0703
 2990TIP3    H2 8935   2.910   6.078   5.877  0.4251 -0.9262  0.9124
 2991TIP3   OH2 8936   4.555   2.015   4.802 -0.3167 -0.1131  0.5673
 2991TIP3    H1 8937   4.532   1.945   4.863 -1.8100 -0.9663 -0.9144
 2991TIP3    H2 8938   4.477   2.028   4.749  1.2066 -0.1316 -1.8515
 2992TIP3   OH2 8939   2.841   5.056   4.751  0.1803 -0.4924 -0.7476
 2992TIP3    H1 8940   2.755   5.060   4.793  0.0070 -1.1642 -1.0354
 2992TIP3    H2 8941   2.862   4.963   4.747  1.4175 -0.2907  0.3008
 2993TIP3   OH2 8942   1.266   3.640   5.793 -0.4846 -0.0189 -0.2678
 2993TIP3    H1 8943   1.222   3.723   5.806  0.5154  0.4998 -0.0493
 2993TIP3    H2 8944   1.255   3.620   5.700  2.3265  2.2268 -1.2332
 2994TIP3   OH2 8945   2.788   6.730   2.964 -0.4496 -0.0654 -0.0603
 2994TIP3    H1 8946   2.877   6.751   2.935  0.1197 -0.9173  0.9953
 2994TIP3    H2 8947   2.732   6.789   2.914  0.6628  0.0896 -1.1669
 2995TIP3   OH2 8948   0.658   3.954   1.618 -0.0179  0.5667 -0.5571
 2995TIP3    H1 8949   0.657   3.874   1.565 -1.1813  1.5702 -2.1214
 2995TIP3    H2 8950   0.611   3.931   1.698  2.5675 -1.2496  0.5696
 2996TIP3   OH2 8951   0.907   3.070   5.801  0.1795  0.0218  0.0699
 2996TIP3    H1 8952   0.932   3.139   5.863  0.1880  0.3613 -0.3042
 2996TIP3    H2 8953   0.833   3.026   5.843  1.2138 -0.8095  1.0518
 2997TIP3   OH2 8954   5.115   6.219   4.169  0.0397 -0.0181 -0.3427
 2997TIP3    H1 8955   5.205   6.252   4.176  0.2166  0.0404 -2.2799
 2997TIP3    H2 8956   5.065   6.295   4.140 -0.3444 -0.4305 -0.7699
 2998TIP3   OH2 8957   2.443   2.397   5.489  0.4660  0.0296  0.0773
 2998TIP3    H1 8958   2.520   2.452   5.506  0.0042  0.4795  0.7469
 2998TIP3    H2 8959   2.443   2.386   5.394  0.7755  0.8865 -0.0325
 2999TIP3   OH2 8960   2.343   1.569   1.415 -0.4297 -0.8035 -0.1609
 2999TIP3    H1 8961   2.330   1.475   1.409 -3.8219 -0.4626 -0.1392
 2999TIP3    H2 8962   2.255   1.605   1.428  0.7040  2.3953 -0.3561
 3000TIP3   OH2 8963   6.705   3.566   4.924 -0.0618 -0.2726  0.2932
 3000TIP3    H1 8964   6.678   3.615   5.002 -0.9046 -0.4986  0.1484
 3000TIP3    H2 8965   6.747   3.632   4.868 -2.0445  0.5445 -0.3377
 3001TIP3   OH2 8966   2.826   4.118   5.476  0.2761  0.8002 -0.9547
 3001TIP3    H1 8967   2.903   4.081   5.433 -0.5483 -0.7999 -1.1485
 3001TIP3    H2 8968   2.753   4.069   5.439 -0.5330 -0.3126  1.8969
 3002TIP3   OH2 8969   0.007   5.435   4.460  0.3762 -0.0209 -0.4869
 3002TIP3    H1 8970   0.013   5.340   4.473 -0.5005  0.1493  1.5128
 3002TIP3    H2 8971   0.098   5.465   4.465  0.6366 -0.7193 -0.8410
 3003TIP3   OH2 8972   6.220   2.171   2.959  0.0744 -0.1035 -0.7564
 3003TIP3    H1 8973   6.258   2.087   2.934 -0.9861 -1.2259  1.0875
 3003TIP3    H2 8974   6.205   2.163   3.053 -0.8432  1.8422 -0.6807
 3004TIP3   OH2 8975   0.774   3.316   4.997 -0.0186  0.2989 -0.5011
 3004TIP3    H1 8976   0.768   3.403   5.037 -1.1403 -0.3424  0.8129
 3004TIP3    H2 8977   0.744   3.256   5.065  0.3576 -1.0878 -1.5137
 3005TIP3   OH2 8978   0.228   4.987   3.032  0.0325 -0.0659  0.1731
 3005TIP3    H1 8979   0.250   5.081   3.031 -2.7103  0.6930  0.9761
 3005TIP3    H2 8980   0.307   4.943   3.002  0.9376  2.6139 -1.7240
 3006TIP3   OH2 8981   4.963   0.133   2.417 -0.2782  0.7917 -0.2313
 3006TIP3    H1 8982   4.938   0.216   2.376 -1.3219  0.7818  0.3578
 3006TIP3    H2 8983   4.880   0.086   2.427  0.1293  0.2539  0.6935
 3007TIP3   OH2 8984   5.666   1.565   2.931  0.0614  0.2171  0.2807
 3007TIP3    H1 8985   5.629   1.557   3.018 -1.8309  0.6602 -0.4472
 3007TIP3    H2 8986   5.599   1.531   2.872  0.4599  1.7481 -1.1558
 3008TIP3   OH2 8987   6.495   2.723   2.182  0.2214 -0.4755 -0.3738
 3008TIP3    H1 8988   6.522   2.813   2.165  0.9448 -0.7514 -0.7289
 3008TIP3    H2 8989   6.484   2.684   2.096 -0.3889 -0.6479 -0.2244
 3009TIP3   OH2 8990   6.635   4.549   4.822 -0.4282 -0.2519  0.2118
 3009TIP3    H1 8991   6.560   4.599   4.854  0.3250  0.6525  0.5974
 3009TIP3    H2 8992   6.666   4.598   4.746  0.3483 -0.0842  0.6246
 3010TIP3   OH2 8993   6.038   4.689   0.327 -0.0659  0.3134 -0.4539
 3010TIP3    H1 8994   6.050   4.723   0.416 -2.1280 -2.2860  0.9707
 3010TIP3    H2 8995   6.035   4.594   0.338 -0.9057 -0.0615 -3.2386
 3011TIP3   OH2 8996   1.118   3.465   4.661 -0.6196  0.2992 -0.5280
 3011TIP3    H1 8997   1.102   3.444   4.753 -0.2783  1.4221 -0.2042
 3011TIP3    H2 8998   1.033   3.493   4.628 -0.3821  1.5625 -0.0916
 3012TIP3   OH2 8999   5.977   2.634   1.297 -0.0362 -0.3165 -0.1051
 3012TIP3    H1 9000   5.900   2.673   1.256 -0.2838  1.6734  2.0759
 3012TIP3    H2 9001   6.047   2.698   1.282  0.7725 -1.2705 -0.5179
 3013TIP3   OH2 9002   0.028   3.144   3.343  0.0960  0.3548  0.1478
 3013TIP3    H1 9003   0.101   3.196   3.376 -0.9711  2.9955 -1.3490
 3013TIP3    H2 9004  -0.050   3.189   3.377 -0.8916 -0.1778 -1.3440
 3014TIP3   OH2 9005   6.664   0.969   3.596  0.2764 -0.1080  0.0551
 3014TIP3    H1 9006   6.596   0.923   3.645 -0.7693  0.5638 -0.7263
 3014TIP3    H2 9007   6.738   0.908   3.594  0.0675 -0.4580  1.7646
 3015TIP3   OH2 9008   0.434   2.469   0.441  0.0237  0.2452 -0.1805
 3015TIP3    H1 9009   0.504   2.508   0.388 -1.5733  0.6529 -2.0937
 3015TIP3    H2 9010   0.389   2.409   0.381 -1.0461 -0.3011  1.1122
 3016TIP3   OH2 9011   1.744   5.359   0.104 -0.0195  0.2462 -1.0349
 3016TIP3    H1 9012   1.817   5.339   0.045 -0.0218 -1.6737 -0.4353
 3016TIP3    H2 9013   1.762   5.309   0.183 -0.4021  2.2043  0.3456
 3017TIP3   OH2 9014   6.741   0.795   2.925 -0.5111  0.0433 -0.6182
 3017TIP3    H1 9015   6.738   0.816   3.019  0.6064 -0.0451 -0.5518
 3017TIP3    H2 9016   6.788   0.868   2.886 -2.1390  0.7469 -1.3305
 3018TIP3   OH2 9017   4.570   2.227   3.757 -0.0443 -0.4094 -0.4109
 3018TIP3    H1 9018   4.584   2.319   3.733  1.5136  0.5066  3.3526
 3018TIP3    H2 9019   4.493   2.229   3.815 -0.5971 -1.6894 -1.0534
 3019TIP3   OH2 9020   4.466   4.131   3.551  0.0879 -0.3604  0.5922
 3019TIP3    H1 9021   4.421   4.096   3.474 -0.3260 -0.5252  0.9088
 3019TIP3    H2 9022   4.558   4.108   3.537 -0.1250 -1.2561  0.6112
 3020TIP3   OH2 9023   5.341   1.718   3.038  0.0605  0.4742 -0.2342
 3020TIP3    H1 9024   5.319   1.728   3.130 -2.7423 -1.8005 -0.5330
 3020TIP3    H2 9025   5.326   1.804   2.999  0.9357  1.3632  1.3191
 3021TIP3   OH2 9026   3.318   3.708   4.325  0.4448 -0.3406  0.3696
 3021TIP3    H1 9027   3.362   3.784   4.288 -0.5851  0.7733  1.3529
 3021TIP3    H2 9028   3.349   3.634   4.272  1.6725  0.7085 -0.4298
 3022TIP3   OH2 9029   0.498   5.649   3.416  0.0608  0.5695 -0.8338
 3022TIP3    H1 9030   0.460   5.718   3.362 -2.6714  0.2825  0.5344
 3022TIP3    H2 9031   0.448   5.653   3.498  0.7933 -2.0863 -0.1607
 3023TIP3   OH2 9032   4.506   6.250   5.672  0.1074 -0.4623  0.1586
 3023TIP3    H1 9033   4.518   6.343   5.653 -0.2574 -0.1049  1.5610
 3023TIP3    H2 9034   4.514   6.207   5.587  1.8477  0.6777 -0.3031
 3024TIP3   OH2 9035   0.425   4.431   0.902  0.0868  0.0286  0.0326
 3024TIP3    H1 9036   0.477   4.404   0.978  1.9513  0.1383 -1.1433
 3024TIP3    H2 9037   0.401   4.349   0.859 -0.9838 -0.0341  0.6930
 3025TIP3   OH2 9038   2.694   5.613   2.913  0.2000  0.1090  0.7076
 3025TIP3    H1 9039   2.657   5.590   2.998  0.8738 -1.9922  0.4983
 3025TIP3    H2 9040   2.788   5.594   2.922  0.2419 -0.3963 -0.5612
 3026TIP3   OH2 9041   2.376   0.510   1.483  0.4544  0.1619  0.2434
 3026TIP3    H1 9042   2.357   0.537   1.573  1.5662 -0.2934  0.6351
 3026TIP3    H2 9043   2.378   0.591   1.433  0.4058  0.4790  0.7471
 3027TIP3   OH2 9044   6.254   1.700   1.411  0.0902  0.4131 -0.0685
 3027TIP3    H1 9045   6.192   1.717   1.482  1.0658 -1.3090  1.2484
 3027TIP3    H2 9046   6.214   1.743   1.335 -2.3876 -0.0186  0.8721
 3028TIP3   OH2 9047   3.561   2.936   3.813 -0.3117 -0.0589  0.0797
 3028TIP3    H1 9048   3.574   2.928   3.718  1.2717 -0.2132  0.2864
 3028TIP3    H2 9049   3.523   3.024   3.824 -0.2677  0.0626 -0.6666
 3029TIP3   OH2 9050   4.206   0.867   1.206  0.1105 -0.1513 -0.4833
 3029TIP3    H1 9051   4.140   0.815   1.160 -0.7207 -0.1884  0.7006
 3029TIP3    H2 9052   4.158   0.941   1.241  0.7326 -0.0949  0.2789
 3030TIP3   OH2 9053   6.022   6.114   4.635 -0.0558 -0.2826  0.4135
 3030TIP3    H1 9054   6.032   6.101   4.729 -0.8616  0.8011  0.6746
 3030TIP3    H2 9055   6.104   6.155   4.607 -0.1289  0.1371  0.8043
 3031TIP3   OH2 9056   0.447   5.978   1.952 -0.0440  0.0013  0.1115
 3031TIP3    H1 9057   0.424   5.890   1.982  0.0638 -0.3159 -0.7346
 3031TIP3    H2 9058   0.384   5.997   1.883  0.1333  0.4594  0.0754
 3032TIP3   OH2 9059   0.511   2.996   2.142  0.2985 -0.1693  0.0682
 3032TIP3    H1 9060   0.453   2.992   2.218 -0.2018  0.6342 -0.2583
 3032TIP3    H2 9061   0.549   3.084   2.146 -1.7122  0.9080 -1.9949
 3033TIP3   OH2 9062   3.355   5.362   0.485 -0.3641  0.9801 -0.0288
 3033TIP3    H1 9063   3.432   5.401   0.526 -0.6104  2.2311 -0.6927
 3033TIP3    H2 9064   3.376   5.360   0.392 -0.2439 -0.8163 -0.0024
 3034TIP3   OH2 9065   7.232   5.617   0.887 -0.3578  0.1125  0.4423
 3034TIP3    H1 9066   7.160   5.554   0.879 -0.2398 -0.1757  1.5281
 3034TIP3    H2 9067   7.204   5.693   0.836  0.2753 -1.4617 -2.4516
 3035TIP3   OH2 9068   5.808   3.225   3.890 -0.1686  0.4979 -0.2113
 3035TIP3    H1 9069   5.723   3.212   3.931 -0.5095  0.5321 -0.8887
 3035TIP3    H2 9070   5.788   3.240   3.797  0.6005  0.0364 -0.4631
 3036TIP3   OH2 9071   0.774   0.907   2.284  0.2431  0.2375  0.4049
 3036TIP3    H1 9072   0.710   0.903   2.355  0.3909 -0.1733  0.5209
 3036TIP3    H2 9073   0.832   0.832   2.300  0.3391  0.2008 -0.0874
 3037TIP3   OH2 9074   3.332   5.953   3.558  0.0844  0.9358 -0.8482
 3037TIP3    H1 9075   3.362   6.043   3.547  1.1676  0.8197  0.7552
 3037TIP3    H2 9076   3.257   5.959   3.616  0.0106  0.8206 -0.9295
 3038TIP3   OH2 9077   3.455   1.393   4.612  0.0873 -0.0982  0.3009
 3038TIP3    H1 9078   3.369   1.413   4.651  0.1868  2.4278 -0.5650
 3038TIP3    H2 9079   3.437   1.322   4.550 -1.3105  0.1016  0.4324
 3039TIP3   OH2 9080   4.968   2.627   4.567  0.4004  0.0759 -0.2821
 3039TIP3    H1 9081   4.968   2.558   4.501 -4.3755  0.2478 -0.7458
 3039TIP3    H2 9082   4.976   2.708   4.517  0.4679  0.0971 -0.2387
 3040TIP3   OH2 9083   4.036   5.420   5.196  0.2093  0.2500 -0.1306
 3040TIP3    H1 9084   3.944   5.418   5.172 -0.5477  0.2703  2.5720
 3040TIP3    H2 9085   4.040   5.471   5.277  2.5502 -0.0207  0.0066
 3041TIP3   OH2 9086   5.623   1.515   1.686 -0.0515  0.1706 -0.0016
 3041TIP3    H1 9087   5.575   1.597   1.675  1.2666  1.2197  1.6062
 3041TIP3    H2 9088   5.556   1.451   1.708 -1.1139  0.7648 -1.3067
 3042TIP3   OH2 9089   6.410   2.056   3.506 -0.3431  0.1018  0.1020
 3042TIP3    H1 9090   6.458   2.120   3.558 -0.4707 -1.6937  2.5936
 3042TIP3    H2 9091   6.320   2.090   3.504 -0.0993  0.7658  0.0286
 3043TIP3   OH2 9092   5.129   5.148   3.936 -0.5629  0.5212  0.0074
 3043TIP3    H1 9093   5.047   5.159   3.984 -0.5234  2.7648 -0.3298
 3043TIP3    H2 9094   5.113   5.191   3.852  0.7770  0.5007 -0.2816
 3044TIP3   OH2 9095   3.760   3.006   4.886 -0.4129 -0.1996  0.0225
 3044TIP3    H1 9096   3.855   3.004   4.898 -0.2852 -0.7119 -0.9826
 3044TIP3    H2 9097   3.743   3.092   4.848 -0.6019  0.6673  1.9340
 3045TIP3   OH2 9098   4.222   2.433   2.800 -0.3669  0.5294 -0.3490
 3045TIP3    H1 9099   4.145   2.406   2.750 -0.7593  0.5444  0.2328
 3045TIP3    H2 9100   4.190   2.502   2.858  0.1913  0.8631 -0.4223
 3046TIP3   OH2 9101   7.194   2.875   4.421 -0.1912 -0.2308  0.1071
 3046TIP3    H1 9102   7.213   2.788   4.385  2.3423  0.5692 -0.7327
 3046TIP3    H2 9103   7.099   2.882   4.420 -0.4366 -2.8090 -0.2184
 3047TIP3   OH2 9104   0.051   0.381   3.661 -0.3861 -0.6999 -0.3231
 3047TIP3    H1 9105   0.124   0.334   3.701 -1.1735 -0.2300  1.7805
 3047TIP3    H2 9106   0.023   0.324   3.589  2.2331 -0.7211 -1.4665
 3048TIP3   OH2 9107   0.545   2.598   2.513  0.3174  0.1179  0.1911
 3048TIP3    H1 9108   0.628   2.573   2.554 -0.2398  0.6711  1.7337
 3048TIP3    H2 9109   0.555   2.573   2.421  0.8805 -2.9720  0.9984
 3049TIP3   OH2 9110   6.951   3.460   2.685 -1.0271  0.1921  0.0861
 3049TIP3    H1 9111   6.920   3.522   2.619 -2.7718 -0.0836  0.6093
 3049TIP3    H2 9112   6.939   3.374   2.645 -0.6380  0.0930  0.1785
 3050TIP3   OH2 9113   7.171   3.872   2.846  0.8116 -0.0529 -0.2832
 3050TIP3    H1 9114   7.160   3.967   2.850 -2.0969 -0.2965  0.1402
 3050TIP3    H2 9115   7.137   3.848   2.760  0.1001 -0.8007  0.1892
 3051TIP3   OH2 9116   5.098   5.251   0.942  0.2147  0.8475 -0.5709
 3051TIP3    H1 9117   5.177   5.302   0.961  1.6626 -0.8927 -1.5929
 3051TIP3    H2 9118   5.083   5.265   0.849  1.3379 -1.4188 -1.1556
 3052TIP3   OH2 9119   0.934   1.450   5.223  0.0324  0.0067 -0.2443
 3052TIP3    H1 9120   1.016   1.400   5.216  0.9072  1.4259 -0.4299
 3052TIP3    H2 9121   0.925   1.492   5.137  0.4251  1.8241  0.5679
 3053TIP3   OH2 9122   5.114   3.770   5.240  0.4383  0.0632 -0.1530
 3053TIP3    H1 9123   5.101   3.824   5.318 -2.5083  0.9739 -1.1323
 3053TIP3    H2 9124   5.155   3.828   5.177  2.6546 -0.6236  0.5458
 3054TIP3   OH2 9125   5.371   4.690   3.921 -0.6254 -0.3418 -0.0292
 3054TIP3    H1 9126   5.408   4.672   3.835 -1.6073  0.6713 -0.6915
 3054TIP3    H2 9127   5.359   4.785   3.923 -0.9516 -0.3872  1.0860
 3055TIP3   OH2 9128   4.835   3.557   4.461 -0.4957  0.0352 -0.0460
 3055TIP3    H1 9129   4.792   3.479   4.426  0.2866 -0.4194 -0.0194
 3055TIP3    H2 9130   4.790   3.631   4.419 -1.1810 -0.4332 -0.1381
 3056TIP3   OH2 9131   3.190   4.089   3.688 -0.0963  0.6933 -0.0269
 3056TIP3    H1 9132   3.265   4.031   3.676 -0.8812 -0.2317 -0.6949
 3056TIP3    H2 9133   3.148   4.092   3.602 -0.9322  1.0348  0.3840
 3057TIP3   OH2 9134   5.463   5.458   4.828 -0.0016 -0.0213 -0.6875
 3057TIP3    H1 9135   5.445   5.478   4.736 -0.0134  3.1307 -0.1183
 3057TIP3    H2 9136   5.556   5.480   4.840 -0.0693 -0.1252  0.1091
 3058TIP3   OH2 9137   6.904   3.176   3.977 -0.4660  0.0379  0.3726
 3058TIP3    H1 9138   6.896   3.212   3.889  0.6747  0.2352  0.3360
 3058TIP3    H2 9139   6.998   3.176   3.995 -0.6582 -0.2746  1.4770
 3059TIP3   OH2 9140   3.980   0.165   1.190  0.2590 -0.1841  0.2024
 3059TIP3    H1 9141   3.929   0.177   1.110  1.0664  1.3320 -0.1158
 3059TIP3    H2 9142   3.953   0.079   1.223 -1.9884  0.2481 -0.3067
 3060TIP3   OH2 9143   5.472   0.666   3.200 -0.1369  0.3933 -0.1520
 3060TIP3    H1 9144   5.504   0.751   3.229  0.0716 -0.5104  2.4951
 3060TIP3    H2 9145   5.378   0.666   3.221 -0.2652  0.1589 -0.6859
 3061TIP3   OH2 9146   0.803   6.665   3.580  0.0159  0.1000  0.2128
 3061TIP3    H1 9147   0.807   6.622   3.494 -1.0126  0.0819  0.1560
 3061TIP3    H2 9148   0.894   6.671   3.609  0.3706  0.0636 -0.8600
 3062TIP3   OH2 9149   0.044   6.030   5.673 -0.0509 -0.2762  0.8427
 3062TIP3    H1 9150   0.071   5.940   5.653 -2.9979 -1.0574 -0.0657
 3062TIP3    H2 9151  -0.008   6.021   5.753 -1.8692  0.2673 -0.2265
 3063TIP3   OH2 9152   5.300   5.379   1.305 -0.4099  0.4494  0.2436
 3063TIP3    H1 9153   5.385   5.345   1.277  0.1784  2.7678 -1.0455
 3063TIP3    H2 9154   5.253   5.395   1.223 -0.8954  2.0367  0.8096
 3064TIP3   OH2 9155   1.197   1.792   3.044 -0.1546 -0.3740 -0.4178
 3064TIP3    H1 9156   1.286   1.805   3.012  0.1640  0.6620  0.8194
 3064TIP3    H2 9157   1.186   1.696   3.044  0.4907 -0.4780 -1.7412
 3065TIP3   OH2 9158   6.001   4.176   0.473 -0.4606  0.4687  0.5766
 3065TIP3    H1 9159   6.082   4.195   0.521 -0.5910 -1.5724  1.7190
 3065TIP3    H2 9160   5.940   4.147   0.540 -0.7503 -2.1957 -0.7271
 3066TIP3   OH2 9161   6.179   0.404   4.958  0.2157 -0.3788  0.4646
 3066TIP3    H1 9162   6.233   0.337   5.000  0.2372  0.1812  1.3561
 3066TIP3    H2 9163   6.241   0.475   4.937 -0.0155 -0.1095  0.6809
 3067TIP3   OH2 9164   2.651   3.795   3.330  0.6214  0.6306 -0.1267
 3067TIP3    H1 9165   2.631   3.879   3.372  0.5018  0.1831  0.7352
 3067TIP3    H2 9166   2.693   3.743   3.399 -0.0856 -0.3264 -0.3979
 3068TIP3   OH2 9167   0.315   5.811   3.285 -0.0470 -0.3159 -0.6293
 3068TIP3    H1 9168   0.306   5.906   3.296 -0.5735 -0.5261  1.1514
 3068TIP3    H2 9169   0.311   5.797   3.191 -1.0602  1.3218 -0.8694
 3069TIP3   OH2 9170   6.897   0.991   3.907 -0.2294  0.5807  0.2990
 3069TIP3    H1 9171   6.964   1.056   3.927  0.7422  0.6125 -2.6389
 3069TIP3    H2 9172   6.823   1.041   3.874 -0.3100  0.3362  0.1048
 3070TIP3   OH2 9173   6.681   4.277   2.539  0.4079 -0.2510  0.1525
 3070TIP3    H1 9174   6.586   4.291   2.537  0.1091 -2.0613 -1.8245
 3070TIP3    H2 9175   6.707   4.273   2.447  2.5737  0.9501  0.6355
 3071TIP3   OH2 9176   0.597   0.117   4.585  0.3070 -0.3221  0.4897
 3071TIP3    H1 9177   0.674   0.134   4.530 -0.4724  1.9422 -0.0130
 3071TIP3    H2 9178   0.526   0.105   4.523 -0.0625 -0.6949  0.9808
 3072TIP3   OH2 9179   0.989   2.491   4.754 -0.0054 -0.2451 -0.2802
 3072TIP3    H1 9180   1.019   2.509   4.843 -1.1513  1.5426 -0.1940
 3072TIP3    H2 9181   0.906   2.443   4.766  0.0146 -0.3060 -0.3850
 3073TIP3   OH2 9182   5.595   6.413   1.649  0.1524 -0.4122  0.3358
 3073TIP3    H1 9183   5.520   6.414   1.590  0.5297  0.1795 -0.1408
 3073TIP3    H2 9184   5.662   6.361   1.604  0.2998 -0.2975  0.4190
 3074TIP3   OH2 9185   5.558   3.201   5.009  0.0680  0.3815 -0.0689
 3074TIP3    H1 9186   5.473   3.227   4.973 -1.2461 -2.3648  0.7460
 3074TIP3    H2 9187   5.562   3.244   5.095 -0.0586  1.2134 -0.4668
 3075TIP3   OH2 9188   1.710   4.039   4.961  0.2141  0.3330 -0.2587
 3075TIP3    H1 9189   1.704   4.129   4.929  0.2669 -0.0699 -1.4544
 3075TIP3    H2 9190   1.716   3.986   4.882 -1.7112 -0.8832  0.3218
 3076TIP3   OH2 9191   2.130   5.202   3.426  0.4680 -0.0012 -0.1289
 3076TIP3    H1 9192   2.086   5.210   3.511  1.1841 -2.3820  0.5437
 3076TIP3    H2 9193   2.223   5.208   3.446  0.6198  2.8852 -1.2714
 3077TIP3   OH2 9194   0.087   6.491   3.903 -0.0945 -0.0703  0.2880
 3077TIP3    H1 9195   0.153   6.554   3.876 -1.5933  1.1990 -0.5588
 3077TIP3    H2 9196   0.090   6.423   3.836  0.0658  0.1867  0.0338
 3078TIP3   OH2 9197   3.354   5.662   5.909  0.2919  0.6463  0.4978
 3078TIP3    H1 9198   3.347   5.643   5.816 -0.0323  0.5896  0.5350
 3078TIP3    H2 9199   3.449   5.663   5.926  0.3328 -1.1257  0.5264
 3079TIP3   OH2 9200   5.904   3.183   1.699 -0.4139  0.2386  0.3420
 3079TIP3    H1 9201   5.865   3.265   1.731  0.5422  1.0569 -0.5318
 3079TIP3    H2 9202   5.849   3.114   1.737 -3.1064  1.3313 -1.3125
 3080TIP3   OH2 9203   6.150   4.555   1.167  0.3812  0.0354 -0.0394
 3080TIP3    H1 9204   6.109   4.468   1.167 -2.3982  1.2515  0.5226
 3080TIP3    H2 9205   6.134   4.589   1.079 -1.9390  1.3645  0.8051
 3081TIP3   OH2 9206   0.657   2.703   1.238  0.4592  0.1818  0.1074
 3081TIP3    H1 9207   0.677   2.657   1.319  1.3621  0.1989 -0.0855
 3081TIP3    H2 9208   0.662   2.636   1.170  0.3595  0.2871 -0.0030
 3082TIP3   OH2 9209   5.699   6.304   1.085  0.9886 -0.3635  0.0160
 3082TIP3    H1 9210   5.762   6.365   1.124  0.4206 -0.8823  1.8524
 3082TIP3    H2 9211   5.718   6.307   0.992  2.2705  1.1433  0.2735
 3083TIP3   OH2 9212   3.344   2.474   5.017 -0.0932  0.0951  0.5821
 3083TIP3    H1 9213   3.434   2.449   5.036 -0.1120 -0.4117  0.0296
 3083TIP3    H2 9214   3.346   2.504   4.926  0.0880  2.9376  1.4119
 3084TIP3   OH2 9215   4.200   0.381   5.618  0.1292  0.3020  0.0413
 3084TIP3    H1 9216   4.126   0.323   5.599  0.7495 -1.9221  3.5572
 3084TIP3    H2 9217   4.270   0.351   5.560  0.2084 -2.1481  1.2927
 3085TIP3   OH2 9218   1.350   0.444   1.790  0.2597 -0.7033 -0.2802
 3085TIP3    H1 9219   1.350   0.432   1.695  2.8074 -2.8178 -0.1174
 3085TIP3    H2 9220   1.434   0.487   1.808 -0.0623 -0.6012  1.0532
 3086TIP3   OH2 9221   1.520   5.750   3.914  0.5855 -0.2083 -0.2731
 3086TIP3    H1 9222   1.559   5.819   3.969  1.6968 -1.0132 -0.0159
 3086TIP3    H2 9223   1.593   5.691   3.895 -0.3014 -1.1868 -0.6993
 3087TIP3   OH2 9224   6.200   4.577   1.508 -0.1702  0.0342 -0.1459
 3087TIP3    H1 9225   6.111   4.557   1.478 -0.3945  0.8960 -0.0975
 3087TIP3    H2 9226   6.205   4.538   1.595 -1.5743  2.4342  1.1369
 3088TIP3   OH2 9227   0.455   3.098   5.025 -0.3406 -0.1837 -0.5613
 3088TIP3    H1 9228   0.386   3.043   5.061 -0.7412  0.2560 -0.6339
 3088TIP3    H2 9229   0.477   3.057   4.941  2.0418 -2.3857  1.0242
 3089TIP3   OH2 9230   1.176   1.910   5.660  0.9144 -0.1186  0.0931
 3089TIP3    H1 9231   1.095   1.950   5.689  1.4445 -0.3166  1.9616
 3089TIP3    H2 9232   1.188   1.835   5.719  1.6734 -1.0157 -1.1467
 3090TIP3   OH2 9233   0.271   5.381   0.024  0.4231 -0.1459  0.2893
 3090TIP3    H1 9234   0.271   5.450   0.091 -0.8553  0.3125 -0.1577
 3090TIP3    H2 9235   0.360   5.383  -0.012  1.1341 -0.3893  1.9313
 3091TIP3   OH2 9236   2.670   5.868   1.328  0.4747  0.1573 -0.5424
 3091TIP3    H1 9237   2.693   5.805   1.396  0.6641  0.0037 -0.7474
 3091TIP3    H2 9238   2.739   5.934   1.332  0.1183  0.5160 -0.1285
 3092TIP3   OH2 9239   6.289   0.465   4.057  0.2610 -0.0971  0.1412
 3092TIP3    H1 9240   6.273   0.534   4.121  0.2206 -1.4740  1.6879
 3092TIP3    H2 9241   6.367   0.493   4.009  0.5563  0.7481  1.0971
 3093TIP3   OH2 9242   3.263   1.540   2.055  0.2931 -0.4991 -0.0559
 3093TIP3    H1 9243   3.311   1.467   2.094  1.8093  1.6526  2.3929
 3093TIP3    H2 9244   3.191   1.558   2.116 -0.5533 -0.3964 -1.0439
 3094TIP3   OH2 9245   2.875   1.628   4.264 -0.3197  0.0337  0.1303
 3094TIP3    H1 9246   2.912   1.694   4.205  0.5395 -2.0262 -1.7668
 3094TIP3    H2 9247   2.949   1.573   4.288 -1.3168 -1.4359 -0.0026
 3095TIP3   OH2 9248   5.548   3.080   4.396  0.0784 -0.0764  0.0899
 3095TIP3    H1 9249   5.527   3.039   4.480 -1.8530 -0.6809 -0.6373
 3095TIP3    H2 9250   5.506   3.166   4.400  0.5463  0.1609 -0.0130
 3096TIP3   OH2 9251   2.367   0.044   0.296  0.1616 -0.1439 -0.3120
 3096TIP3    H1 9252   2.446   0.086   0.262 -0.2471  0.7548 -0.1848
 3096TIP3    H2 9253   2.391  -0.048   0.307  1.1646  0.1070 -0.3394
 3097TIP3   OH2 9254   5.192   0.195   5.051  0.1581  0.3121  0.3295
 3097TIP3    H1 9255   5.123   0.177   4.987  0.4435  0.5012 -0.0432
 3097TIP3    H2 9256   5.151   0.252   5.116 -1.0381 -2.2984  2.0513
 3098TIP3   OH2 9257   0.299   6.583   1.697  0.1589  0.3305 -0.7329
 3098TIP3    H1 9258   0.357   6.658   1.711  1.4759 -0.5573 -1.2383
 3098TIP3    H2 9259   0.247   6.606   1.621  0.5108  0.7644 -0.8433
 3099TIP3   OH2 9260   1.206   1.729   4.705 -0.0337  0.1787  0.0699
 3099TIP3    H1 9261   1.250   1.800   4.657  3.1229 -0.8769  1.1498
 3099TIP3    H2 9262   1.167   1.772   4.781 -1.7097  1.2651 -1.3098
 3100TIP3   OH2 9263   6.144   5.538   1.955  0.4472  0.4841 -0.2239
 3100TIP3    H1 9264   6.208   5.501   2.015  0.7260  0.7160 -0.3776
 3100TIP3    H2 9265   6.168   5.630   1.947 -0.2831  0.7241  0.2147
 3101TIP3   OH2 9266   4.445   5.600   3.402 -0.6156 -0.4546 -0.1725
 3101TIP3    H1 9267   4.370   5.612   3.344 -2.1923 -0.1025  1.8357
 3101TIP3    H2 9268   4.436   5.669   3.468  0.5453 -1.4381  1.0825
 3102TIP3   OH2 9269   1.907   1.295   0.183 -0.0590 -0.0634  0.4764
 3102TIP3    H1 9270   1.826   1.342   0.205 -2.2514 -2.9521 -0.7505
 3102TIP3    H2 9271   1.960   1.300   0.263 -2.5915 -0.2837  2.2939
 3103TIP3   OH2 9272   6.708   5.641   2.315  0.1753 -0.0491 -0.3783
 3103TIP3    H1 9273   6.794   5.682   2.302 -0.1521  0.3194 -1.5084
 3103TIP3    H2 9274   6.646   5.708   2.286 -0.4867 -0.3822  0.2564
 3104TIP3   OH2 9275   3.714   4.338   2.437  0.2218 -0.0177 -0.4667
 3104TIP3    H1 9276   3.634   4.391   2.441 -1.2436 -2.0260 -1.6019
 3104TIP3    H2 9277   3.767   4.380   2.370  0.3645  1.5864  0.5864
 3105TIP3   OH2 9278   0.201   3.327   5.045 -0.3925  0.0984 -0.2079
 3105TIP3    H1 9279   0.293   3.350   5.053 -0.2079 -0.6471 -0.1769
 3105TIP3    H2 9280   0.188   3.255   5.107 -0.7279 -0.5483 -1.0154
 3106TIP3   OH2 9281   1.654   0.932   0.687  0.4110  0.5944  0.3437
 3106TIP3    H1 9282   1.599   0.876   0.633  0.1656  0.7386  0.4440
 3106TIP3    H2 9283   1.742   0.894   0.679  0.6577  1.4008 -1.2752
 3107TIP3   OH2 9284   5.697   5.328   3.372  0.3297 -0.1922  0.0369
 3107TIP3    H1 9285   5.730   5.315   3.461  0.7011  0.0939 -0.0569
 3107TIP3    H2 9286   5.612   5.371   3.384  2.0923  3.7138  0.2273
 3108TIP3   OH2 9287   3.587   1.898   5.092  0.0376 -0.4923 -0.2663
 3108TIP3    H1 9288   3.530   1.975   5.092  1.9841  1.0683 -2.0858
 3108TIP3    H2 9289   3.584   1.867   5.002  1.5602 -0.7203 -0.2685
 3109TIP3   OH2 9290   6.368   5.993   4.945 -0.0243  0.1739 -0.1183
 3109TIP3    H1 9291   6.394   6.006   5.037  1.7190 -0.4623 -0.4923
 3109TIP3    H2 9292   6.342   6.080   4.915  0.1747  0.5386  0.7388
 3110TIP3   OH2 9293   2.536   5.227   0.330  0.1728 -0.3640 -0.9306
 3110TIP3    H1 9294   2.542   5.322   0.325 -0.3931 -0.3316 -1.0975
 3110TIP3    H2 9295   2.626   5.196   0.319  0.3215  0.1371 -1.1502
 3111TIP3   OH2 9296   0.762   4.335   1.285 -0.2953  0.4937 -0.2238
 3111TIP3    H1 9297   0.810   4.261   1.321 -0.3168 -0.4409 -1.9863
 3111TIP3    H2 9298   0.720   4.376   1.360  1.9641  0.4091  1.1677
 3112TIP3   OH2 9299   5.468   2.173   2.604  0.3104 -0.1999 -0.1158
 3112TIP3    H1 9300   5.541   2.197   2.662 -0.2590 -0.1900  0.6042
 3112TIP3    H2 9301   5.503   2.101   2.551  0.2954 -1.3699  1.4218
 3113TIP3   OH2 9302   5.836   3.021   2.399  0.7819  0.0711  0.0435
 3113TIP3    H1 9303   5.885   2.942   2.422  0.0378 -0.3625  0.1817
 3113TIP3    H2 9304   5.761   3.021   2.459 -1.0089 -0.8764 -2.0597
 3114TIP3   OH2 9305   1.331   6.216   4.936  0.0572 -0.7980 -0.7282
 3114TIP3    H1 9306   1.314   6.208   4.842  1.5949  0.8582 -1.2082
 3114TIP3    H2 9307   1.426   6.206   4.944  0.2285  1.1447  0.3581
 3115TIP3   OH2 9308   0.335   5.356   2.585 -0.0481  0.1631 -0.1357
 3115TIP3    H1 9309   0.384   5.360   2.503 -0.0690 -0.0237 -0.1584
 3115TIP3    H2 9310   0.255   5.404   2.567 -0.4921 -0.7016 -0.5360
 3116TIP3   OH2 9311   2.039   2.785   0.357 -0.1159 -0.3290 -0.4065
 3116TIP3    H1 9312   2.098   2.840   0.305  3.3074 -0.1459  3.2431
 3116TIP3    H2 9313   1.986   2.847   0.407 -2.1224 -0.5109 -2.1784
 3117TIP3   OH2 9314   2.314   6.556   0.229 -0.0468  0.5474  0.3866
 3117TIP3    H1 9315   2.232   6.512   0.250  0.6998 -0.8310  0.5543
 3117TIP3    H2 9316   2.315   6.634   0.285 -0.9644  0.2619  0.8146
 3118TIP3   OH2 9317   1.267   0.482   0.533 -0.1527  0.2019 -0.2047
 3118TIP3    H1 9318   1.193   0.513   0.482  0.0359  0.7004 -0.1818
 3118TIP3    H2 9319   1.302   0.408   0.483 -0.2896  0.3539 -0.5248
 3119TIP3   OH2 9320   3.967   5.724   1.061  0.0161  0.1285 -0.0892
 3119TIP3    H1 9321   3.987   5.680   1.144 -0.1634 -0.9987 -0.6322
 3119TIP3    H2 9322   4.052   5.747   1.025  0.1428 -0.3305 -0.0903
 3120TIP3   OH2 9323   5.660   5.438   5.240  0.4334  0.4688 -0.1337
 3120TIP3    H1 9324   5.689   5.387   5.316  0.2296  1.7958  0.8812
 3120TIP3    H2 9325   5.725   5.420   5.173  0.2278 -1.3062  0.0901
 3121TIP3   OH2 9326   3.833   3.962   1.289 -0.7442  0.3784  0.6956
 3121TIP3    H1 9327   3.855   3.918   1.207 -0.7772 -0.4739  1.1269
 3121TIP3    H2 9328   3.739   3.950   1.298 -0.6112 -0.3125  1.2841
 3122TIP3   OH2 9329   2.447   2.942   4.778  0.6309 -0.6284  0.0930
 3122TIP3    H1 9330   2.457   2.890   4.698  1.3493 -1.6398  0.8214
 3122TIP3    H2 9331   2.374   2.901   4.824 -0.1845  0.3279 -0.3027
 3123TIP3   OH2 9332   4.008   2.371   0.447 -0.3349 -0.2255 -0.0310
 3123TIP3    H1 9333   3.950   2.295   0.455 -0.0276 -0.4711 -0.1405
 3123TIP3    H2 9334   4.092   2.334   0.420 -0.6648  0.3218 -1.9405
 3124TIP3   OH2 9335   2.339   0.359   2.198  0.0380  0.1514  1.2565
 3124TIP3    H1 9336   2.390   0.293   2.245  2.0895 -0.2573 -1.3086
 3124TIP3    H2 9337   2.404   0.423   2.168 -1.5199  1.7618  1.1312
 3125TIP3   OH2 9338   1.663   1.164   1.493 -0.4809 -0.1782  0.2758
 3125TIP3    H1 9339   1.670   1.124   1.406 -1.0843  1.8933 -0.8180
 3125TIP3    H2 9340   1.748   1.204   1.508 -1.3060  2.2943 -0.9614
 3126TIP3   OH2 9341   6.135   6.588   0.006 -0.3492 -0.8784  0.6648
 3126TIP3    H1 9342   6.228   6.603  -0.011 -0.5111 -1.8093 -1.2416
 3126TIP3    H2 9343   6.112   6.654   0.072  1.4414 -0.0867  0.5600
 3127TIP3   OH2 9344   1.563   3.586   3.658 -0.9211  0.0803 -0.1229
 3127TIP3    H1 9345   1.515   3.629   3.730  0.2552  1.7121 -0.2701
 3127TIP3    H2 9346   1.623   3.653   3.626 -2.0446 -0.2688 -3.2872
 3128TIP3   OH2 9347   2.610   4.518   3.513  0.0101 -0.2139 -0.0137
 3128TIP3    H1 9348   2.515   4.526   3.506 -0.0897 -0.0919  1.2214
 3128TIP3    H2 9349   2.644   4.600   3.478 -0.3824  0.0780  0.2797
 3129TIP3   OH2 9350   3.739   5.128   5.506 -0.0713 -0.9339  0.0860
 3129TIP3    H1 9351   3.760   5.079   5.585 -0.8140 -1.3636  0.0266
 3129TIP3    H2 9352   3.818   5.178   5.486  1.6079 -3.8950 -1.2056
 3130TIP3   OH2 9353   6.977   0.439   2.528 -0.4166 -0.4817 -0.5612
 3130TIP3    H1 9354   6.958   0.347   2.510 -1.3689 -0.2665 -0.7185
 3130TIP3    H2 9355   6.966   0.447   2.623 -0.6747 -0.4557 -0.5931
 3131TIP3   OH2 9356   6.694   0.298   1.793 -0.1144 -0.1357 -0.1667
 3131TIP3    H1 9357   6.732   0.238   1.857  0.8003  1.0579  0.4471
 3131TIP3    H2 9358   6.768   0.349   1.760 -0.7502  0.1167 -1.2689
 3132TIP3   OH2 9359   5.472   5.132   2.795 -0.0287  0.2730  0.0966
 3132TIP3    H1 9360   5.505   5.111   2.882 -0.6819  0.2024  0.3326
 3132TIP3    H2 9361   5.551   5.142   2.741  0.4414  1.6476  0.9793
 3133TIP3   OH2 9362   5.702   2.212   4.462 -0.1287  0.0240 -0.5465
 3133TIP3    H1 9363   5.633   2.217   4.396 -0.1917 -0.4916 -0.5245
 3133TIP3    H2 9364   5.757   2.289   4.445 -1.6941  1.4645  0.5839
 3134TIP3   OH2 9365   1.823   1.068   5.079  0.0820 -0.3376 -0.3145
 3134TIP3    H1 9366   1.748   1.124   5.101  0.1087 -0.9551  1.5605
 3134TIP3    H2 9367   1.898   1.111   5.121  0.6470 -0.1617 -1.4762
 3135TIP3   OH2 9368   0.053   0.203   2.230  0.2246 -0.9111 -0.3475
 3135TIP3    H1 9369   0.090   0.282   2.191  2.1802 -1.6162 -0.0212
 3135TIP3    H2 9370   0.058   0.217   2.324 -0.5003 -0.9810 -0.2869
 3136TIP3   OH2 9371   0.660   5.658   1.176  0.0991  0.2083  0.3360
 3136TIP3    H1 9372   0.588   5.721   1.171 -1.6826 -1.6870  0.7929
 3136TIP3    H2 9373   0.661   5.615   1.091 -1.6670 -2.1071  1.3529
 3137TIP3   OH2 9374   1.137   3.815   4.820  0.0171 -0.4124 -0.4675
 3137TIP3    H1 9375   1.103   3.806   4.732 -3.8262 -2.5180  1.0161
 3137TIP3    H2 9376   1.133   3.909   4.838 -1.7539 -0.2313 -1.6296
 3138TIP3   OH2 9377   1.648   2.802   3.221 -0.1016 -0.6526 -0.0854
 3138TIP3    H1 9378   1.677   2.890   3.243  2.1782 -1.2851 -0.3286
 3138TIP3    H2 9379   1.562   2.794   3.263 -0.5004  1.7424 -0.2972
 3139TIP3   OH2 9380   3.713   1.504   4.682 -0.2185 -0.7465  0.1512
 3139TIP3    H1 9381   3.624   1.470   4.669 -0.7419  1.1381 -1.6687
 3139TIP3    H2 9382   3.716   1.527   4.775 -2.1895  0.5207 -0.0345
 3140TIP3   OH2 9383   4.746   5.681   3.995 -0.3214  0.3525 -0.0233
 3140TIP3    H1 9384   4.665   5.732   3.985 -0.2595  0.4681  0.0623
 3140TIP3    H2 9385   4.722   5.592   3.968 -0.2366  0.5958 -0.9364
 3141TIP3   OH2 9386   3.156   0.724   1.289  0.4273  0.2530 -0.5747
 3141TIP3    H1 9387   3.154   0.769   1.205  1.2077  0.7853 -0.3198
 3141TIP3    H2 9388   3.249   0.721   1.313  0.2794 -0.4876 -0.0485
 3142TIP3   OH2 9389   5.631   0.706   3.701  0.5951  0.4497  0.1043
 3142TIP3    H1 9390   5.602   0.797   3.707  0.7368  0.6038 -1.1223
 3142TIP3    H2 9391   5.561   0.655   3.740 -0.2650  0.9837 -0.6968
 3143TIP3   OH2 9392   0.153   0.423   2.072  0.0027 -0.3503 -0.3436
 3143TIP3    H1 9393   0.212   0.421   1.996 -1.1871 -1.3099 -1.2854
 3143TIP3    H2 9394   0.065   0.424   2.034 -0.6230 -0.3287  1.0382
 3144TIP3   OH2 9395   2.104   2.326   4.236  0.5759  0.1299 -0.9168
 3144TIP3    H1 9396   2.147   2.245   4.261  0.3795  0.1008 -0.6769
 3144TIP3    H2 9397   2.050   2.303   4.160 -0.1812 -0.1623 -0.2964
 3145TIP3   OH2 9398   3.532   2.737   1.075  0.2936 -0.0418 -0.2228
 3145TIP3    H1 9399   3.587   2.701   1.145  0.8810  1.3962  0.0905
 3145TIP3    H2 9400   3.532   2.670   1.007  0.4099 -1.1044  0.7991
 3146TIP3   OH2 9401   4.761   3.491   2.469 -0.1459 -0.3672  0.1234
 3146TIP3    H1 9402   4.744   3.402   2.439  1.4516 -0.6239 -0.0837
 3146TIP3    H2 9403   4.674   3.526   2.490 -0.8143 -1.8872  0.0147
 3147TIP3   OH2 9404   2.752   5.543   2.475  0.0417  0.6555 -0.1589
 3147TIP3    H1 9405   2.796   5.605   2.534  0.5843  0.2089 -0.0920
 3147TIP3    H2 9406   2.713   5.478   2.534 -1.8869  1.7572 -0.1144
 3148TIP3   OH2 9407   0.267   3.713   1.069  0.3867  0.1496  0.4070
 3148TIP3    H1 9408   0.172   3.714   1.055  0.3620  0.9877  0.5759
 3148TIP3    H2 9409   0.304   3.734   0.983  0.5429 -2.7517 -0.3309
 3149TIP3   OH2 9410   6.695   6.427   1.542  0.0190 -0.0759  0.3263
 3149TIP3    H1 9411   6.760   6.498   1.544  0.0750  0.1453 -3.1235
 3149TIP3    H2 9412   6.743   6.353   1.506 -0.8590 -0.8997  0.8389
 3150TIP3   OH2 9413   6.180   4.743   0.602  0.7998 -0.1319  0.4902
 3150TIP3    H1 9414   6.190   4.831   0.565  1.4085  0.1524  1.2994
 3150TIP3    H2 9415   6.088   4.738   0.626  1.2401  1.2410  2.7147
 3151TIP3   OH2 9416   6.902   4.325   5.482  0.2768  0.2653  0.2849
 3151TIP3    H1 9417   6.837   4.275   5.530  0.4064 -0.0841  0.0974
 3151TIP3    H2 9418   6.883   4.309   5.390  1.5216 -1.0340  0.2175
 3152TIP3   OH2 9419   5.419   0.076   3.166 -0.0928  0.4821 -0.1172
 3152TIP3    H1 9420   5.407   0.050   3.258  0.1317  1.8940  0.3394
 3152TIP3    H2 9421   5.471   0.006   3.128  0.4302  0.2176  1.0384
 3153TIP3   OH2 9422   6.814   2.268   3.382 -0.3988  0.2106  0.1397
 3153TIP3    H1 9423   6.875   2.247   3.453  1.5841 -1.8923 -2.0187
 3153TIP3    H2 9424   6.838   2.357   3.355 -1.2098  1.0571  2.0136
 3154TIP3   OH2 9425   5.549   2.232   1.608 -0.7513  0.0098  0.2731
 3154TIP3    H1 9426   5.506   2.315   1.628 -3.1023 -0.4081 -2.3509
 3154TIP3    H2 9427   5.628   2.257   1.559 -1.2223  0.7054 -0.1405
 3155TIP3   OH2 9428   3.604   5.677   1.981  0.4530 -0.0381  0.7009
 3155TIP3    H1 9429   3.594   5.768   2.009 -1.3102  0.2151 -0.5505
 3155TIP3    H2 9430   3.678   5.678   1.921 -0.7037  1.0101 -0.7998
 3156TIP3   OH2 9431   7.136   3.233   5.453 -0.2805  0.3694 -0.2079
 3156TIP3    H1 9432   7.203   3.274   5.507 -0.7117  0.4267  0.2927
 3156TIP3    H2 9433   7.083   3.182   5.514 -1.2634  1.0801 -0.4424
 3157TIP3   OH2 9434   4.564   5.309   3.125 -0.0322  0.2155 -0.3719
 3157TIP3    H1 9435   4.646   5.269   3.097 -0.3699 -0.0411 -1.0229
 3157TIP3    H2 9436   4.547   5.272   3.211 -0.3384 -1.0623 -0.9581
 3158TIP3   OH2 9437   3.934   0.161   2.302  0.1350 -0.3309 -0.5312
 3158TIP3    H1 9438   3.878   0.168   2.380 -1.2285 -1.4709 -1.3701
 3158TIP3    H2 9439   4.021   0.184   2.334 -0.9654  3.1202  0.5251
 3159TIP3   OH2 9440   2.504   2.555   0.641 -0.0792  0.2010  0.5495
 3159TIP3    H1 9441   2.529   2.486   0.579  0.5782 -0.1602  1.2004
 3159TIP3    H2 9442   2.451   2.615   0.589 -2.6953 -1.9558  0.4848
 3160TIP3   OH2 9443   0.507   5.339   1.169 -0.3097  0.0243  0.0392
 3160TIP3    H1 9444   0.601   5.321   1.162 -0.3116 -0.0114  0.1072
 3160TIP3    H2 9445   0.473   5.269   1.225 -0.2076  0.6148  0.8461
 3161TIP3   OH2 9446   5.514   5.147   0.491 -0.0675  0.0327  0.4309
 3161TIP3    H1 9447   5.430   5.146   0.538  1.1280  1.0058  2.7617
 3161TIP3    H2 9448   5.573   5.097   0.547  1.1488  0.1137 -0.7309
 3162TIP3   OH2 9449   2.338   4.751   0.862 -0.4248  0.4810  0.2226
 3162TIP3    H1 9450   2.300   4.806   0.931  0.3403 -0.5476  1.5169
 3162TIP3    H2 9451   2.427   4.785   0.852 -0.4792  0.5149 -0.1359
 3163TIP3   OH2 9452   2.715   3.860   2.407  0.2529 -0.3462  0.0878
 3163TIP3    H1 9453   2.705   3.936   2.464  1.0875  0.3545 -0.6678
 3163TIP3    H2 9454   2.656   3.876   2.333  0.1691 -0.6074  0.0948
 3164TIP3   OH2 9455   4.222   0.880   2.665 -0.0898 -0.0516 -0.3825
 3164TIP3    H1 9456   4.192   0.958   2.713 -2.2736 -1.3168  0.4625
 3164TIP3    H2 9457   4.258   0.823   2.733  0.2002 -0.3561 -0.7883
 3165TIP3   OH2 9458   3.466   6.096   3.101  0.0825  0.0230 -0.3263
 3165TIP3    H1 9459   3.384   6.050   3.117  0.8132 -0.8678  1.0477
 3165TIP3    H2 9460   3.525   6.029   3.069  0.8897  0.1759  0.7844
 3166TIP3   OH2 9461   6.219   6.022   2.884 -0.7647  0.8972  0.1104
 3166TIP3    H1 9462   6.216   6.053   2.974 -1.7957 -0.6415  0.6590
 3166TIP3    H2 9463   6.166   6.085   2.835 -0.1414  1.7834  0.5441
 3167TIP3   OH2 9464   6.686   0.729   4.055  0.1776 -0.1012  0.1524
 3167TIP3    H1 9465   6.717   0.815   4.025  1.2204 -0.5098  0.0045
 3167TIP3    H2 9466   6.690   0.735   4.151  2.3037 -0.6520  0.1538
 3168TIP3   OH2 9467   5.279   5.700   0.361  0.2805  0.2512 -0.0656
 3168TIP3    H1 9468   5.301   5.789   0.387 -0.2808  0.2227  0.5442
 3168TIP3    H2 9469   5.360   5.651   0.370  0.6190  0.7227 -0.5127
 3169TIP3   OH2 9470   0.500   3.445   5.784 -0.5411  0.2154  0.3101
 3169TIP3    H1 9471   0.432   3.480   5.726 -1.0214  0.5895  1.0756
 3169TIP3    H2 9472   0.485   3.350   5.784 -0.7323  0.2446  0.0633
 3170TIP3   OH2 9473   0.945   4.012   0.648 -0.1800 -0.1161  0.1607
 3170TIP3    H1 9474   0.948   3.954   0.572  1.4579  0.2563 -0.0929
 3170TIP3    H2 9475   0.855   4.043   0.652 -0.3100 -0.2245 -1.5658
 3171TIP3   OH2 9476   0.647   1.731   5.230  0.3415  0.0806 -0.8895
 3171TIP3    H1 9477   0.652   1.685   5.146  0.0102 -2.1446  0.2306
 3171TIP3    H2 9478   0.719   1.794   5.227  2.4174 -2.1945 -1.5708
 3172TIP3   OH2 9479   0.756   1.750   3.782 -0.3588  0.1861  0.7232
 3172TIP3    H1 9480   0.672   1.729   3.742 -1.1533  0.9117  1.9384
 3172TIP3    H2 9481   0.734   1.806   3.857  1.4424  3.3671 -0.9209
 3173TIP3   OH2 9482   5.905   3.047   2.076  0.5610  0.3129 -0.0104
 3173TIP3    H1 9483   5.919   3.038   2.170  0.0847  0.1791  0.0490
 3173TIP3    H2 9484   5.956   3.125   2.052 -0.6096  1.3262  0.6517
 3174TIP3   OH2 9485   5.709   6.743   2.078 -0.2659  0.3972  0.2152
 3174TIP3    H1 9486   5.643   6.675   2.094  0.4427 -0.2734  0.3531
 3174TIP3    H2 9487   5.717   6.790   2.161  0.4434 -0.4380  0.6355
 3175TIP3   OH2 9488   2.399   5.031   3.720 -0.4456  0.2766 -0.3883
 3175TIP3    H1 9489   2.391   5.012   3.627  2.1824  1.4693 -0.9507
 3175TIP3    H2 9490   2.487   5.001   3.743 -0.6168  1.0352  1.4458
 3176TIP3   OH2 9491   4.064   3.532   0.101  0.3027  0.2180 -0.2166
 3176TIP3    H1 9492   4.160   3.533   0.104  0.3489 -1.3513 -0.2552
 3176TIP3    H2 9493   4.038   3.504   0.188 -0.0636 -0.6764 -0.6048
 3177TIP3   OH2 9494   3.293   0.637   3.125  0.3461  0.3012  0.0903
 3177TIP3    H1 9495   3.258   0.548   3.123 -1.7169  1.0663 -1.9442
 3177TIP3    H2 9496   3.376   0.629   3.173 -1.0334 -2.2009  2.3490
 3178TIP3   OH2 9497   3.605   2.082   4.723 -0.3913 -0.0806  0.2342
 3178TIP3    H1 9498   3.530   2.033   4.690 -0.4744 -0.2504  0.6819
 3178TIP3    H2 9499   3.594   2.084   4.818 -0.5791  1.0927  0.2076
 3179TIP3   OH2 9500   3.195   6.673   0.768  0.2599  0.1261 -0.6354
 3179TIP3    H1 9501   3.158   6.625   0.843 -0.5544  1.1621 -0.3550
 3179TIP3    H2 9502   3.251   6.740   0.807 -0.1538  0.6608 -0.9525
 3180TIP3   OH2 9503   5.400   0.730   2.107  0.0270 -0.2747 -0.6705
 3180TIP3    H1 9504   5.417   0.658   2.168  0.7679  0.7038  0.3226
 3180TIP3    H2 9505   5.392   0.688   2.022  1.2377 -1.4645 -0.2304
 3181TIP3   OH2 9506   3.257   0.414   1.750  0.2973  0.1820 -0.3177
 3181TIP3    H1 9507   3.199   0.417   1.673  2.2662 -0.9756 -1.9492
 3181TIP3    H2 9508   3.344   0.431   1.714  1.1026  1.2559  1.9566
 3182TIP3   OH2 9509   6.885   6.703   1.481  0.0100  0.0365  0.1506
 3182TIP3    H1 9510   6.880   6.660   1.567 -2.8335  0.2888  0.1966
 3182TIP3    H2 9511   6.874   6.796   1.501 -0.2791  0.1363 -0.4745
 3183TIP3   OH2 9512   6.296   6.783   0.354 -0.2638 -0.6226  0.0563
 3183TIP3    H1 9513   6.378   6.780   0.305  0.7257 -1.6637  1.6834
 3183TIP3    H2 9514   6.319   6.754   0.443 -2.2199 -0.0852  0.8109
 3184TIP3   OH2 9515   5.524   5.091   5.233 -0.8558 -0.5035  0.0303
 3184TIP3    H1 9516   5.544   5.182   5.213 -2.2557  0.0329  0.8977
 3184TIP3    H2 9517   5.477   5.059   5.156  1.3665 -1.1500 -1.1366
 3185TIP3   OH2 9518   5.503   5.035   2.456  0.4127  0.0468 -0.1475
 3185TIP3    H1 9519   5.485   5.120   2.495 -0.9671 -0.4832  0.4425
 3185TIP3    H2 9520   5.483   4.972   2.526  0.1125 -0.8147 -0.9924
 3186TIP3   OH2 9521   5.725   0.357   0.840 -0.3963 -0.3217 -0.9718
 3186TIP3    H1 9522   5.716   0.394   0.752  0.1135 -0.8632 -1.2644
 3186TIP3    H2 9523   5.812   0.385   0.869 -0.6409  0.0165 -0.5602
 3187TIP3   OH2 9524   5.503   0.631   4.671 -0.5221  0.3358  0.6789
 3187TIP3    H1 9525   5.446   0.595   4.604 -1.1156 -0.7327  1.7265
 3187TIP3    H2 9526   5.455   0.707   4.704 -0.4372  0.5924  0.2234
 3188TIP3   OH2 9527   4.280   5.855   2.203  0.2594 -0.4091 -0.1827
 3188TIP3    H1 9528   4.367   5.891   2.221  0.9903 -2.2877  0.2712
 3188TIP3    H2 9529   4.288   5.812   2.119  0.7758 -3.4092  1.2882
 3189TIP3   OH2 9530   0.497   6.431   2.372 -0.7994  0.5654 -0.6620
 3189TIP3    H1 9531   0.591   6.450   2.363 -0.6092 -0.4371 -1.0059
 3189TIP3    H2 9532   0.458   6.514   2.397  0.1625  1.0414 -0.6744
 3190TIP3   OH2 9533   2.666   6.135   4.314 -0.2358 -0.1059  0.7386
 3190TIP3    H1 9534   2.608   6.149   4.388  0.4060  2.4215  0.8606
 3190TIP3    H2 9535   2.725   6.210   4.315 -0.0888 -0.0663 -2.2456
 3191TIP3   OH2 9536   3.759   5.381   5.101  0.3916  0.4745 -0.4284
 3191TIP3    H1 9537   3.797   5.300   5.067 -0.9829  0.0038 -0.9128
 3191TIP3    H2 9538   3.703   5.352   5.173 -0.8634  0.8457 -1.2155
 3192TIP3   OH2 9539   1.394   4.499   2.403  0.1143 -0.1326  0.1668
 3192TIP3    H1 9540   1.346   4.472   2.325 -0.1918 -1.5460  0.8184
 3192TIP3    H2 9541   1.395   4.422   2.459  2.5546  0.0652  0.4869
 3193TIP3   OH2 9542   0.654   2.257   4.370 -0.1885  0.6398 -0.3622
 3193TIP3    H1 9543   0.611   2.322   4.314 -0.9747 -0.2616 -0.8321
 3193TIP3    H2 9544   0.590   2.187   4.379 -0.0185  0.6684  1.5363
 3194TIP3   OH2 9545   3.795   2.228   2.793 -0.2000 -0.2809 -0.3906
 3194TIP3    H1 9546   3.741   2.195   2.865 -0.8144  1.7761  0.1403
 3194TIP3    H2 9547   3.733   2.239   2.720 -0.5380  1.9437  0.1742
 3195TIP3   OH2 9548   1.970   3.619   3.295  0.7273  0.1565 -0.1134
 3195TIP3    H1 9549   2.052   3.579   3.266  0.1716 -0.5931 -0.7066
 3195TIP3    H2 9550   1.905   3.586   3.233 -0.0181  0.7513  0.3443
 3196TIP3   OH2 9551   4.264   5.605   5.103  0.1287 -0.1860 -0.1645
 3196TIP3    H1 9552   4.229   5.663   5.171  0.9721 -0.0351  0.1452
 3196TIP3    H2 9553   4.222   5.520   5.120 -0.8951  0.2437 -0.4490
 3197TIP3   OH2 9554   1.778   0.329   5.101 -0.3523  0.1167  0.1838
 3197TIP3    H1 9555   1.701   0.386   5.107 -0.9387 -0.7464  1.0799
 3197TIP3    H2 9556   1.852   0.390   5.094 -1.1402  0.9517 -1.4044
 3198TIP3   OH2 9557   0.179   0.490   5.318 -0.0274 -0.4707  0.1663
 3198TIP3    H1 9558   0.153   0.561   5.378 -3.1767 -0.3869 -1.1044
 3198TIP3    H2 9559   0.130   0.509   5.238  2.0889 -1.9955 -1.5663
 3199TIP3   OH2 9560   6.782   6.638   5.327 -0.0631  0.5365  0.4554
 3199TIP3    H1 9561   6.827   6.555   5.345  1.5000  1.1691 -0.3473
 3199TIP3    H2 9562   6.709   6.614   5.271  1.7898 -0.0805 -1.8528
 3200TIP3   OH2 9563   5.164   4.328   3.283 -0.3680  0.7961 -0.5210
 3200TIP3    H1 9564   5.131   4.296   3.367 -1.1482 -0.4114 -1.2536
 3200TIP3    H2 9565   5.150   4.422   3.286 -0.5663  0.7487  0.6172
 3201TIP3   OH2 9566   4.787   2.902   3.517  0.5660 -0.2520 -0.4005
 3201TIP3    H1 9567   4.797   2.994   3.492  0.3071 -0.0607  0.1829
 3201TIP3    H2 9568   4.865   2.882   3.568  0.1007 -0.0304  0.4130
 3202TIP3   OH2 9569   6.144   5.351   1.098 -0.0552 -0.2170  0.0780
 3202TIP3    H1 9570   6.072   5.399   1.141 -0.5254 -2.2181  1.6466
 3202TIP3    H2 9571   6.109   5.328   1.012  0.2474  2.2964 -0.8071
 3203TIP3   OH2 9572   0.363   3.320   2.357 -0.1104  0.4330 -0.6881
 3203TIP3    H1 9573   0.349   3.378   2.282  0.9097  1.2156 -0.3022
 3203TIP3    H2 9574   0.299   3.348   2.422  0.8002  1.6145 -0.2565
 3204TIP3   OH2 9575   1.386   1.329   1.495  0.1108 -0.4448  0.8017
 3204TIP3    H1 9576   1.347   1.386   1.561  1.0461  0.0717  0.9203
 3204TIP3    H2 9577   1.459   1.286   1.539 -0.1593 -1.2306  0.5166
 3205TIP3   OH2 9578   1.047   5.490   2.657  0.0637  0.0819  0.6058
 3205TIP3    H1 9579   1.105   5.421   2.622 -0.0763  0.4489 -0.3771
 3205TIP3    H2 9580   1.092   5.572   2.636  0.4310  0.3169  2.1360
 3206TIP3   OH2 9581   0.917   6.460   0.303 -0.2054  0.0699 -0.5923
 3206TIP3    H1 9582   0.906   6.536   0.245 -0.0603  1.5424  1.2152
 3206TIP3    H2 9583   0.873   6.389   0.257 -1.8773  1.6510 -1.6093
 3207TIP3   OH2 9584   5.437   1.004   0.279  0.6331 -0.0285 -0.5442
 3207TIP3    H1 9585   5.485   1.036   0.355 -0.0452  1.7320 -0.8200
 3207TIP3    H2 9586   5.483   1.042   0.204  0.3726 -0.4949 -0.9474
 3208TIP3   OH2 9587   2.105   6.316   2.254 -0.3500  0.2974  0.8528
 3208TIP3    H1 9588   2.192   6.278   2.263 -0.3380 -0.0697 -0.5830
 3208TIP3    H2 9589   2.076   6.290   2.167 -2.5189 -0.8592  1.8238
 3209TIP3   OH2 9590   6.304   2.216   0.516 -0.9718 -0.3476 -0.5932
 3209TIP3    H1 9591   6.239   2.264   0.465  1.3752  1.0245 -2.4818
 3209TIP3    H2 9592   6.380   2.274   0.519 -0.0039 -1.5922  2.1125
 3210TIP3   OH2 9593   6.958   4.320   5.058 -0.3966 -0.6996 -0.9607
 3210TIP3    H1 9594   6.926   4.368   5.134  0.6504 -0.7242 -0.4814
 3210TIP3    H2 9595   6.880   4.299   5.008 -1.0740 -0.3987 -0.0573
 3211TIP3   OH2 9596   3.796   6.276   5.395  0.3405 -0.2773 -0.3962
 3211TIP3    H1 9597   3.710   6.298   5.431  0.3888 -1.7160  0.7228
 3211TIP3    H2 9598   3.809   6.337   5.322 -1.4593  0.2033 -0.3529
 3212TIP3   OH2 9599   0.373   3.911   2.212  0.0287 -0.0656 -0.4661
 3212TIP3    H1 9600   0.406   3.904   2.302 -1.8630 -1.2407  0.1778
 3212TIP3    H2 9601   0.449   3.889   2.158  1.1113  0.3254  0.8314
 3213TIP3   OH2 9602   0.482   1.805   3.180  0.5758  0.0603 -0.1203
 3213TIP3    H1 9603   0.559   1.856   3.203  0.5471  0.2169 -0.3642
 3213TIP3    H2 9604   0.483   1.800   3.085 -1.0299  2.2057 -0.3364
 3214TIP3   OH2 9605   5.640   4.758   2.733  0.1283  0.1207 -0.1593
 3214TIP3    H1 9606   5.677   4.784   2.649  0.4021  0.8051  0.1631
 3214TIP3    H2 9607   5.551   4.792   2.732  0.0239 -0.1611 -0.3099
 3215TIP3   OH2 9608   2.176   2.575   3.955 -0.0415 -0.0271 -0.5157
 3215TIP3    H1 9609   2.112   2.545   3.891 -0.2893 -1.8237  0.4985
 3215TIP3    H2 9610   2.132   2.646   4.003 -0.4531  0.2019 -1.2282
 3216TIP3   OH2 9611   0.895   4.754   5.793 -0.1985  0.1320 -0.1689
 3216TIP3    H1 9612   0.969   4.811   5.812  1.1175 -1.0022 -1.6287
 3216TIP3    H2 9613   0.822   4.813   5.776  0.8698  1.3434 -0.6767
 3217TIP3   OH2 9614   1.487   3.005   2.746  0.6055 -0.2230 -0.6032
 3217TIP3    H1 9615   1.560   2.954   2.781  0.3701  0.2704  0.6898
 3217TIP3    H2 9616   1.472   3.074   2.812 -0.7039 -0.0163 -1.0715
 3218TIP3   OH2 9617   6.824   5.679   1.509  0.2342 -0.0981 -0.2383
 3218TIP3    H1 9618   6.892   5.629   1.462 -0.6018 -1.2706 -0.2455
 3218TIP3    H2 9619   6.815   5.634   1.593 -1.2387 -0.6173 -0.6375
 3219TIP3   OH2 9620   6.696   0.116   2.326  0.2169  0.1763 -0.4076
 3219TIP3    H1 9621   6.653   0.074   2.400 -2.4423  0.2665 -1.7908
 3219TIP3    H2 9622   6.699   0.208   2.349 -1.1276  0.2857 -0.6153
 3220TIP3   OH2 9623   3.725   2.557   0.475  0.0379 -0.1545 -0.5590
 3220TIP3    H1 9624   3.813   2.591   0.460 -0.1682 -0.1690 -1.8813
 3220TIP3    H2 9625   3.667   2.615   0.426 -0.4931 -1.2572 -1.2844
 3221TIP3   OH2 9626   1.370   3.082   2.439  0.3097 -0.0760  0.1797
 3221TIP3    H1 9627   1.308   3.143   2.480 -0.5167  0.2542 -1.4757
 3221TIP3    H2 9628   1.437   3.068   2.506  2.3616  5.1328 -0.2861
 3222TIP3   OH2 9629   1.834   1.774   1.509  0.2258  0.0149 -0.8396
 3222TIP3    H1 9630   1.797   1.734   1.430 -2.1634  1.3770 -0.5043
 3222TIP3    H2 9631   1.929   1.765   1.498 -0.1030 -2.1067 -2.6112
 3223TIP3   OH2 9632   1.847   1.695   0.984  0.3174  0.0147  0.0162
 3223TIP3    H1 9633   1.874   1.787   0.978 -1.2336  0.4711 -0.3056
 3223TIP3    H2 9634   1.872   1.657   0.900 -0.1421  0.4564 -0.3255
 3224TIP3   OH2 9635   4.291   2.760   4.380 -0.0858 -0.3358  0.0842
 3224TIP3    H1 9636   4.298   2.688   4.443 -0.3671 -1.0440 -0.6738
 3224TIP3    H2 9637   4.275   2.838   4.434 -1.3505 -1.0851  0.8375
 3225TIP3   OH2 9638   4.829   4.135   0.377  0.4703  0.3375  0.4905
 3225TIP3    H1 9639   4.781   4.182   0.446  0.6050  0.0177  0.8018
 3225TIP3    H2 9640   4.815   4.188   0.298 -1.8956 -0.6629  0.1564
 3226TIP3   OH2 9641   2.331   3.262   0.395  0.6711 -0.3119  0.3889
 3226TIP3    H1 9642   2.238   3.273   0.373  0.6544  1.5232  1.1884
 3226TIP3    H2 9643   2.377   3.312   0.327  1.1385 -1.6185 -0.2915
 3227TIP3   OH2 9644   5.234   4.899   3.792  0.1111  0.2683 -0.1369
 3227TIP3    H1 9645   5.162   4.844   3.761  0.7433  0.6900 -2.5900
 3227TIP3    H2 9646   5.194   4.959   3.854 -1.1471 -1.0105  0.3482
 3228TIP3   OH2 9647   4.996   1.778   3.509 -0.2966 -0.5551  0.3036
 3228TIP3    H1 9648   4.936   1.715   3.469 -1.1944  1.3694 -1.5631
 3228TIP3    H2 9649   4.947   1.814   3.583 -0.7880 -0.2454 -0.1651
 3229TIP3   OH2 9650   4.442   1.159   2.296  0.0975  0.3684  0.2965
 3229TIP3    H1 9651   4.521   1.133   2.344 -0.2137 -1.5867 -0.1783
 3229TIP3    H2 9652   4.450   1.254   2.287  2.5954  0.1817 -0.1114
 3230TIP3   OH2 9653   3.791   1.359   4.276 -0.2557  0.1247  0.5607
 3230TIP3    H1 9654   3.796   1.455   4.275  0.1665  0.1052 -0.0326
 3230TIP3    H2 9655   3.763   1.337   4.365  0.5491  0.7577  0.9894
 3231TIP3   OH2 9656   0.744   6.440   3.772 -0.0610  0.0064 -0.2543
 3231TIP3    H1 9657   0.795   6.364   3.746  1.3665  1.0914 -0.7862
 3231TIP3    H2 9658   0.749   6.499   3.696 -0.2408  1.0434  0.5142
 3232TIP3   OH2 9659   2.501   5.168   1.195 -0.5121 -0.5675  0.3749
 3232TIP3    H1 9660   2.455   5.084   1.186 -0.3111 -0.6424  0.0202
 3232TIP3    H2 9661   2.434   5.229   1.226 -2.0904  0.4170 -4.1358
 3233TIP3   OH2 9662   6.822   6.041   4.290  0.0657 -0.0993  0.4726
 3233TIP3    H1 9663   6.798   6.125   4.329 -0.5879 -0.1984  0.3001
 3233TIP3    H2 9664   6.773   5.976   4.340 -0.6470 -0.2408 -0.3736
 3234TIP3   OH2 9665   6.890   3.139  -0.013  0.3638 -0.2872 -0.3061
 3234TIP3    H1 9666   6.856   3.147   0.076  0.3884 -1.2685 -0.1900
 3234TIP3    H2 9667   6.927   3.051  -0.016  1.7981  0.3051 -0.8041
 3235TIP3   OH2 9668   6.838   2.379   4.557  0.3049 -0.2182 -0.8451
 3235TIP3    H1 9669   6.929   2.403   4.577  0.4836 -0.3126 -1.5163
 3235TIP3    H2 9670   6.827   2.292   4.596  0.1041  0.3233  0.3326
 3236TIP3   OH2 9671   2.439   4.029   3.395 -0.0195 -0.0300  0.7678
 3236TIP3    H1 9672   2.354   4.000   3.429  1.2894 -1.8750  2.7225
 3236TIP3    H2 9673   2.487   4.058   3.473  1.4251  0.2056 -0.1819
 3237TIP3   OH2 9674   4.683   2.896   2.176 -0.4706 -0.5311  0.3437
 3237TIP3    H1 9675   4.683   2.920   2.083 -1.1526  1.2299  0.7496
 3237TIP3    H2 9676   4.650   2.807   2.178  2.4841 -1.7962 -1.3255
 3238TIP3   OH2 9677   0.151   4.399   1.912  0.4779 -0.1525  0.1890
 3238TIP3    H1 9678   0.097   4.333   1.869  1.4746  0.0341 -1.3903
 3238TIP3    H2 9679   0.120   4.399   2.003 -0.3544 -1.9180 -0.0545
 3239TIP3   OH2 9680   3.306   6.238   2.466 -0.1345 -0.3549  0.2076
 3239TIP3    H1 9681   3.333   6.288   2.389 -1.5746 -0.7477 -0.5753
 3239TIP3    H2 9682   3.284   6.305   2.531  0.3767 -0.0126  0.0351
 3240TIP3   OH2 9683   0.191   5.815   4.385 -0.3602  0.6766 -0.4737
 3240TIP3    H1 9684   0.136   5.782   4.313  0.1120  0.1762 -0.6063
 3240TIP3    H2 9685   0.231   5.894   4.349 -0.6213  0.7840 -0.5370
 3241TIP3   OH2 9686   1.871   6.215   1.090  0.2290 -0.0878 -0.3685
 3241TIP3    H1 9687   1.882   6.129   1.050  1.7269 -0.4926  0.8018
 3241TIP3    H2 9688   1.797   6.205   1.151  2.0314 -1.3966  1.7555
 3242TIP3   OH2 9689   4.755   1.690   3.228  0.5741 -0.1101  0.2981
 3242TIP3    H1 9690   4.739   1.623   3.294  0.9568 -0.8837 -0.3873
 3242TIP3    H2 9691   4.850   1.696   3.222  0.5468 -0.1319 -0.2599
 3243TIP3   OH2 9692   7.101   3.451   5.283 -0.4039 -0.5373  0.1529
 3243TIP3    H1 9693   7.101   3.371   5.336  1.4648 -0.2932  0.5903
 3243TIP3    H2 9694   7.024   3.443   5.227 -0.6929 -2.2673  0.7439
 3244TIP3   OH2 9695   3.720   6.553   1.789  0.2352 -0.0341 -0.4779
 3244TIP3    H1 9696   3.750   6.465   1.812  0.6111  0.4371  0.9316
 3244TIP3    H2 9697   3.626   6.542   1.773 -0.2401 -0.2975  2.1420
 3245TIP3   OH2 9698   6.821   6.713   5.726  0.4045  0.2217 -0.1848
 3245TIP3    H1 9699   6.739   6.729   5.772  1.2199 -1.0019  1.8454
 3245TIP3    H2 9700   6.828   6.618   5.722  1.3051  0.3098 -1.1535
 3246TIP3   OH2 9701   1.349   4.054   1.205  0.0161 -0.3862 -0.1078
 3246TIP3    H1 9702   1.317   3.965   1.191  0.0772 -0.6558  1.3834
 3246TIP3    H2 9703   1.290   4.108   1.153 -1.8853 -1.0349  1.2858
 3247TIP3   OH2 9704   0.992   6.166   2.960 -0.3308  0.1679 -0.1526
 3247TIP3    H1 9705   0.932   6.159   2.885  0.0578  1.4331 -0.5988
 3247TIP3    H2 9706   1.074   6.129   2.927 -0.2170  0.5435 -0.3006
 3248TIP3   OH2 9707   4.513   3.590   2.686 -0.1943 -0.1017 -0.2111
 3248TIP3    H1 9708   4.502   3.619   2.596 -0.6119 -1.4646 -0.6293
 3248TIP3    H2 9709   4.424   3.589   2.722  0.0255  0.9620  0.4061
 3249TIP3   OH2 9710   4.528   5.189   0.704  0.1438 -0.8166  0.2014
 3249TIP3    H1 9711   4.500   5.139   0.628  0.4168  0.4093 -0.7349
 3249TIP3    H2 9712   4.622   5.204   0.690 -0.0663  0.5069  0.1167
 3250TIP3   OH2 9713   3.770   2.318   3.777 -0.0112 -0.1094 -0.7578
 3250TIP3    H1 9714   3.766   2.403   3.819 -1.3854 -0.4490 -0.1337
 3250TIP3    H2 9715   3.683   2.280   3.792  1.2259 -2.5377  0.9730
 3251TIP3   OH2 9716   5.787   3.170   4.263  0.2669  0.2911 -0.6846
 3251TIP3    H1 9717   5.754   3.241   4.208 -0.2659  0.0221 -0.7136
 3251TIP3    H2 9718   5.711   3.115   4.280  0.2261  0.8115  1.0139
 3252TIP3   OH2 9719   5.484   2.504   5.327 -0.8044 -0.1458 -0.1503
 3252TIP3    H1 9720   5.530   2.578   5.367 -4.0336  1.8442  0.2116
 3252TIP3    H2 9721   5.470   2.531   5.236 -0.2036 -1.2687 -0.5912
 3253TIP3   OH2 9722   4.218   0.474   4.305 -0.1165  0.0693 -0.5013
 3253TIP3    H1 9723   4.182   0.385   4.310 -2.1369  0.7788 -1.3950
 3253TIP3    H2 9724   4.277   0.480   4.380 -0.1066 -1.9390 -0.2880
 3254TIP3   OH2 9725   6.119   4.532   5.467  0.4951  0.0278 -0.1870
 3254TIP3    H1 9726   6.111   4.484   5.550  1.3219  0.5092  0.1721
 3254TIP3    H2 9727   6.058   4.486   5.408  0.1311 -0.5128  0.5866
 3255TIP3   OH2 9728   6.693   1.844   5.417  0.1908  0.3848  0.0596
 3255TIP3    H1 9729   6.738   1.765   5.447  2.1253  0.9855 -1.0684
 3255TIP3    H2 9730   6.701   1.906   5.489  0.3805  0.1671  0.2269
 3256TIP3   OH2 9731   2.444   3.332   3.197 -0.1218 -0.3647 -0.1523
 3256TIP3    H1 9732   2.492   3.305   3.275 -0.0966 -0.4212 -0.1868
 3256TIP3    H2 9733   2.480   3.418   3.174 -1.2292  0.3907  0.8144
 3257TIP3   OH2 9734   2.924   6.277   3.237  0.0243  0.8803 -0.3553
 3257TIP3    H1 9735   2.911   6.347   3.172  0.8375 -0.2592 -1.8179
 3257TIP3    H2 9736   2.846   6.281   3.292  0.4369  3.4695  0.1568
 3258TIP3   OH2 9737   2.320   2.932   1.659 -0.3264 -0.1956 -0.1531
 3258TIP3    H1 9738   2.311   2.860   1.720 -1.3188 -0.1580 -0.2391
 3258TIP3    H2 9739   2.316   2.891   1.572  2.5497 -0.4350 -0.2569
 3259TIP3   OH2 9740   2.114   0.106   2.869 -0.5085  0.3247 -0.0542
 3259TIP3    H1 9741   2.124   0.158   2.789  0.5070 -1.4618 -1.1536
 3259TIP3    H2 9742   2.028   0.130   2.902 -0.8839  1.2504 -1.5986
 3260TIP3   OH2 9743   5.525   4.821   1.700 -0.1240  0.1522 -0.3085
 3260TIP3    H1 9744   5.496   4.742   1.747  1.8076  0.1527  0.9997
 3260TIP3    H2 9745   5.530   4.793   1.609  1.1728 -1.5118  0.2043
 3261TIP3   OH2 9746   5.398   1.577   4.183  0.1716 -0.5264  0.0076
 3261TIP3    H1 9747   5.374   1.593   4.275 -0.2797 -0.7388 -0.0664
 3261TIP3    H2 9748   5.431   1.487   4.183 -2.3375 -1.5539 -0.4579
 3262TIP3   OH2 9749   4.485   5.006   2.075  0.4223 -0.3091 -0.8547
 3262TIP3    H1 9750   4.393   5.030   2.089  1.0716  1.4896  0.7182
 3262TIP3    H2 9751   4.505   4.944   2.145  0.7140  0.1772 -0.5073
 3263TIP3   OH2 9752   4.549   1.592   2.785  0.0176 -0.4709 -0.5982
 3263TIP3    H1 9753   4.498   1.670   2.805 -0.9482 -1.0530 -0.7470
 3263TIP3    H2 9754   4.519   1.565   2.698  1.5357 -0.0703 -1.2933
 3264TIP3   OH2 9755   2.732   0.379   2.302 -0.0238 -0.1538 -0.1424
 3264TIP3    H1 9756   2.694   0.451   2.253  1.5319  2.4550  2.1824
 3264TIP3    H2 9757   2.802   0.346   2.245 -1.6167 -0.8567 -1.8056
 3265TIP3   OH2 9758   1.744   4.534   1.867  1.1545  0.0054  0.5317
 3265TIP3    H1 9759   1.757   4.629   1.870 -0.9600  0.4711 -1.7867
 3265TIP3    H2 9760   1.769   4.509   1.778  1.0457 -1.5358  0.8933
 3266TIP3   OH2 9761   0.388   0.990   3.038  0.3457 -0.1282 -0.4798
 3266TIP3    H1 9762   0.420   0.914   2.989  0.1520 -0.7289  0.3000
 3266TIP3    H2 9763   0.316   0.955   3.092  0.9768  0.3522  0.7249
 3267TIP3   OH2 9764   3.820   1.651   2.127  0.2012  0.4434 -0.0901
 3267TIP3    H1 9765   3.790   1.731   2.083  0.0577 -0.8019 -2.3941
 3267TIP3    H2 9766   3.747   1.625   2.182 -1.1539  0.1040 -1.9378
 3268TIP3   OH2 9767   3.793   3.575   0.041  0.5588 -0.2637  0.1326
 3268TIP3    H1 9768   3.859   3.610   0.101  0.4348  1.1239 -0.4948
 3268TIP3    H2 9769   3.792   3.481   0.058  0.8450  0.0338  1.9661
 3269TIP3   OH2 9770   4.041   0.547   4.528 -0.5388 -0.1560 -0.1366
 3269TIP3    H1 9771   3.954   0.581   4.548  0.0315  1.0923  0.3614
 3269TIP3    H2 9772   4.039   0.529   4.434 -1.2171  0.2219 -0.1989
 3270TIP3   OH2 9773   6.472   1.270   3.823 -0.0158  0.5654 -0.2327
 3270TIP3    H1 9774   6.497   1.337   3.886 -0.1575 -0.5625  1.0637
 3270TIP3    H2 9775   6.553   1.221   3.807  0.1883  1.2733 -1.5023
 3271TIP3   OH2 9776   6.326   1.183   3.362  0.1798  0.1424 -0.2574
 3271TIP3    H1 9777   6.298   1.130   3.437  2.9697  1.4124  1.9095
 3271TIP3    H2 9778   6.422   1.186   3.370  0.6296  0.2787 -4.0053
 3272TIP3   OH2 9779   1.774   1.367   2.176  0.0417 -0.5139 -0.2499
 3272TIP3    H1 9780   1.732   1.374   2.262  1.2680  2.0854  0.2345
 3272TIP3    H2 9781   1.710   1.403   2.115 -0.4880 -1.5642 -0.3433
 3273TIP3   OH2 9782   5.922   3.315   2.289 -0.2542 -0.2756  0.0903
 3273TIP3    H1 9783   5.918   3.228   2.330  0.2736 -0.0100  0.7070
 3273TIP3    H2 9784   5.982   3.304   2.216 -1.5866 -0.8801 -0.9553
 3274TIP3   OH2 9785   3.254   0.031   0.322 -0.1475 -0.1315  0.1561
 3274TIP3    H1 9786   3.252  -0.045   0.263 -0.7013  1.6794 -2.3401
 3274TIP3    H2 9787   3.288   0.102   0.268  1.2457  1.2515  2.6682
 3275TIP3   OH2 9788   4.535   4.839   2.693 -0.0691 -0.1378  0.8798
 3275TIP3    H1 9789   4.623   4.819   2.662 -0.0896 -0.8095  1.2502
 3275TIP3    H2 9790   4.515   4.924   2.653 -0.0464 -0.8922 -0.8268
 3276TIP3   OH2 9791   2.126   6.662   0.958  0.2447  0.1104  0.6871
 3276TIP3    H1 9792   2.041   6.632   0.989 -0.5006  1.2611 -0.2175
 3276TIP3    H2 9793   2.107   6.721   0.885  1.7960  0.7340  0.7462
 3277TIP3   OH2 9794   1.766   6.098   2.546 -0.3635  0.0331 -0.1433
 3277TIP3    H1 9795   1.753   6.189   2.573  0.9549  0.5497 -1.1438
 3277TIP3    H2 9796   1.715   6.089   2.466 -0.6866 -0.1824  0.0855
 3278TIP3   OH2 9797   2.975   5.400   5.432 -0.9620 -0.0336  0.2852
 3278TIP3    H1 9798   2.886   5.429   5.452 -0.9543  1.1998 -1.3002
 3278TIP3    H2 9799   2.975   5.385   5.338  0.8831  1.3833  0.0024
 3279TIP3   OH2 9800   4.458   1.792   3.630 -0.2232 -0.2927 -0.2114
 3279TIP3    H1 9801   4.455   1.746   3.546  0.2869  0.6584 -0.7734
 3279TIP3    H2 9802   4.530   1.854   3.621  0.0716 -0.4220  1.0699
 3280TIP3   OH2 9803   6.707   4.351   1.384 -0.5744  0.2561 -0.3815
 3280TIP3    H1 9804   6.614   4.366   1.368 -1.3392 -2.4064  0.9041
 3280TIP3    H2 9805   6.734   4.422   1.442 -1.6477  1.3081 -1.1253
 3281TIP3   OH2 9806   3.491   2.522   0.905  0.0677 -0.0865 -0.4076
 3281TIP3    H1 9807   3.492   2.427   0.911 -0.7890 -0.0453  0.6102
 3281TIP3    H2 9808   3.413   2.542   0.853 -0.0179  0.0747 -0.2199
 3282TIP3   OH2 9809   6.235   5.035   5.090 -0.0047 -0.3635  0.4741
 3282TIP3    H1 9810   6.258   5.013   5.180  1.3418 -2.2801 -0.2563
 3282TIP3    H2 9811   6.312   5.082   5.057  0.0268 -0.7445 -0.0086
 3283TIP3   OH2 9812   3.495   6.062   1.190 -0.4213  0.2742 -0.0010
 3283TIP3    H1 9813   3.408   6.024   1.181 -0.9698  1.6053 -0.4191
 3283TIP3    H2 9814   3.480   6.155   1.202  0.9870  0.7161 -1.3551
 3284TIP3   OH2 9815   5.494   0.538   5.268 -0.3404 -0.9070 -0.3058
 3284TIP3    H1 9816   5.405   0.531   5.303 -0.7306  1.9140 -0.5389
 3284TIP3    H2 9817   5.486   0.595   5.191  2.0000  2.1040  1.4384
 3285TIP3   OH2 9818   5.202   5.714   5.517  0.1313 -0.0684 -0.3352
 3285TIP3    H1 9819   5.237   5.678   5.598  0.7851 -0.8382 -0.9399
 3285TIP3    H2 9820   5.275   5.710   5.455 -0.3102  0.6492 -0.9262
 3286TIP3   OH2 9821   1.281   2.697   5.442 -0.4491 -0.4332 -0.2378
 3286TIP3    H1 9822   1.203   2.748   5.464  0.0757  0.9920 -1.4374
 3286TIP3    H2 9823   1.348   2.728   5.504 -0.7987 -1.6085  0.7499
 3287TIP3   OH2 9824   0.638   4.069   2.373  0.0098 -0.2580  0.0263
 3287TIP3    H1 9825   0.710   4.132   2.381  0.8063 -0.7843 -2.3366
 3287TIP3    H2 9826   0.559   4.121   2.388  0.7231  1.0443 -0.5521
 3288TIP3   OH2 9827   2.141   2.444   0.626 -0.2813  0.3990  0.1301
 3288TIP3    H1 9828   2.173   2.381   0.562 -0.1823  2.7181 -2.2917
 3288TIP3    H2 9829   2.054   2.469   0.593  0.1705  2.3566  0.3017
 3289TIP3   OH2 9830   3.671   1.294   5.537  0.9223 -0.4459 -0.3444
 3289TIP3    H1 9831   3.717   1.214   5.510  0.8134 -0.6032 -0.0664
 3289TIP3    H2 9832   3.682   1.297   5.632 -1.0411 -1.3737 -0.0383
 3290TIP3   OH2 9833   4.135   2.114   5.255  0.1997  0.0956  0.1913
 3290TIP3    H1 9834   4.201   2.102   5.186 -0.6085  1.1112 -0.8028
 3290TIP3    H2 9835   4.165   2.190   5.304  0.5669 -0.3848  0.7152
 3291TIP3   OH2 9836   4.039   2.255   4.390 -0.0756  0.1094  0.6000
 3291TIP3    H1 9837   4.124   2.238   4.349  0.0047 -0.7279  1.1003
 3291TIP3    H2 9838   4.043   2.348   4.414  0.5402  0.1812  0.2623
 3292TIP3   OH2 9839   3.493   5.428   1.752 -0.2078  0.1683 -0.1666
 3292TIP3    H1 9840   3.542   5.384   1.822 -1.6847 -0.9200  0.2419
 3292TIP3    H2 9841   3.426   5.364   1.727 -1.2913  1.5199 -0.8251
 3293TIP3   OH2 9842   3.301   6.794   1.401  0.0431 -0.1127  0.5758
 3293TIP3    H1 9843   3.292   6.730   1.471  0.6317  1.5857  2.3125
 3293TIP3    H2 9844   3.218   6.843   1.403  0.2735  0.2884  0.4728
 3294TIP3   OH2 9845   3.784   5.917   0.548 -0.4917 -0.3884 -0.2629
 3294TIP3    H1 9846   3.710   5.899   0.606 -0.5079 -0.3752 -0.2797
 3294TIP3    H2 9847   3.855   5.864   0.583 -0.5960 -0.6484 -0.4332
 3295TIP3   OH2 9848   0.522   3.743   1.538 -0.0715  0.1040  0.1200
 3295TIP3    H1 9849   0.488   3.763   1.625 -0.9587  0.3526 -0.2656
 3295TIP3    H2 9850   0.477   3.662   1.513 -0.0583  0.2022 -0.2296
 3296TIP3   OH2 9851   0.388   5.356   0.839  0.3737  0.0136 -0.6976
 3296TIP3    H1 9852   0.460   5.298   0.865  0.9766  0.0861 -2.1430
 3296TIP3    H2 9853   0.365   5.327   0.751  0.2442  1.5361 -1.1892
 3297TIP3   OH2 9854   1.599   2.687   2.171 -0.1480  0.1448  0.0441
 3297TIP3    H1 9855   1.539   2.705   2.098 -1.0949  1.7616  1.1455
 3297TIP3    H2 9856   1.574   2.600   2.202 -0.3820 -0.1582 -0.9383
 3298TIP3   OH2 9857   4.947   0.894   3.082  0.0127  0.5855  0.4793
 3298TIP3    H1 9858   4.897   0.880   3.002 -0.7477  2.4563  0.5796
 3298TIP3    H2 9859   4.989   0.810   3.099  0.8464  0.3391 -2.3044
 3299TIP3   OH2 9860   6.029   5.040   4.556 -0.2287  0.2290  0.1784
 3299TIP3    H1 9861   6.039   4.953   4.595  1.0630  0.2100 -0.1292
 3299TIP3    H2 9862   5.961   5.083   4.607  0.9887 -0.0022  2.0898
 3300TIP3   OH2 9863   1.577   0.554   0.552  0.5726 -0.9617 -0.2797
 3300TIP3    H1 9864   1.489   0.517   0.552  0.7889 -1.5878  1.6616
 3300TIP3    H2 9865   1.563   0.649   0.552 -0.1790 -1.0306  1.4732
 3301TIP3   OH2 9866   0.385   5.338   1.568  0.0496  0.0366  0.2670
 3301TIP3    H1 9867   0.299   5.334   1.526 -0.2396  1.0167  0.7440
 3301TIP3    H2 9868   0.398   5.250   1.603 -0.3314 -0.3969 -0.6182
 3302TIP3   OH2 9869   1.535   1.466   1.203  0.0813 -0.0671  0.1427
 3302TIP3    H1 9870   1.453   1.449   1.250  1.4173 -0.5542  2.4906
 3302TIP3    H2 9871   1.589   1.389   1.222  0.8857 -0.0530 -1.8919
 3303TIP3   OH2 9872   6.727   5.285   1.462  0.3363  0.0444  0.1586
 3303TIP3    H1 9873   6.783   5.222   1.506  1.4787  0.6141 -0.4363
 3303TIP3    H2 9874   6.658   5.232   1.423  0.5779 -0.6972  0.7172
 3304TIP3   OH2 9875   2.694   3.551   4.633  0.1261  0.2585  0.5150
 3304TIP3    H1 9876   2.640   3.526   4.558  3.2615 -0.5430 -1.6757
 3304TIP3    H2 9877   2.696   3.473   4.688 -0.1288 -0.0473  0.0948
 3305TIP3   OH2 9878   5.465   4.430   2.582 -0.4095 -0.8042 -0.2128
 3305TIP3    H1 9879   5.449   4.383   2.500  2.9821 -0.1798 -1.4151
 3305TIP3    H2 9880   5.532   4.378   2.626  0.9907  1.0792  0.0060
 3306TIP3   OH2 9881   0.829   2.992   4.199  0.0170 -0.1851 -0.2380
 3306TIP3    H1 9882   0.758   2.930   4.213 -0.5574  0.5708  0.2947
 3306TIP3    H2 9883   0.855   3.018   4.288  1.3823 -0.9097 -0.4017
 3307TIP3   OH2 9884   5.900   0.195   2.588 -0.0931  0.1424  0.6374
 3307TIP3    H1 9885   5.956   0.118   2.570  1.8130  1.8079 -1.1043
 3307TIP3    H2 9886   5.912   0.211   2.682 -0.4515 -1.5707  1.0223
 3308TIP3   OH2 9887   3.662   6.284   1.294  0.0992 -0.3096 -0.1780
 3308TIP3    H1 9888   3.614   6.366   1.302 -0.2022 -0.3936 -1.0865
 3308TIP3    H2 9889   3.704   6.272   1.380 -2.9932 -1.1886  1.3662
 3309TIP3   OH2 9890   3.552   0.045   3.927  0.2240  0.0210 -0.0159
 3309TIP3    H1 9891   3.479  -0.011   3.899 -0.8302  0.2641  2.0911
 3309TIP3    H2 9892   3.584   0.005   4.007  0.4344  1.5772  0.7190
 3310TIP3   OH2 9893   1.078   4.355   4.514  0.5271 -0.3324  0.0633
 3310TIP3    H1 9894   1.046   4.387   4.598  0.4250 -2.3487  0.8580
 3310TIP3    H2 9895   1.140   4.421   4.484 -2.7527  2.7535 -0.5887
 3311TIP3   OH2 9896   5.582   4.328   4.313  0.7057  0.1767 -0.5038
 3311TIP3    H1 9897   5.638   4.398   4.348  1.1798 -1.2753  1.8702
 3311TIP3    H2 9898   5.640   4.275   4.259  1.7510 -1.3010  1.9177
 3312TIP3   OH2 9899   3.655   4.687   2.180  0.4509 -0.1141  0.3617
 3312TIP3    H1 9900   3.647   4.730   2.266  0.0650  0.6926 -0.0659
 3312TIP3    H2 9901   3.740   4.644   2.183  1.3887  1.6502  0.3884
 3313TIP3   OH2 9902   2.826   1.064   3.492  0.4974  0.1472 -0.1000
 3313TIP3    H1 9903   2.778   1.117   3.555 -0.9029 -0.2531 -0.7862
 3313TIP3    H2 9904   2.819   1.111   3.410 -0.2875 -0.8090 -0.5979
 3314TIP3   OH2 9905   7.123   4.857   0.026  0.3127 -0.3642  0.5390
 3314TIP3    H1 9906   7.030   4.854   0.051  0.5501  1.7220  1.9414
 3314TIP3    H2 9907   7.125   4.821  -0.063 -1.9196  0.0011  0.2752
 3315TIP3   OH2 9908   6.424   0.149   3.238  0.1548  0.0907  0.0232
 3315TIP3    H1 9909   6.479   0.194   3.174 -0.4118 -0.5359 -0.9215
 3315TIP3    H2 9910   6.483   0.087   3.281  0.5702  0.6178  0.2302
 3316TIP3   OH2 9911   3.772   2.601   5.124  0.0587  0.5601  0.6722
 3316TIP3    H1 9912   3.836   2.587   5.055  0.3718  0.7840  0.9155
 3316TIP3    H2 9913   3.744   2.692   5.113  0.7252  0.8582  1.3463
 3317TIP3   OH2 9914   2.255   3.700   3.857  0.4670  0.0276  0.1502
 3317TIP3    H1 9915   2.291   3.660   3.936 -1.4685  1.5017  1.8704
 3317TIP3    H2 9916   2.160   3.698   3.870  0.0891  0.4252 -2.1171
 3318TIP3   OH2 9917   4.875   2.948   0.115  0.1080 -0.6763 -0.2181
 3318TIP3    H1 9918   4.917   2.959   0.030  0.1353  3.9184  0.1080
 3318TIP3    H2 9919   4.947   2.942   0.178  0.1310 -1.0439 -0.2780
 3319TIP3   OH2 9920   4.674   4.949   1.906  0.0430  0.1773 -0.2629
 3319TIP3    H1 9921   4.608   4.986   1.966 -0.1008 -1.3422  0.5744
 3319TIP3    H2 9922   4.625   4.888   1.851  0.3737  0.7627 -1.2382
 3320TIP3   OH2 9923   5.981   0.436   4.052  0.2403 -0.0645 -0.5638
 3320TIP3    H1 9924   6.070   0.401   4.054 -0.2476 -1.3631 -0.3714
 3320TIP3    H2 9925   5.974   0.487   4.133  1.4198  1.7747 -1.5268
 3321TIP3   OH2 9926   6.823   3.899   1.745 -0.0010  0.8082 -0.4708
 3321TIP3    H1 9927   6.821   3.964   1.816  1.7474  0.1447  0.2271
 3321TIP3    H2 9928   6.889   3.931   1.685 -0.0469  0.3362 -0.7783
 3322TIP3   OH2 9929   5.059   4.217   5.004  0.5799  0.2624  0.4638
 3322TIP3    H1 9930   4.982   4.214   4.946 -1.8046  0.8587  3.3413
 3322TIP3    H2 9931   5.107   4.295   4.977 -0.9756  1.0602 -0.1082
 3323TIP3   OH2 9932   2.719   2.645   2.767 -0.0573 -0.1563  0.1725
 3323TIP3    H1 9933   2.686   2.562   2.733  1.8613 -0.9053 -0.0135
 3323TIP3    H2 9934   2.701   2.708   2.697  1.1461 -1.0643 -1.0215
 3324TIP3   OH2 9935   5.673   2.271   1.934 -0.3225 -0.2930  0.1578
 3324TIP3    H1 9936   5.685   2.184   1.972 -0.0359  0.1137  1.0225
 3324TIP3    H2 9937   5.640   2.255   1.846  2.1384 -1.3767 -0.6669
 3325TIP3   OH2 9938   1.296   4.277   4.865  0.3812 -0.1573 -0.3729
 3325TIP3    H1 9939   1.226   4.215   4.847  1.0655 -1.0767  0.0921
 3325TIP3    H2 9940   1.354   4.232   4.926  0.7705  1.0268  0.1728
 3326TIP3   OH2 9941   4.396   4.928   3.212  0.2638  0.1686 -0.1611
 3326TIP3    H1 9942   4.446   4.961   3.137 -0.0591  1.7129  0.2708
 3326TIP3    H2 9943   4.402   4.998   3.277  0.4469 -1.0870  1.2380
 3327TIP3   OH2 9944   6.772   1.199   4.525  0.0635  0.4467  0.2716
 3327TIP3    H1 9945   6.683   1.169   4.539  0.0227  0.5075  0.1463
 3327TIP3    H2 9946   6.778   1.214   4.430  0.1681  0.5602  0.2956
 3328TIP3   OH2 9947   5.735   4.695   3.755 -0.0893 -0.2487 -0.2143
 3328TIP3    H1 9948   5.688   4.695   3.838 -0.1565 -1.6744 -0.2261
 3328TIP3    H2 9949   5.826   4.713   3.779 -0.3660  1.0544 -0.0402
 3329TIP3   OH2 9950   0.112   2.885   1.410  0.0660  0.0919  0.0944
 3329TIP3    H1 9951   0.096   2.979   1.420 -0.9809 -0.0500 -0.0714
 3329TIP3    H2 9952   0.041   2.843   1.459  0.2376 -0.6104 -0.2397
 3330TIP3   OH2 9953   3.087   0.916   0.055 -0.2005  0.2186  0.4558
 3330TIP3    H1 9954   3.180   0.895   0.044 -0.3649 -0.3689  0.1772
 3330TIP3    H2 9955   3.086   0.980   0.127  0.5128  1.0843 -0.2785
 3331TIP3   OH2 9956   5.165   4.748   3.501 -0.4278 -0.0952  0.2144
 3331TIP3    H1 9957   5.212   4.790   3.429  0.9409 -1.3921  0.3083
 3331TIP3    H2 9958   5.100   4.693   3.458 -0.9635  0.6573  0.0442
 3332TIP3   OH2 9959   6.896   5.595   0.849 -0.0760  0.0335 -0.6750
 3332TIP3    H1 9960   6.800   5.589   0.843  0.0645 -1.0651 -2.7177
 3332TIP3    H2 9961   6.927   5.506   0.832  1.3352  0.4461 -0.4144
 3333TIP3   OH2 9962   1.068   0.960   0.900  0.3522 -0.0182 -0.2609
 3333TIP3    H1 9963   1.158   0.940   0.878  0.6638  0.0525  0.8798
 3333TIP3    H2 9964   1.066   0.959   0.996 -0.7199  0.5493 -0.2605
 3334TIP3   OH2 9965   6.119   4.102   4.209 -0.1654 -0.4694  0.1976
 3334TIP3    H1 9966   6.171   4.116   4.130 -0.7702 -2.0498 -0.5257
 3334TIP3    H2 9967   6.166   4.150   4.278  0.4050  0.8953 -1.0803
 3335TIP3   OH2 9968   2.380   4.386   0.545  0.1465  0.5613 -0.5711
 3335TIP3    H1 9969   2.414   4.419   0.462  0.7822 -0.3717 -0.6867
 3335TIP3    H2 9970   2.346   4.464   0.589  2.4112  1.5430 -0.4459
 3336TIP3   OH2 9971   5.260   2.517   4.500 -0.2018 -0.1394 -0.3152
 3336TIP3    H1 9972   5.211   2.440   4.470  0.1742 -0.7490  0.5729
 3336TIP3    H2 9973   5.319   2.538   4.428 -2.1852  1.0146 -1.6893
 3337TIP3   OH2 9974   7.154   3.534   3.659 -0.2499  0.0102  0.4684
 3337TIP3    H1 9975   7.094   3.501   3.592 -0.3225  0.3712  0.3520
 3337TIP3    H2 9976   7.241   3.512   3.625 -0.3040 -0.2862  0.5150
 3338TIP3   OH2 9977   4.948   5.177   3.141  0.1870 -0.5602 -0.1137
 3338TIP3    H1 9978   4.970   5.102   3.195  1.1209 -0.8187 -0.8337
 3338TIP3    H2 9979   4.929   5.247   3.203  0.2536 -1.1268  0.5486
 3339TIP3   OH2 9980   6.316   5.280   1.860  0.3965 -0.3019 -0.1761
 3339TIP3    H1 9981   6.315   5.233   1.944  0.9039 -2.4697 -1.3017
 3339TIP3    H2 9982   6.240   5.339   1.865  0.3927 -0.3889  1.7707
 3340TIP3   OH2 9983   4.717   6.167   3.705 -0.5483 -0.1324  0.1370
 3340TIP3    H1 9984   4.661   6.120   3.643  0.4625 -1.2075  0.0219
 3340TIP3    H2 9985   4.754   6.099   3.761  0.1964  0.6218  0.5813
 3341TIP3   OH2 9986   6.880   4.499   2.614 -0.4970  0.1006  0.1056
 3341TIP3    H1 9987   6.887   4.407   2.586  0.1586 -0.3821  1.7511
 3341TIP3    H2 9988   6.788   4.509   2.637 -0.5487 -0.1764  0.0327
 3342TIP3   OH2 9989   5.624   0.502   0.326 -0.4549  0.0430 -0.3228
 3342TIP3    H1 9990   5.671   0.547   0.255 -0.5580 -0.8531 -0.9880
 3342TIP3    H2 9991   5.532   0.509   0.302 -0.5735  0.6642  0.2941
 3343TIP3   OH2 9992   6.911   0.768   0.994 -0.3665  0.2138 -0.0740
 3343TIP3    H1 9993   6.919   0.676   0.967 -1.1246  0.2671 -0.4942
 3343TIP3    H2 9994   6.919   0.817   0.913  0.6614  0.5751  0.2214
 3344TIP3   OH2 9995   6.265   1.301   0.873 -0.0684  0.7372 -0.1847
 3344TIP3    H1 9996   6.187   1.324   0.824 -1.0373  0.5833  1.2293
 3344TIP3    H2 9997   6.249   1.212   0.905 -0.6639  1.7189  2.5458
 3345TIP3   OH2 9998   1.878   4.628   1.116  0.8066  0.2381 -0.4425
 3345TIP3    H1 9999   1.914   4.690   1.179 -0.3758  1.0064 -0.4808
 3345TIP3    H210000   1.795   4.599   1.156 -0.2076  1.1057 -1.8113
 3346TIP3   OH210001   6.777   5.087   3.985 -0.1767 -0.2338 -0.0533
 3346TIP3    H110002   6.746   5.178   3.984 -1.9336 -0.7168  2.3961
 3346TIP3    H210003   6.708   5.037   3.943 -0.1425 -0.6431  0.3643
 3347TIP3   OH210004   6.078   4.925   2.106  0.2770  0.5412 -0.2007
 3347TIP3    H110005   6.005   4.913   2.167  0.2479  0.2181 -0.2936
 3347TIP3    H210006   6.041   4.979   2.035  0.0612  0.1949 -0.3569
 3348TIP3   OH210007   6.434   6.478   3.755  0.0481 -1.0367 -0.6910
 3348TIP3    H110008   6.524   6.446   3.768  0.4874  0.4868  0.4888
 3348TIP3    H210009   6.385   6.443   3.830  0.6877  1.3601  0.9885
 3349TIP3   OH210010   2.643   2.015   2.842  0.4482  0.2320  0.3043
 3349TIP3    H110011   2.635   2.104   2.876 -2.0200  0.2499 -0.1291
 3349TIP3    H210012   2.582   1.963   2.894  1.1275 -1.0089 -0.0912
 3350TIP3   OH210013   1.355   6.110   1.866  0.0770  0.1304 -0.0775
 3350TIP3    H110014   1.433   6.160   1.892 -0.6168  0.7664  0.8498
 3350TIP3    H210015   1.321   6.075   1.947 -0.1743 -0.8048 -0.5782
 3351TIP3   OH210016   2.055   0.899   1.892 -0.0221 -0.7512 -0.1352
 3351TIP3    H110017   1.961   0.904   1.874 -0.2485  0.6328  1.2121
 3351TIP3    H210018   2.060   0.886   1.987  1.1539  0.3995 -0.0264
 3352TIP3   OH210019   0.485   1.386   3.103  0.4355 -0.4358  0.9505
 3352TIP3    H110020   0.520   1.323   3.166  1.1207 -0.9378  0.1030
 3352TIP3    H210021   0.407   1.345   3.068  0.4815 -0.4945  0.9171
 3353TIP3   OH210022   6.323   3.759   2.253 -0.5359  0.1893 -0.0084
 3353TIP3    H110023   6.325   3.785   2.160  0.7778 -1.0339 -0.3576
 3353TIP3    H210024   6.265   3.683   2.255 -1.7586  1.0956  0.4617
 3354TIP3   OH210025   2.581   1.685   4.731 -0.1495  0.2207  0.0523
 3354TIP3    H110026   2.520   1.753   4.705  1.3115  1.8584  0.6980
 3354TIP3    H210027   2.635   1.669   4.654 -0.6050 -0.3613 -0.1538
 3355TIP3   OH210028   0.984   6.697   1.041 -0.2166  0.0393 -0.0205
 3355TIP3    H110029   0.950   6.619   0.998  0.3238 -0.4515  0.4298
 3355TIP3    H210030   0.936   6.701   1.124  0.1353 -0.1249  0.1953
 3356TIP3   OH210031   6.225   0.589   0.895  0.2852 -0.1358  0.3778
 3356TIP3    H110032   6.307   0.541   0.887  0.6056  0.4158  0.3384
 3356TIP3    H210033   6.245   0.663   0.952  0.5114  1.5147 -1.7166
 3357TIP3   OH210034   5.539   6.677   0.762 -0.0192 -0.5182  0.5316
 3357TIP3    H110035   5.568   6.692   0.852 -1.6582 -0.8149  1.1492
 3357TIP3    H210036   5.505   6.588   0.763  0.2042 -0.6186 -0.4672
 3358TIP3   OH210037   6.653   6.495   0.413 -0.5756 -0.3721  0.0473
 3358TIP3    H110038   6.723   6.506   0.477 -0.0146  0.5373 -0.6972
 3358TIP3    H210039   6.673   6.559   0.344 -0.5475 -2.0260 -1.5645
 3359TIP3   OH210040   5.527   2.095   2.273 -0.0469  0.2998  0.2754
 3359TIP3    H110041   5.527   2.028   2.205  1.4939  0.6826 -0.1501
 3359TIP3    H210042   5.551   2.049   2.353  0.1953  0.1949  0.1434
 3360TIP3   OH210043   0.055   3.586   0.400 -0.6529  0.2639  0.3602
 3360TIP3    H110044   0.049   3.661   0.459  1.3960  0.9154 -0.1570
 3360TIP3    H210045   0.138   3.544   0.423 -0.3815 -0.1583 -1.2520
 3361TIP3   OH210046   2.178   2.051   3.420 -0.2350  0.1783 -0.2492
 3361TIP3    H110047   2.181   2.019   3.329 -0.9974  1.8280 -0.9027
 3361TIP3    H210048   2.201   2.143   3.413  0.1649  0.2143  1.3200
 3362TIP3   OH210049   2.060   5.009   0.086  0.4912  0.2132 -0.0007
 3362TIP3    H110050   2.143   4.981   0.047  0.5024 -0.4148  0.4583
 3362TIP3    H210051   2.041   4.943   0.153 -0.0168  0.7447  0.3933
 3363TIP3   OH210052   6.869   5.667   4.020 -0.1754 -0.0258  0.1654
 3363TIP3    H110053   6.853   5.713   4.102 -2.2996 -2.2922  1.1673
 3363TIP3    H210054   6.963   5.649   4.021  0.0507  1.0185  1.5098
 3364TIP3   OH210055   2.411   2.176   3.729  0.4922  0.1079 -0.5548
 3364TIP3    H110056   2.350   2.104   3.714  0.9677 -0.1978 -1.0980
 3364TIP3    H210057   2.497   2.133   3.733  0.8663  0.7194 -1.7000
 3365TIP3   OH210058   2.708   0.268   3.788 -0.0178  0.2261 -0.2088
 3365TIP3    H110059   2.621   0.242   3.818  0.5510  0.0638  1.4246
 3365TIP3    H210060   2.712   0.362   3.805  0.2837  0.1470  0.1763
 3366TIP3   OH210061   4.338   4.180   2.620 -0.1435  0.5654 -0.1541
 3366TIP3    H110062   4.368   4.090   2.633  0.1146  0.6257 -0.3194
 3366TIP3    H210063   4.393   4.232   2.678 -0.9128  0.5192  0.6345
 3367TIP3   OH210064   4.769   0.846   3.708 -0.1193 -0.1100  0.1927
 3367TIP3    H110065   4.679   0.837   3.678  0.2385  1.4780 -1.5530
 3367TIP3    H210066   4.766   0.915   3.774 -0.1755  0.0154  0.0597
 3368TIP3   OH210067   5.696   3.841   2.449  0.4609  0.0169 -0.4551
 3368TIP3    H110068   5.659   3.754   2.456 -0.6752  0.5375  0.3261
 3368TIP3    H210069   5.789   3.830   2.469  0.5267 -1.1352 -1.3145
 3369TIP3   OH210070   5.102   0.344   2.618 -0.8918  0.5341 -0.5595
 3369TIP3    H110071   5.130   0.254   2.633  1.5451  1.2141 -0.6337
 3369TIP3    H210072   5.074   0.346   2.526 -1.1642 -0.1882 -0.4929
 3370TIP3   OH210073   2.893   0.035   0.900 -0.4080 -0.7624 -0.3031
 3370TIP3    H110074   2.838   0.093   0.954 -0.0064 -0.8436  0.1979
 3370TIP3    H210075   2.966   0.090   0.874 -1.2148 -0.3548 -1.8160
 3371TIP3   OH210076   0.799   4.432   5.719 -0.4834  0.3750 -0.0673
 3371TIP3    H110077   0.818   4.367   5.786  0.5895  0.1292 -0.5806
 3371TIP3    H210078   0.878   4.434   5.664 -2.1859 -1.3094 -2.8662
 3372TIP3   OH210079   3.180   4.937   4.502 -0.1248 -0.2333  0.0396
 3372TIP3    H110080   3.162   4.951   4.595 -0.2424 -3.2425  0.5638
 3372TIP3    H210081   3.273   4.915   4.499 -0.2075 -0.5332 -0.4861
 3373TIP3   OH210082   7.145   3.877   0.150  0.0304 -0.0475  0.7977
 3373TIP3    H110083   7.149   3.868   0.245 -0.1950 -0.4515  0.7683
 3373TIP3    H210084   7.051   3.878   0.130  0.0802 -0.3891  0.5402
 3374TIP3   OH210085   5.203   6.395   5.078  0.5214 -0.0730 -0.2215
 3374TIP3    H110086   5.285   6.352   5.055  0.0297 -0.1888 -1.8843
 3374TIP3    H210087   5.230   6.474   5.125  1.4504 -1.7588  2.2868
 3375TIP3   OH210088   6.477   0.669   2.880  0.0799 -0.1896  0.2148
 3375TIP3    H110089   6.545   0.714   2.930 -0.3643  0.6823  0.0427
 3375TIP3    H210090   6.511   0.668   2.790 -0.4027  0.8291  0.0026
 3376TIP3   OH210091   3.379   0.507   1.989  0.7120 -0.0343  0.3644
 3376TIP3    H110092   3.463   0.494   1.946  0.2863 -1.0289 -0.1804
 3376TIP3    H210093   3.314   0.480   1.925  0.0277 -0.5767  1.2520
 3377TIP3   OH210094   3.095   2.640   2.618  0.5577 -0.1918  0.1512
 3377TIP3    H110095   3.018   2.588   2.596 -0.2571  1.1727 -0.3501
 3377TIP3    H210096   3.123   2.607   2.703 -1.1767 -0.0697  0.8108
 3378TIP3   OH210097   0.106   2.619   4.346  0.0044  0.0336  0.4603
 3378TIP3    H110098   0.146   2.650   4.264  0.0915  0.7527  0.7678
 3378TIP3    H210099   0.180   2.599   4.403 -0.0468 -1.0456  0.1609
 3379TIP3   OH210100   0.251   1.908   0.496 -0.0474 -0.0880 -0.2673
 3379TIP3    H110101   0.197   1.983   0.517  0.7133  0.3623  0.1122
 3379TIP3    H210102   0.240   1.849   0.570 -0.9167 -0.5235 -0.7229
 3380TIP3   OH210103   5.612   3.877   4.962 -0.2569 -0.7070  0.0243
 3380TIP3    H110104   5.688   3.828   4.994  0.1551  0.7673  1.4732
 3380TIP3    H210105   5.638   3.969   4.969 -0.6370 -0.1847 -3.5211
 3381TIP3   OH210106   6.783   5.677   4.294 -0.2861  0.6134  0.4248
 3381TIP3    H110107   6.720   5.620   4.250  0.3588  0.2467 -0.0501
 3381TIP3    H210108   6.829   5.619   4.355  0.0755  0.7191  0.2542
 3382TIP3   OH210109   6.316   0.991   1.826 -0.3773  0.5337  0.6004
 3382TIP3    H110110   6.303   0.920   1.763 -2.1964  1.4385 -0.1509
 3382TIP3    H210111   6.265   0.965   1.903 -2.3815  1.6234 -0.2607
 3383TIP3   OH210112   6.144   3.402   3.807  0.0473  0.2540  0.3717
 3383TIP3    H110113   6.076   3.339   3.785  0.1261  0.4671 -0.5172
 3383TIP3    H210114   6.201   3.405   3.730 -0.3625  1.9180  0.0883
 3384TIP3   OH210115   2.975   4.411   0.348 -0.0573 -0.1038 -0.5535
 3384TIP3    H110116   3.056   4.462   0.349 -0.6261  0.8852  1.3746
 3384TIP3    H210117   2.934   4.432   0.265  0.3468  1.6268 -0.3630
 3385TIP3   OH210118   2.725   5.623   4.149 -0.1338 -0.0370  0.2278
 3385TIP3    H110119   2.777   5.691   4.190 -0.2603 -0.8361  1.8063
 3385TIP3    H210120   2.685   5.576   4.223 -0.6547 -1.3242 -0.8324
 3386TIP3   OH210121   6.013   2.729   0.774  0.0587 -0.4395 -0.0004
 3386TIP3    H110122   6.003   2.718   0.680 -0.8897  1.0429 -0.1045
 3386TIP3    H210123   5.944   2.676   0.813 -1.7996  1.6027 -0.3227
 3387TIP3   OH210124   6.911   1.012   2.604  0.5682 -0.0919  0.0196
 3387TIP3    H110125   6.879   1.030   2.693  2.3049  0.0284  0.6538
 3387TIP3    H210126   6.868   1.077   2.550 -2.3295 -1.5783  0.3214
 3388TIP3   OH210127   3.287   2.550   1.910 -0.2748 -0.3396 -0.2130
 3388TIP3    H110128   3.270   2.546   1.816 -0.8059  0.3356 -0.1582
 3388TIP3    H210129   3.203   2.574   1.949 -0.0487 -0.5668  0.4281
 3389TIP3   OH210130   1.847   4.952   0.631  0.3345  0.4651 -0.1352
 3389TIP3    H110131   1.763   4.910   0.612  0.9905 -0.4796 -1.1112
 3389TIP3    H210132   1.843   5.036   0.585 -0.1418  0.5011 -0.0323
 3390TIP3   OH210133   0.148   5.054   5.031  0.0111  0.3321  0.1150
 3390TIP3    H110134   0.113   5.130   4.985  1.6194  0.4662 -0.9549
 3390TIP3    H210135   0.180   5.089   5.114 -1.0415  0.4585  0.4762
 3391TIP3   OH210136   3.978   6.736   2.201  0.1932 -0.0798  0.8414
 3391TIP3    H110137   3.922   6.798   2.248  0.7538  0.9324  0.1935
 3391TIP3    H210138   3.969   6.654   2.251 -1.6750  0.1034  0.8812
 3392TIP3   OH210139   3.815   0.038   4.315 -0.1251  0.1098 -0.4719
 3392TIP3    H110140   3.804  -0.055   4.297 -2.4589  0.0851  0.6411
 3392TIP3    H210141   3.757   0.055   4.390  0.2300  2.4544 -0.6436
 3393TIP3   OH210142   4.264   2.001   3.243 -0.1237 -0.0904  0.2719
 3393TIP3    H110143   4.196   2.001   3.310 -0.3555 -1.3509  0.0558
 3393TIP3    H210144   4.259   1.914   3.203  1.2443 -0.0105 -0.1259
 3394TIP3   OH210145   5.357   0.935   2.908 -0.2567 -0.0242 -0.1367
 3394TIP3    H110146   5.279   0.983   2.938  0.1894 -0.0515  1.1441
 3394TIP3    H210147   5.428   0.967   2.964  0.6705  0.0061 -1.2890
 3395TIP3   OH210148   5.520   0.623   5.552 -0.0349  0.5939  0.0887
 3395TIP3    H110149   5.533   0.620   5.457  1.2205 -0.0509  0.2641
 3395TIP3    H210150   5.566   0.702   5.580 -3.1824  2.7478 -0.1717
 3396TIP3   OH210151   4.109   4.935   0.677  0.6001 -0.4039  0.1779
 3396TIP3    H110152   4.110   5.014   0.731 -2.3227  0.6065 -1.0696
 3396TIP3    H210153   4.058   4.960   0.600 -0.5110 -3.5580 -0.2142
 3397TIP3   OH210154   5.806   1.398   2.744 -0.2911 -0.6414  0.3923
 3397TIP3    H110155   5.824   1.447   2.825 -0.1133 -0.3475  0.1775
 3397TIP3    H210156   5.876   1.333   2.739 -1.0151 -1.4919  1.1266
 3398TIP3   OH210157   6.544   3.290   5.712 -0.1878 -0.3872  0.1256
 3398TIP3    H110158   6.567   3.224   5.778 -0.3837 -0.7096 -0.1210
 3398TIP3    H210159   6.452   3.309   5.730 -0.1799 -0.3132  0.0840
 3399TIP3   OH210160   3.062   5.002   5.429  0.1430  0.5978  0.6283
 3399TIP3    H110161   3.117   5.075   5.458  0.4856  0.4321  0.4020
 3399TIP3    H210162   2.987   5.044   5.387  0.0444  0.8263  1.0238
 3400TIP3   OH210163   1.829   0.754   3.616 -0.1942 -0.3638  0.0475
 3400TIP3    H110164   1.850   0.721   3.529  1.0225 -0.0306  0.1959
 3400TIP3    H210165   1.855   0.683   3.675 -0.9457 -0.5585  0.1596
 3401TIP3   OH210166   1.483   5.905   3.384  0.3343 -0.6412  0.4227
 3401TIP3    H110167   1.412   5.966   3.369 -0.6544 -1.8709 -0.0438
 3401TIP3    H210168   1.559   5.960   3.404 -0.8709  0.6739  1.5298
 3402TIP3   OH210169   3.843   0.945   4.473 -0.3549  0.0572 -0.0337
 3402TIP3    H110170   3.870   1.030   4.439 -0.1900  0.3824  0.8653
 3402TIP3    H210171   3.885   0.881   4.416  0.4310  0.5810 -0.0496
 3403TIP3   OH210172   3.055   3.143   0.053 -0.2094 -0.5519 -0.4905
 3403TIP3    H110173   2.974   3.163   0.101 -0.1311 -1.8425  0.2299
 3403TIP3    H210174   3.072   3.222   0.001 -0.8355  0.5249  0.8669
 3404TIP3   OH210175   1.029   0.964   5.497  0.4393 -0.9910  0.5328
 3404TIP3    H110176   0.974   0.962   5.575  2.4914  0.1433  2.1161
 3404TIP3    H210177   1.023   1.054   5.466  0.7245 -1.0755  0.2251
 3405TIP3   OH210178   4.420   5.663   4.883  0.1494  0.1029 -0.0378
 3405TIP3    H110179   4.362   5.642   4.956 -0.0939 -0.7271 -0.4581
 3405TIP3    H210180   4.406   5.756   4.867  0.1939  0.2913  0.9570
 3406TIP3   OH210181   4.311   5.480   2.513  0.0155  0.4055  0.4487
 3406TIP3    H110182   4.297   5.494   2.606  1.5001  0.7984  0.6290
 3406TIP3    H210183   4.319   5.568   2.476 -0.7005  0.2601 -0.0948
 3407TIP3   OH210184   1.497   5.260   4.264 -0.4129  0.1403  0.9595
 3407TIP3    H110185   1.565   5.324   4.282 -0.6988  0.4271  1.0325
 3407TIP3    H210186   1.524   5.218   4.182 -0.9310  1.3338  0.1381
 3408TIP3   OH210187   2.588   4.107   1.351  0.6126  0.0954 -0.2755
 3408TIP3    H110188   2.523   4.177   1.348  0.8834  0.3844  0.3100
 3408TIP3    H210189   2.672   4.153   1.347  0.7878 -0.2417 -0.5431
 3409TIP3   OH210190   2.335   0.479   3.045 -0.8845  0.5485  0.1984
 3409TIP3    H110191   2.326   0.385   3.030  0.5543  0.5362 -0.6934
 3409TIP3    H210192   2.272   0.519   2.985 -1.5735  0.1744  0.6502
 3410TIP3   OH210193   0.273   1.129   4.641  0.0970  0.0341  0.0637
 3410TIP3    H110194   0.327   1.208   4.642 -0.7091  0.5907  0.5186
 3410TIP3    H210195   0.185   1.159   4.662  0.0518 -1.1921  1.8479
 3411TIP3   OH210196   0.259   3.993   0.869  0.3254  0.6019  0.2153
 3411TIP3    H110197   0.200   4.068   0.861  0.5343  0.9705  1.6447
 3411TIP3    H210198   0.346   4.031   0.864  0.4302  0.3705  0.2597
 3412TIP3   OH210199   2.836   6.430   0.851 -0.1639  0.0933 -0.3053
 3412TIP3    H110200   2.748   6.453   0.881  0.1955  0.2521  0.6549
 3412TIP3    H210201   2.845   6.474   0.767 -1.4759 -0.9633 -1.0436
 3413TIP3   OH210202   5.706   4.428   0.417  0.0234  0.2899  0.4118
 3413TIP3    H110203   5.658   4.353   0.383  1.7674 -0.6162 -0.2151
 3413TIP3    H210204   5.651   4.503   0.397 -1.0564 -0.6724 -0.3689
 3414TIP3   OH210205   1.760   4.159   3.202  0.2561  0.0124  0.1368
 3414TIP3    H110206   1.772   4.221   3.129  1.6737 -0.5240 -0.1161
 3414TIP3    H210207   1.720   4.212   3.271 -1.1555  0.5221 -1.0348
 3415TIP3   OH210208   3.090   1.310   1.558 -0.0777  0.5651  0.6296
 3415TIP3    H110209   3.119   1.281   1.471 -0.2889  0.0362  0.7374
 3415TIP3    H210210   3.047   1.394   1.541  0.1212  0.5964  0.2602
 3416TIP3   OH210211   6.712   5.444   0.040  0.2384  0.1775 -0.3659
 3416TIP3    H110212   6.649   5.482  -0.021  0.4180  1.3267  0.1333
 3416TIP3    H210213   6.776   5.514   0.055  1.4727 -0.8462 -0.6214
 3417TIP3   OH210214   5.772   3.461   0.766  0.2188 -0.5915  0.1536
 3417TIP3    H110215   5.723   3.491   0.689  1.6345 -0.7239 -0.8446
 3417TIP3    H210216   5.741   3.372   0.780 -0.9034 -0.1649  0.4825
 3418TIP3   OH210217   5.784   0.841   5.093 -0.0737 -0.2267 -0.0345
 3418TIP3    H110218   5.856   0.800   5.141  1.0236 -0.1240 -1.5385
 3418TIP3    H210219   5.753   0.911   5.152  1.2183 -0.1164  0.5349
 3419TIP3   OH210220   1.616   0.092   5.710  1.0030  0.2390  0.0215
 3419TIP3    H110221   1.609   0.108   5.804  0.7594 -2.2324  0.4925
 3419TIP3    H210222   1.654   0.005   5.703  1.1086  0.3926 -2.1907
 3420TIP3   OH210223   2.271   2.236   5.193  0.5255  0.1388 -0.2919
 3420TIP3    H110224   2.349   2.278   5.231  0.3100 -0.5790  1.0143
 3420TIP3    H210225   2.306   2.165   5.140  0.7730 -0.0617  0.1329
 3421TIP3   OH210226   4.349   2.796   1.434 -0.2399  0.6275 -0.2247
 3421TIP3    H110227   4.256   2.781   1.414 -0.3498  1.0138 -0.0181
 3421TIP3    H210228   4.395   2.765   1.356 -0.5572  0.6359 -0.4205
 3422TIP3   OH210229   3.749   2.743   5.379  0.1788 -0.2629 -0.0682
 3422TIP3    H110230   3.708   2.776   5.299 -0.1336  0.3197  0.3252
 3422TIP3    H210231   3.826   2.695   5.348 -0.3009 -0.6081 -0.7531
 3423TIP3   OH210232   0.380   6.643   3.130  0.4084 -0.5245  0.8079
 3423TIP3    H110233   0.444   6.621   3.062  0.4158 -3.4287  1.6287
 3423TIP3    H210234   0.378   6.566   3.187 -2.9985 -0.1045  1.4602
 3424TIP3   OH210235   3.888   2.906   1.327  0.3449 -0.2143 -0.0975
 3424TIP3    H110236   3.818   2.846   1.355 -0.2051  0.3295 -0.2747
 3424TIP3    H210237   3.860   2.992   1.359 -0.6386  0.5781 -2.7929
 3425TIP3   OH210238   7.017   5.068   3.699  0.1403 -0.2477 -0.5039
 3425TIP3    H110239   6.931   5.043   3.665 -0.4846 -2.1143  2.0576
 3425TIP3    H210240   7.079   5.026   3.640 -0.8351 -1.9753 -0.3944
 3426TIP3   OH210241   4.756   3.874   0.390 -0.1992 -0.4159  0.0809
 3426TIP3    H110242   4.723   3.860   0.479  2.2874  0.1610  1.2072
 3426TIP3    H210243   4.798   3.960   0.394  0.0886 -0.4459 -1.6104
 3427TIP3   OH210244   7.071   3.419   1.277 -0.3896 -0.2377  0.1790
 3427TIP3    H110245   7.091   3.480   1.206 -0.8195  1.3965  1.4015
 3427TIP3    H210246   7.018   3.351   1.236  0.4041  0.0107 -1.3006
 3428TIP3   OH210247   2.302   5.973   5.224  0.3028  0.3435 -0.0949
 3428TIP3    H110248   2.240   5.949   5.155  1.2053 -0.7058 -0.5702
 3428TIP3    H210249   2.343   6.053   5.192 -0.4107  0.7428 -0.0281
 3429TIP3   OH210250   2.005   3.916   3.417  0.1195 -0.2831 -0.0828
 3429TIP3    H110251   2.032   3.923   3.325 -0.1601 -0.0678 -0.1493
 3429TIP3    H210252   1.961   3.832   3.422 -1.3763  0.4342 -0.5456
 3430TIP3   OH210253   2.096   6.428   1.732  0.5151  0.2615  0.3897
 3430TIP3    H110254   2.059   6.506   1.691  0.0826  0.8753  1.8749
 3430TIP3    H210255   2.191   6.443   1.731  0.5891 -0.1553 -1.1528
 3431TIP3   OH210256   7.126   3.752   3.405 -0.4814  0.0836 -0.4185
 3431TIP3    H110257   7.161   3.830   3.448 -0.0047  0.1658 -0.9424
 3431TIP3    H210258   7.203   3.702   3.379 -0.7329  0.3532 -1.7605
 3432TIP3   OH210259   3.088   4.687   4.977 -1.1113  0.2359 -0.1029
 3432TIP3    H110260   3.075   4.701   4.884  0.2983 -0.4258 -0.4305
 3432TIP3    H210261   3.182   4.704   4.991 -0.5274 -2.8558  0.5432
 3433TIP3   OH210262   0.393   4.549   4.093 -0.1690  0.0271 -0.0660
 3433TIP3    H110263   0.354   4.461   4.096 -0.7143  0.2903  0.7641
 3433TIP3    H210264   0.345   4.593   4.023 -1.7439  0.4955  1.2414
 3434TIP3   OH210265   4.825   2.120   0.700  0.2202 -0.3627 -0.3147
 3434TIP3    H110266   4.847   2.027   0.705  0.9853 -0.1304  1.2792
 3434TIP3    H210267   4.907   2.165   0.721 -0.0365  0.7003 -1.4667
 3435TIP3   OH210268   0.507   5.558   2.712  0.2104  0.0893 -0.5079
 3435TIP3    H110269   0.550   5.563   2.626 -0.1826 -1.2278 -0.8157
 3435TIP3    H210270   0.438   5.493   2.699  0.1719 -0.1513  0.8277
 3436TIP3   OH210271   2.473   5.381   3.990  0.3338  0.1244  0.1157
 3436TIP3    H110272   2.513   5.299   4.018 -2.0974 -0.9769  0.5681
 3436TIP3    H210273   2.462   5.432   4.070  0.2980  0.1759  0.0786
 3437TIP3   OH210274   3.704   4.666   5.291  0.3191  0.5255 -0.0893
 3437TIP3    H110275   3.674   4.701   5.375 -0.2026 -0.5666  0.2093
 3437TIP3    H210276   3.773   4.604   5.315  0.5844  0.6499 -0.5188
 3438TIP3   OH210277   4.165   3.418   1.628  0.1697  0.3844  0.1029
 3438TIP3    H110278   4.234   3.448   1.688  1.1465 -1.1614 -0.1783
 3438TIP3    H210279   4.147   3.328   1.656 -2.2094  0.9204  0.5455
 3439TIP3   OH210280   3.708   3.694   5.241 -0.0707  0.0243  0.0869
 3439TIP3    H110281   3.699   3.637   5.317  2.0220  0.2776  0.5860
 3439TIP3    H210282   3.689   3.638   5.166  1.1427 -1.1430  0.6173
 3440TIP3   OH210283   6.763   3.411   4.088  0.2086 -0.4061  0.0252
 3440TIP3    H110284   6.727   3.490   4.129 -1.7809 -1.3590  0.2449
 3440TIP3    H210285   6.831   3.443   4.029 -0.3830  1.4369  0.2791
 3441TIP3   OH210286   4.027   1.420   5.272 -0.2770  0.0082  0.1073
 3441TIP3    H110287   4.104   1.475   5.262 -0.5097  0.0847 -1.4851
 3441TIP3    H210288   4.052   1.358   5.341  0.5143  1.1573  0.9023
 3442TIP3   OH210289   6.531   0.622   2.613 -0.1765  0.0924  0.5459
 3442TIP3    H110290   6.597   0.639   2.546  0.2799 -1.5174  0.5287
 3442TIP3    H210291   6.456   0.588   2.565 -0.7358  1.1353  0.6507
 3443TIP3   OH210292   6.293   1.310   5.339 -0.4292  0.1517  0.7353
 3443TIP3    H110293   6.242   1.363   5.278  1.0969 -0.5361 -1.2407
 3443TIP3    H210294   6.229   1.279   5.403 -2.3686 -0.1536 -1.2350
 3444TIP3   OH210295   2.417   0.266   1.338 -0.2148  0.5379  0.6348
 3444TIP3    H110296   2.481   0.290   1.271 -2.1542  2.1934 -0.7149
 3444TIP3    H210297   2.401   0.346   1.387 -0.6124 -0.0775  1.5465
 3445TIP3   OH210298   6.642   5.722   2.870  0.3852  0.2264 -0.0312
 3445TIP3    H110299   6.563   5.777   2.868  1.5875  2.0951  1.1471
 3445TIP3    H210300   6.651   5.690   2.781 -1.4098  0.3893 -0.3129
 3446TIP3   OH210301   2.716   6.544   2.430  0.2945  0.7986  0.2275
 3446TIP3    H110302   2.793   6.572   2.381 -0.2456  1.6632 -0.1627
 3446TIP3    H210303   2.685   6.624   2.473 -1.2487  0.8306 -0.8421
 3447TIP3   OH210304   5.645   1.063   5.303 -0.5370 -0.3759 -0.0628
 3447TIP3    H110305   5.619   1.019   5.384  1.3228 -0.3279  0.5931
 3447TIP3    H210306   5.569   1.117   5.280 -2.0017 -2.1393  0.3471
 3448TIP3   OH210307   3.716   4.797   5.051  0.4453 -0.8119 -0.6002
 3448TIP3    H110308   3.687   4.728   4.991  1.1571 -0.9644 -0.7826
 3448TIP3    H210309   3.717   4.755   5.137  1.0032 -1.0856 -0.7286
 3449TIP3   OH210310   5.488   1.748   1.579 -0.3993  0.5339  0.6071
 3449TIP3    H110311   5.491   1.797   1.662 -0.6770  1.1867  0.2349
 3449TIP3    H210312   5.480   1.815   1.512  3.4717  0.3337 -0.2756
 3450TIP3   OH210313   2.176   1.852   1.328 -0.2827  0.5870  0.1241
 3450TIP3    H110314   2.242   1.789   1.297 -1.0084  0.5684 -1.4816
 3450TIP3    H210315   2.228   1.926   1.360  0.5431  0.4113 -0.7452
 3451TIP3   OH210316   1.879   3.884   3.022  0.4310  0.1066 -0.8245
 3451TIP3    H110317   1.971   3.869   3.045  0.2301 -2.0945 -1.3080
 3451TIP3    H210318   1.839   3.916   3.102  1.8207  2.2799 -0.9050
 3452TIP3   OH210319   2.806   3.674   5.233  0.3832  0.2450  0.0524
 3452TIP3    H110320   2.862   3.655   5.309 -1.7983 -0.9795  1.4838
 3452TIP3    H210321   2.772   3.762   5.250  1.0286  0.5717 -0.2969
 3453TIP3   OH210322   5.161   0.009   2.598  0.1551 -0.3676 -0.5170
 3453TIP3    H110323   5.240  -0.039   2.574 -0.9346 -2.2788 -0.5416
 3453TIP3    H210324   5.120   0.031   2.514  0.0302 -0.4983 -0.4903
 3454TIP3   OH210325   1.097   4.830   4.325  0.0606 -0.2532  0.9763
 3454TIP3    H110326   1.186   4.854   4.352  0.4392 -0.5765  0.0529
 3454TIP3    H210327   1.107   4.745   4.283 -0.5346  0.1318  0.0320
 3455TIP3   OH210328   6.268   0.297   5.607  0.0948 -0.6556 -0.4677
 3455TIP3    H110329   6.319   0.379   5.606  0.2321 -0.7367 -1.2631
 3455TIP3    H210330   6.208   0.307   5.680  0.0313  0.2161 -0.6253
 3456TIP3   OH210331   4.416   1.426   0.496 -0.1842 -0.1979 -1.2110
 3456TIP3    H110332   4.429   1.335   0.471  0.5067 -1.6512  3.3663
 3456TIP3    H210333   4.482   1.442   0.563 -2.0197  2.7648  0.1127
 3457TIP3   OH210334   0.109   1.771   0.275 -0.1395  0.6802 -0.2397
 3457TIP3    H110335   0.151   1.822   0.345 -0.4906  0.5167  0.0882
 3457TIP3    H210336   0.058   1.704   0.321  0.6347 -0.2278 -0.6725
 3458TIP3   OH210337   2.329   5.020   3.124  0.0235 -0.5899  0.2121
 3458TIP3    H110338   2.377   5.009   3.042 -0.1510 -0.0718  0.0327
 3458TIP3    H210339   2.380   5.084   3.173  0.0282 -0.7591  0.4277
 3459TIP3   OH210340   0.884   5.697   3.600  0.3126 -0.6130  0.6693
 3459TIP3    H110341   0.867   5.662   3.513  0.4397 -0.5396  0.6143
 3459TIP3    H210342   0.911   5.622   3.653 -1.0289 -0.8951  0.9902
 3460TIP3   OH210343   2.505   5.786   4.702  0.1675  0.0820  0.0984
 3460TIP3    H110344   2.434   5.826   4.652  1.3839  0.3805 -1.4632
 3460TIP3    H210345   2.543   5.722   4.642  2.1345  0.9424  0.3496
 3461TIP3   OH210346   1.243   3.632   3.440 -0.1653  0.5039  0.5239
 3461TIP3    H110347   1.192   3.591   3.509 -1.0818 -0.0756 -0.4699
 3461TIP3    H210348   1.188   3.704   3.408  0.7015  1.4437  1.0929
 3462TIP3   OH210349   4.330   2.322   5.337 -0.4285 -0.0310  0.2371
 3462TIP3    H110350   4.420   2.292   5.348 -0.5923 -1.3377 -1.6347
 3462TIP3    H210351   4.333   2.379   5.259 -0.6698  2.6440  2.0361
 3463TIP3   OH210352   1.902   1.693   3.697  0.0856 -0.2264  0.3125
 3463TIP3    H110353   1.983   1.714   3.745 -0.9878  1.7061  1.3980
 3463TIP3    H210354   1.899   1.758   3.627 -1.1347  0.5789  1.0724
 3464TIP3   OH210355   2.623   4.858   3.765 -0.3556 -0.1105 -0.5620
 3464TIP3    H110356   2.701   4.913   3.772  0.7277 -1.7150  0.4732
 3464TIP3    H210357   2.626   4.802   3.843 -2.7040 -0.0352 -0.3448
 3465TIP3   OH210358   4.925   6.456   5.065 -0.0023 -0.4119 -0.1038
 3465TIP3    H110359   4.892   6.484   4.980 -1.7196 -2.5131 -0.1969
 3465TIP3    H210360   5.016   6.433   5.050 -0.1164 -0.1544 -1.2277
 3466TIP3   OH210361   4.412   1.651   5.215  0.5916 -0.3047 -0.2154
 3466TIP3    H110362   4.361   1.587   5.167 -0.4300 -0.3890  0.9375
 3466TIP3    H210363   4.362   1.733   5.206  0.5698 -0.2474  0.4219
 3467TIP3   OH210364   5.177   4.003   5.123  0.3790 -0.0227  0.1187
 3467TIP3    H110365   5.141   4.090   5.107 -0.4419 -0.3755  0.0352
 3467TIP3    H210366   5.271   4.013   5.107  0.3279  0.9051  0.3517
 3468TIP3   OH210367   2.512   2.469   3.762 -0.1511 -0.1415 -0.1758
 3468TIP3    H110368   2.452   2.402   3.730 -0.7626  0.2260  0.1815
 3468TIP3    H210369   2.467   2.552   3.747 -0.4485  0.0552  1.5321
 3469TIP3   OH210370   2.949   2.806   5.549 -0.0969  0.0678 -0.3334
 3469TIP3    H110371   2.945   2.745   5.476 -0.2567 -0.0706 -0.2086
 3469TIP3    H210372   2.925   2.754   5.626  3.0936 -0.5872  0.3415
 3470TIP3   OH210373   0.403   3.931   5.094 -0.5834  0.7773  0.5800
 3470TIP3    H110374   0.446   3.909   5.012  0.9418 -0.5016  1.6604
 3470TIP3    H210375   0.394   4.026   5.092 -0.4076  0.7826 -0.9719
 3471TIP3   OH210376   2.132   4.135   0.999 -0.3497 -0.8544 -0.1518
 3471TIP3    H110377   2.036   4.131   1.006 -0.6029  1.6712 -0.9373
 3471TIP3    H210378   2.151   4.098   0.913 -0.8432  0.1362 -0.7150
 3472TIP3   OH210379   0.083   6.281   2.803  0.3208  0.7028  0.6248
 3472TIP3    H110380   0.080   6.189   2.828  1.9268  0.3832 -0.2400
 3472TIP3    H210381   0.175   6.298   2.782 -0.3761  1.7164 -2.0782
 3473TIP3   OH210382   6.756   0.520   2.980  0.1266 -0.4411 -0.0581
 3473TIP3    H110383   6.748   0.469   2.899 -0.0676  0.8108 -0.8544
 3473TIP3    H210384   6.772   0.609   2.950  1.1543 -0.1372  1.3089
 3474TIP3   OH210385   5.097   2.498   1.805  0.0831 -0.2919  0.1820
 3474TIP3    H110386   5.009   2.507   1.841  0.2796  0.7163  0.4335
 3474TIP3    H210387   5.126   2.587   1.789  0.7384 -0.6462 -0.7076
 3475TIP3   OH210388   5.894   2.688   1.571  1.1289 -0.0702 -0.1451
 3475TIP3    H110389   5.872   2.780   1.559 -1.0644 -0.4600  0.4868
 3475TIP3    H210390   5.901   2.653   1.482  0.8239  0.4627 -0.3822
 3476TIP3   OH210391   5.921   4.765   0.668  0.4107 -0.1141  0.0404
 3476TIP3    H110392   5.882   4.840   0.712  2.5419  1.1967 -0.1975
 3476TIP3    H210393   5.846   4.712   0.640 -1.1938  2.3234 -0.5358
 3477TIP3   OH210394   0.859   0.214   3.092 -0.5349 -0.2257 -0.0181
 3477TIP3    H110395   0.878   0.308   3.088 -2.3492  0.2202  0.9947
 3477TIP3    H210396   0.856   0.194   3.185  2.0645 -1.8456 -0.1550
 3478TIP3   OH210397   2.576   2.439   4.224 -0.0743  0.9068  0.6612
 3478TIP3    H110398   2.616   2.406   4.144 -0.6108 -1.7975  1.4020
 3478TIP3    H210399   2.488   2.467   4.197 -0.1803  0.2072  0.2603
 3479TIP3   OH210400   2.778   0.054   4.722 -0.1502 -0.4265  0.2821
 3479TIP3    H110401   2.710  -0.006   4.752  1.4432 -2.8739 -0.7430
 3479TIP3    H210402   2.777   0.046   4.627  1.3608 -0.2562  0.2396
 3480TIP3   OH210403   6.621   3.402   3.175 -0.4037  0.2458  0.2109
 3480TIP3    H110404   6.598   3.350   3.252  1.0072  0.5152  0.8582
 3480TIP3    H210405   6.573   3.484   3.187 -0.7818 -0.0054  0.4242
 3481TIP3   OH210406   3.267   5.731   3.442  0.3873 -0.3631  0.2491
 3481TIP3    H110407   3.315   5.806   3.475  0.1522  0.2704 -0.7866
 3481TIP3    H210408   3.219   5.697   3.517  1.8274 -0.5307  1.1189
 3482TIP3   OH210409   0.979   0.974   0.380 -0.6064  1.1041  0.0253
 3482TIP3    H110410   0.930   1.015   0.309 -0.1409  2.3943  0.4304
 3482TIP3    H210411   0.970   1.034   0.454  2.1449  1.7813 -0.0757
 3483TIP3   OH210412   6.189   4.237   4.663  0.2587 -0.1675 -0.2325
 3483TIP3    H110413   6.219   4.150   4.688 -0.8517 -0.6760 -0.5907
 3483TIP3    H210414   6.104   4.247   4.706 -1.0247 -0.4820 -2.4948
 3484TIP3   OH210415   2.872   3.772   2.120  0.4035 -0.2580  0.0379
 3484TIP3    H110416   2.943   3.822   2.159  1.7895 -0.8787 -1.5666
 3484TIP3    H210417   2.873   3.797   2.027 -1.2033 -0.6104 -0.1181
 3485TIP3   OH210418   6.441   6.428   2.211  0.0774 -0.1639 -0.2714
 3485TIP3    H110419   6.462   6.519   2.231 -1.0834 -0.1749  1.1141
 3485TIP3    H210420   6.367   6.433   2.151 -1.1443 -0.1619  1.1713
 3486TIP3   OH210421   5.112   4.988   2.013  0.2954 -0.2624 -0.5018
 3486TIP3    H110422   5.151   4.984   2.100  1.4686  1.3498 -0.9261
 3486TIP3    H210423   5.021   4.962   2.027  0.4615 -0.0275  1.1973
 3487TIP3   OH210424   4.628   6.215   0.062  0.0739  0.3818 -0.4232
 3487TIP3    H110425   4.546   6.252   0.096  0.3286  0.4412  0.1277
 3487TIP3    H210426   4.602   6.129   0.026  0.1406 -0.6420  1.8172
 3488TIP3   OH210427   5.184   3.465   5.077  0.3663 -0.2466  0.3243
 3488TIP3    H110428   5.256   3.516   5.115 -0.3371  0.7958  0.3003
 3488TIP3    H210429   5.112   3.475   5.140  0.0496 -0.7575  0.0490
 3489TIP3   OH210430   2.575   4.292   5.628  0.3442  0.1305  0.7618
 3489TIP3    H110431   2.515   4.251   5.690 -2.3078  0.1089 -1.5594
 3489TIP3    H210432   2.602   4.221   5.570 -0.9197  0.8200 -0.7641
 3490TIP3   OH210433   2.878   1.634   2.578  0.1147  0.6094  0.1678
 3490TIP3    H110434   2.858   1.540   2.577  0.9459  0.4215 -1.3685
 3490TIP3    H210435   2.866   1.660   2.670  0.2887 -1.0836  0.7008
 3491TIP3   OH210436   0.511   1.632   0.563 -0.1625  0.0520  1.1132
 3491TIP3    H110437   0.451   1.622   0.489  1.3152 -1.5554  0.0448
 3491TIP3    H210438   0.550   1.718   0.552  0.5511 -0.4369 -0.4375
 3492TIP3   OH210439   1.295   6.043   4.047  0.2300  0.0468  0.0131
 3492TIP3    H110440   1.297   5.955   4.084 -1.0172  0.1040  0.2352
 3492TIP3    H210441   1.370   6.045   3.987  0.5461 -1.0012  0.3486
 3493TIP3   OH210442   3.410   6.415   0.215 -0.4015  0.3693  0.3412
 3493TIP3    H110443   3.413   6.510   0.200  0.3622  0.3779  0.5153
 3493TIP3    H210444   3.492   6.395   0.259 -0.2761 -0.4738 -0.2527
 3494TIP3   OH210445   4.389   1.976   5.571 -0.1709 -0.1401  0.3318
 3494TIP3    H110446   4.440   2.018   5.640  1.2649 -1.9208  0.4299
 3494TIP3    H210447   4.434   1.999   5.490 -0.4269 -0.0326  0.2188
 3495TIP3   OH210448   5.780   5.086   3.656 -0.3645  0.3255 -0.3991
 3495TIP3    H110449   5.812   5.030   3.585 -1.2888 -1.2567  0.3568
 3495TIP3    H210450   5.702   5.040   3.689  0.9638  0.0950  2.7348
 3496TIP3   OH210451   5.111   2.446   3.657 -0.2490 -0.1478  0.2047
 3496TIP3    H110452   5.155   2.530   3.646 -0.8970  0.1364 -0.2047
 3496TIP3    H210453   5.132   2.397   3.577 -0.8910  0.0883 -0.1129
 3497TIP3   OH210454   1.990   2.151   0.117  0.1314 -0.3196 -0.5560
 3497TIP3    H110455   1.901   2.187   0.118 -0.0527 -0.6147  2.7303
 3497TIP3    H210456   1.979   2.060   0.089 -0.9485 -0.9100  1.5670
 3498TIP3   OH210457   3.695   5.992   1.423 -0.1279 -0.1543  0.0152
 3498TIP3    H110458   3.614   6.029   1.459 -0.1524 -0.7201  0.5742
 3498TIP3    H210459   3.715   5.919   1.482  1.0573  0.2722  0.1709
 3499TIP3   OH210460   6.219   1.733   0.387  0.6730 -0.1457 -0.0715
 3499TIP3    H110461   6.210   1.828   0.380  0.0400 -0.1575  0.4697
 3499TIP3    H210462   6.255   1.718   0.474 -0.6799 -0.4610  0.4671
 3500TIP3   OH210463   1.185   5.891   0.185  0.2425  0.0334  0.1580
 3500TIP3    H110464   1.259   5.871   0.242  0.1680 -0.7513 -0.0111
 3500TIP3    H210465   1.183   5.820   0.121  0.1621  0.7660 -0.6712
 3501TIP3   OH210466   0.319   3.658   2.640  0.4205  0.2481 -0.1679
 3501TIP3    H110467   0.288   3.713   2.712  3.4563  0.9071  0.7522
 3501TIP3    H210468   0.368   3.718   2.583 -0.8355 -0.5141 -2.1543
 3502TIP3   OH210469   1.060   0.598   4.829  0.2388 -0.3372  0.1889
 3502TIP3    H110470   1.018   0.646   4.757 -1.0095 -0.3931  0.8565
 3502TIP3    H210471   1.148   0.577   4.796 -0.2180 -0.1352 -1.2146
 3503TIP3   OH210472   4.444   0.214   5.396  0.6833 -0.1661 -0.8768
 3503TIP3    H110473   4.476   0.279   5.334  0.0639 -2.0300 -3.3400
 3503TIP3    H210474   4.353   0.199   5.370 -0.5541  1.0005  2.3806
 3504TIP3   OH210475   5.559   6.462   1.301 -0.5105  0.4764  0.4345
 3504TIP3    H110476   5.494   6.465   1.371 -0.5029 -0.7737  0.5039
 3504TIP3    H210477   5.511   6.490   1.223 -0.8945  0.4348  0.6558
 3505TIP3   OH210478   7.036   0.357   3.160  0.0897 -0.0304  0.4388
 3505TIP3    H110479   7.122   0.391   3.136  0.1130  0.3571  1.0493
 3505TIP3    H210480   7.015   0.295   3.091  0.2178  0.9415 -0.5068
 3506TIP3   OH210481   1.972   0.518   5.773 -0.3925  0.3327  0.5623
 3506TIP3    H110482   2.007   0.552   5.690  1.7748 -0.1240  1.2449
 3506TIP3    H210483   1.928   0.437   5.748 -0.0031  0.3338 -0.1716
 3507TIP3   OH210484   6.334   0.825   0.997 -0.2006  0.2185  0.7331
 3507TIP3    H110485   6.282   0.906   0.992 -1.8899 -0.7968  1.1038
 3507TIP3    H210486   6.417   0.848   0.956 -0.7257  2.0720  0.5923
 3508TIP3   OH210487   2.085   3.418   4.258 -0.0566  0.5215 -0.1108
 3508TIP3    H110488   2.119   3.398   4.345 -0.1192  0.3588 -0.1238
 3508TIP3    H210489   2.117   3.506   4.240  1.3399 -0.0571 -0.6082
 3509TIP3   OH210490   1.269   1.287   4.870 -0.1133 -0.3831 -0.2502
 3509TIP3    H110491   1.258   1.352   4.801 -1.6594 -0.1028  0.2340
 3509TIP3    H210492   1.353   1.245   4.850 -0.9429 -0.9804 -2.8709
 3510TIP3   OH210493   2.872   2.221   1.765 -0.1127  0.6513  0.0237
 3510TIP3    H110494   2.923   2.194   1.688 -1.6625  3.2494 -2.1085
 3510TIP3    H210495   2.791   2.171   1.758  0.3340 -0.2377  0.9152
 3511TIP3   OH210496   3.107   0.143   3.513 -0.2722  0.2503 -0.0830
 3511TIP3    H110497   3.021   0.143   3.554 -1.0745 -1.5810 -1.6279
 3511TIP3    H210498   3.145   0.058   3.535  0.0529  0.0051 -1.5047
 3512TIP3   OH210499   3.611   1.234   2.441 -0.0722  0.2161 -0.0617
 3512TIP3    H110500   3.705   1.247   2.430  0.9599 -2.8530  3.1564
 3512TIP3    H210501   3.583   1.191   2.361  1.3399  0.8263 -0.9175
 3513TIP3   OH210502   2.538   2.026   4.371 -0.0829 -0.8077 -0.1011
 3513TIP3    H110503   2.464   2.036   4.430  0.7409 -0.1539  0.8425
 3513TIP3    H210504   2.615   2.050   4.423  0.5691  0.9128 -1.7418
 3514TIP3   OH210505   0.500   2.194   5.148  0.2163 -0.8889  0.1435
 3514TIP3    H110506   0.416   2.219   5.188 -0.1015 -1.9372  0.1508
 3514TIP3    H210507   0.560   2.184   5.222  0.5946  0.6817  0.0846
 3515TIP3   OH210508   4.949   5.638   2.655  0.4194 -0.4714  0.3201
 3515TIP3    H110509   4.876   5.612   2.598  0.7847  0.9108 -0.8340
 3515TIP3    H210510   5.007   5.562   2.656  1.7233  0.2727 -3.3811
 3516TIP3   OH210511   0.050   1.275   1.699  0.5291 -0.3644  0.2621
 3516TIP3    H110512   0.109   1.337   1.656 -2.2188  1.1099 -1.7078
 3516TIP3    H210513   0.031   1.315   1.784  0.3491  0.4922 -0.1699
 3517TIP3   OH210514   2.982   5.290   4.693  0.3367  0.2868  0.4403
 3517TIP3    H110515   3.043   5.253   4.630 -1.1915 -1.6817 -0.0097
 3517TIP3    H210516   2.939   5.213   4.732 -2.2994  1.5325  0.2430
 3518TIP3   OH210517   6.612   5.695   1.282  0.1317 -0.2378 -0.0620
 3518TIP3    H110518   6.655   5.677   1.366 -0.4548 -0.7403  0.1362
 3518TIP3    H210519   6.682   5.688   1.217  0.4756 -0.4213  0.3232
 3519TIP3   OH210520   5.166   0.054   5.708  0.3398 -0.6258 -0.1007
 3519TIP3    H110521   5.144  -0.038   5.719 -2.1759 -0.1599 -0.7681
 3519TIP3    H210522   5.261   0.054   5.694  0.2974 -3.1809 -0.8446
 3520TIP3   OH210523   6.335   6.143   4.524 -0.1370 -0.1197  0.0880
 3520TIP3    H110524   6.430   6.130   4.519  0.1458  1.5891  0.3368
 3520TIP3    H210525   6.314   6.193   4.445 -0.3216  2.0781  1.4559
 3521TIP3   OH210526   4.893   6.113   5.728  0.2158 -0.1047  0.4052
 3521TIP3    H110527   4.916   6.177   5.660  0.3391 -0.5110  0.0566
 3521TIP3    H210528   4.969   6.111   5.786  0.5978 -0.5999 -0.0984
 3522TIP3   OH210529   0.658   1.814   5.787 -0.1239 -0.3609  0.2828
 3522TIP3    H110530   0.571   1.852   5.780 -0.9976 -2.3137 -0.1215
 3522TIP3    H210531   0.688   1.805   5.697  1.4054  2.1369  0.4556
 3523TIP3   OH210532   4.238   2.107   0.425 -0.1887  0.2341  0.1858
 3523TIP3    H110533   4.158   2.058   0.444  0.7503 -1.3328  0.2512
 3523TIP3    H210534   4.302   2.040   0.400  1.3469  1.3516  0.9347
 3524TIP3   OH210535   0.407   6.378   5.549  0.4110 -0.1221 -0.3712
 3524TIP3    H110536   0.476   6.314   5.563 -1.4284 -1.6521  3.0707
 3524TIP3    H210537   0.339   6.331   5.502 -0.1419 -0.1084  0.3960
 3525TIP3   OH210538   3.852   0.947   2.000  0.7316 -0.0123 -0.0575
 3525TIP3    H110539   3.906   0.953   1.921  0.3253  0.1357 -0.3243
 3525TIP3    H210540   3.837   0.853   2.011  1.6582 -0.1171  0.4408
 3526TIP3   OH210541   4.842   0.727   0.685 -0.0427 -0.3719 -0.6487
 3526TIP3    H110542   4.845   0.783   0.763  1.0090 -0.9997 -0.2150
 3526TIP3    H210543   4.797   0.780   0.619 -3.1548 -0.6686  1.0384
 3527TIP3   OH210544   5.727   6.675   3.396  0.4082 -0.1975  0.2910
 3527TIP3    H110545   5.642   6.661   3.439  1.7786 -3.4450  2.3527
 3527TIP3    H210546   5.720   6.627   3.314  0.3794 -0.9209  0.7044
 3528TIP3   OH210547   0.661   6.351   1.131  0.1700  0.3228 -0.6516
 3528TIP3    H110548   0.730   6.405   1.093 -1.3091  0.8247 -2.7860
 3528TIP3    H210549   0.648   6.280   1.068 -0.0430 -0.8138  0.6167
 3529TIP3   OH210550   5.778   4.205   1.343 -0.1385  0.2350  0.3525
 3529TIP3    H110551   5.788   4.121   1.386 -0.0794  0.3288  0.5220
 3529TIP3    H210552   5.828   4.196   1.261 -1.4651 -0.4490 -0.4184
 3530TIP3   OH210553   2.945   0.293   0.615  0.6883  0.1976  0.3028
 3530TIP3    H110554   2.915   0.384   0.623  0.7013  0.1275  1.2339
 3530TIP3    H210555   3.008   0.282   0.686 -0.5741 -1.0311  1.2838
 3531TIP3   OH210556   3.296   0.505   4.556 -0.2063 -0.2964 -0.1650
 3531TIP3    H110557   3.311   0.599   4.569 -0.1566 -0.4415  0.9090
 3531TIP3    H210558   3.383   0.470   4.534  0.2457 -0.4342  1.6839
 3532TIP3   OH210559   6.753   3.020   1.540  0.1927  0.1642 -0.0079
 3532TIP3    H110560   6.749   3.100   1.592 -1.9257 -0.1151  0.3187
 3532TIP3    H210561   6.670   2.976   1.556  0.3049 -0.9324 -2.0617
 3533TIP3   OH210562   5.751   1.866   3.489  0.0446  0.1159 -0.3503
 3533TIP3    H110563   5.701   1.800   3.536  0.1058 -0.2030 -0.7261
 3533TIP3    H210564   5.712   1.869   3.402  0.3325  0.2477 -0.4794
 3534TIP3   OH210565   0.877   1.988   5.762 -0.3044  0.3223  0.3336
 3534TIP3    H110566   0.862   1.991   5.668  0.8157  0.0293  0.1360
 3534TIP3    H210567   0.820   1.917   5.793  0.3165 -0.4883 -0.3376
 3535TIP3   OH210568   1.140   1.042   1.449 -0.3584 -0.6134 -0.3145
 3535TIP3    H110569   1.106   1.118   1.495  1.5251 -0.9267  1.7546
 3535TIP3    H210570   1.232   1.063   1.431  0.4423 -2.6344  1.0394
 3536TIP3   OH210571   6.823   2.914   1.872 -0.6426  0.3981 -0.1756
 3536TIP3    H110572   6.844   2.824   1.893 -1.8618  0.1847  0.1834
 3536TIP3    H210573   6.777   2.909   1.788 -0.3797  0.7282 -0.3426
 3537TIP3   OH210574   5.048   3.190   0.828  0.1416 -0.0614  0.0867
 3537TIP3    H110575   5.096   3.263   0.866  0.3039 -0.7142  1.1612
 3537TIP3    H210576   4.957   3.203   0.857  0.3168 -0.7135  0.9714
 3538TIP3   OH210577   1.785   0.463   1.038 -0.1237 -0.3760 -0.5648
 3538TIP3    H110578   1.689   0.467   1.041 -0.1049 -0.4699  0.4623
 3538TIP3    H210579   1.808   0.501   0.953 -1.0706 -0.4260 -0.8590
 3539TIP3   OH210580   6.863   2.815   3.929 -0.1973  0.0081  0.3310
 3539TIP3    H110581   6.957   2.832   3.920 -0.1738 -0.6878 -1.2020
 3539TIP3    H210582   6.822   2.879   3.871 -0.6176 -0.1717  0.4282
 3540TIP3   OH210583   4.034   6.169   4.543 -0.1066 -0.3494  0.4940
 3540TIP3    H110584   4.010   6.217   4.623 -1.2773 -0.8085  0.4466
 3540TIP3    H210585   4.053   6.080   4.574  3.4402  0.3872  0.7757
 3541TIP3   OH210586   5.138   6.716   5.838 -0.1037  0.1718 -0.0251
 3541TIP3    H110587   5.156   6.622   5.833  0.3922  0.0563  2.7490
 3541TIP3    H210588   5.044   6.721   5.855 -0.3445  0.2653 -1.2715
 3542TIP3   OH210589   3.154   3.794   3.357 -0.0038 -0.2945  0.2366
 3542TIP3    H110590   3.072   3.805   3.406 -0.1064 -0.0934  0.0240
 3542TIP3    H210591   3.185   3.707   3.382 -0.4484 -0.5015  0.0776
 3543TIP3   OH210592   6.558   4.865   5.188 -0.3849 -0.2928 -0.4102
 3543TIP3    H110593   6.629   4.919   5.224 -1.5028  1.8790 -1.2597
 3543TIP3    H210594   6.571   4.868   5.094 -0.0113 -2.2907 -0.4748
 3544TIP3   OH210595   6.890   5.040   0.858  0.1886 -0.9781  0.1611
 3544TIP3    H110596   6.843   4.967   0.817  0.1356 -0.4933 -0.6675
 3544TIP3    H210597   6.834   5.067   0.931 -0.5863 -0.7468 -0.4967
 3545TIP3   OH210598   1.240   1.816   3.584  0.2339 -0.1520 -0.5243
 3545TIP3    H110599   1.298   1.881   3.623 -0.4342  0.4372 -0.4799
 3545TIP3    H210600   1.152   1.844   3.610  0.0129 -2.0278  0.9186
 3546TIP3   OH210601   5.565   6.081   4.141  0.2823 -0.1075 -0.3984
 3546TIP3    H110602   5.624   6.050   4.073  1.1156 -0.2595  0.3755
 3546TIP3    H210603   5.582   6.025   4.216  1.4619  1.8217  0.8787
 3547TIP3   OH210604   3.228   2.831   0.025  0.5124 -0.6707  0.0539
 3547TIP3    H110605   3.259   2.875   0.105 -0.3115 -0.8683  0.4975
 3547TIP3    H210606   3.297   2.768   0.005  2.0706  1.2371 -0.9933
 3548TIP3   OH210607   4.719   5.306   4.471  0.2719  0.1383 -0.3417
 3548TIP3    H110608   4.796   5.293   4.526  0.0424 -0.8375 -0.2410
 3548TIP3    H210609   4.752   5.351   4.393  0.8045  0.4197  0.0437
 3549TIP3   OH210610   2.650   6.651   3.934  0.2115  0.7406 -0.0528
 3549TIP3    H110611   2.596   6.707   3.878 -0.9449 -1.4256 -1.2443
 3549TIP3    H210612   2.677   6.707   4.006 -0.9606  2.7712 -1.1116
 3550TIP3   OH210613   5.476   6.640   0.285 -0.1362  0.1215 -0.1616
 3550TIP3    H110614   5.526   6.689   0.350 -0.5051 -0.2556  0.4166
 3550TIP3    H210615   5.409   6.702   0.256 -0.1647  0.1957  0.0532
 3551TIP3   OH210616   4.249   6.778   4.501 -0.1680  0.7193 -0.1527
 3551TIP3    H110617   4.270   6.692   4.538 -0.1467 -0.0151 -1.7859
 3551TIP3    H210618   4.294   6.840   4.558 -2.4229 -0.0827  2.7248
 3552TIP3   OH210619   1.432   4.528   4.023 -0.1450  0.2999  0.0985
 3552TIP3    H110620   1.432   4.468   3.949  2.8169  0.6796 -0.3173
 3552TIP3    H210621   1.456   4.473   4.098 -1.5658  0.2298  0.5388
 3553TIP3   OH210622   4.574   4.625   2.914 -0.0499  0.6357  0.0538
 3553TIP3    H110623   4.630   4.631   2.991  2.2371 -0.5446 -1.3915
 3553TIP3    H210624   4.612   4.687   2.852 -1.8956  1.6196 -0.1518
 3554TIP3   OH210625   5.114   3.201   3.758 -0.2065 -0.0300 -0.1535
 3554TIP3    H110626   5.168   3.138   3.806  3.8315  1.3896 -2.4269
 3554TIP3    H210627   5.106   3.275   3.818  0.1149 -0.3829  0.3367
 3555TIP3   OH210628   5.551   6.153   3.028  0.0252  0.0767  0.5304
 3555TIP3    H110629   5.616   6.085   3.047  0.2498  0.1105 -0.0952
 3555TIP3    H210630   5.470   6.118   3.064  0.2648 -0.2365  0.7840
 3556TIP3   OH210631   3.441   6.309   3.849  0.6160 -0.1999 -0.5301
 3556TIP3    H110632   3.421   6.216   3.860  0.0510 -0.0036  0.2329
 3556TIP3    H210633   3.493   6.331   3.927  3.2320 -0.5068 -2.0647
 3557TIP3   OH210634   4.224   1.511   3.921  0.3067  0.3216  0.3092
 3557TIP3    H110635   4.169   1.553   3.854  2.6208  3.4178  0.1033
 3557TIP3    H210636   4.272   1.444   3.874 -0.1348  0.5528 -0.4979
 3558TIP3   OH210637   7.134   2.592   3.093 -0.3632  0.5323 -0.2813
 3558TIP3    H110638   7.150   2.630   3.006  0.8227  0.8662  0.0610
 3558TIP3    H210639   7.192   2.516   3.097 -0.8843  0.1483 -0.0163
 3559TIP3   OH210640   4.888   1.524   3.423  0.5257 -0.5718 -0.0246
 3559TIP3    H110641   4.935   1.450   3.385  0.5335 -0.6629  0.1590
 3559TIP3    H210642   4.874   1.499   3.514  0.3077 -0.4537 -0.0251
 3560TIP3   OH210643   2.540   6.683   1.440 -0.3255 -0.5875 -0.3570
 3560TIP3    H110644   2.598   6.726   1.502 -1.7254  0.8318  0.0530
 3560TIP3    H210645   2.566   6.719   1.355  0.0319 -0.7056 -0.2990
 3561TIP3   OH210646   6.252   4.766   3.609 -0.6797  0.4257 -0.1164
 3561TIP3    H110647   6.338   4.793   3.641 -1.0582 -0.1163  1.4770
 3561TIP3    H210648   6.217   4.844   3.565  0.7998  0.4962 -1.2138
 3562TIP3   OH210649   5.326   6.727   4.757  0.1192  0.3361 -0.4980
 3562TIP3    H110650   5.367   6.689   4.835 -0.7669 -0.5914 -0.4621
 3562TIP3    H210651   5.375   6.807   4.741  2.8167 -1.3014 -1.1940
 3563TIP3   OH210652   2.905   1.919   3.227 -0.1722  0.3841 -0.2605
 3563TIP3    H110653   2.959   1.844   3.249  0.2410  0.8440  0.3289
 3563TIP3    H210654   2.876   1.903   3.137  0.3077 -0.2405 -0.3038
 3564TIP3   OH210655   4.543   0.126   4.197 -0.5890  0.5028  0.3434
 3564TIP3    H110656   4.461   0.161   4.161 -2.5628 -0.8216  3.1687
 3564TIP3    H210657   4.558   0.179   4.275  1.2703  0.6682 -0.0928
 3565TIP3   OH210658   5.839   1.817   0.348  0.1844  0.2249 -0.5789
 3565TIP3    H110659   5.832   1.726   0.374  1.7461  0.6694  1.7129
 3565TIP3    H210660   5.821   1.866   0.429 -0.3121  1.9459 -1.6804
 3566TIP3   OH210661   0.094   6.123   4.322  0.0840 -0.1798 -0.3951
 3566TIP3    H110662   0.025   6.071   4.281 -0.2980 -0.3633  0.4685
 3566TIP3    H210663   0.176   6.083   4.291 -0.1551  0.5495 -2.0840
 3567TIP3   OH210664   1.368   1.091   3.081 -0.9670 -0.1800  0.0506
 3567TIP3    H110665   1.393   1.131   2.997  1.3625  0.0309  0.7770
 3567TIP3    H210666   1.364   1.165   3.142  2.0719 -0.7853  1.1193
 3568TIP3   OH210667   5.056   0.770   0.326 -0.0594 -0.1327 -0.4089
 3568TIP3    H110668   5.124   0.703   0.328  1.0481  0.9517  0.6281
 3568TIP3    H210669   5.097   0.844   0.281 -0.4484  0.6380  0.4685
 3569TIP3   OH210670   3.601   0.742   4.333 -0.1925 -0.1089  0.3884
 3569TIP3    H110671   3.627   0.699   4.415 -0.3368 -1.3309 -0.1824
 3569TIP3    H210672   3.536   0.683   4.295 -1.0301  1.0450 -0.0336
 3570TIP3   OH210673   4.963   0.511   0.083 -0.0017  0.6898 -0.3730
 3570TIP3    H110674   4.913   0.514   0.165 -0.0083  1.2062 -0.3915
 3570TIP3    H210675   4.993   0.601   0.070  0.9274  0.3913 -0.3674
 3571TIP3   OH210676   0.837   0.790   0.810  0.3100 -0.7350 -0.3191
 3571TIP3    H110677   0.876   0.727   0.871  0.3608  0.7048  1.2201
 3571TIP3    H210678   0.899   0.862   0.807  0.3125 -0.7621 -2.1495
 3572TIP3   OH210679   4.138   0.484   3.975 -0.0183  0.1977  0.2690
 3572TIP3    H110680   4.064   0.539   4.004 -0.1748  0.1078  0.0413
 3572TIP3    H210681   4.109   0.447   3.892  0.5165  0.6222 -0.1139
 3573TIP3   OH210682   4.699   1.075   2.419  0.0026  0.0858  0.0660
 3573TIP3    H110683   4.761   1.145   2.398  0.0600  0.7353  2.1119
 3573TIP3    H210684   4.740   0.995   2.385  0.7722  0.8164 -0.7684
 3574TIP3   OH210685   2.920   4.437   4.786  0.5945 -0.0878  0.3100
 3574TIP3    H110686   2.913   4.367   4.722 -0.4636  1.6353 -1.6004
 3574TIP3    H210687   3.010   4.469   4.778  0.1178  0.9610 -1.3561
 3575TIP3   OH210688   2.498   3.091   4.043 -0.0518 -0.4705 -0.0123
 3575TIP3    H110689   2.447   3.173   4.039  1.3630  0.6329  2.4712
 3575TIP3    H210690   2.462   3.044   4.118  1.9611 -0.0318  1.3049
 3576TIP3   OH210691   3.840   5.987   0.251  0.5411 -0.0286 -0.1731
 3576TIP3    H110692   3.844   5.959   0.342 -0.0315  0.0675 -0.1149
 3576TIP3    H210693   3.749   6.017   0.239  0.5348 -0.3044 -0.8491
 3577TIP3   OH210694   3.239   2.946   5.340 -0.0064  0.5333  0.0370
 3577TIP3    H110695   3.319   2.999   5.342 -0.7664  1.8567 -1.8922
 3577TIP3    H210696   3.186   2.981   5.411 -0.7235  2.8772 -1.5304
 3578TIP3   OH210697   2.871   5.329   4.106  0.3781 -0.2759  0.6397
 3578TIP3    H110698   2.796   5.346   4.162 -0.7646  0.1488 -0.9491
 3578TIP3    H210699   2.900   5.415   4.077  0.7584 -0.5045  0.3208
 3579TIP3   OH210700   6.244   5.880   0.406 -0.0226 -0.2537  0.2446
 3579TIP3    H110701   6.278   5.856   0.320 -3.7692  1.8760 -2.0930
 3579TIP3    H210702   6.298   5.954   0.434  1.1061 -0.8507 -0.3204
 3580TIP3   OH210703   4.774   0.284   5.177 -0.3180 -0.4305  0.1150
 3580TIP3    H110704   4.716   0.213   5.150 -0.3359 -0.1974 -0.4800
 3580TIP3    H210705   4.716   0.349   5.218 -0.2086 -1.0641  1.3077
 3581TIP3   OH210706   3.558   3.270   1.997 -0.0201  0.3186  0.0149
 3581TIP3    H110707   3.637   3.302   1.954 -0.2151 -0.4662 -0.9533
 3581TIP3    H210708   3.494   3.263   1.927 -0.7522  0.2926  0.6758
 3582TIP3   OH210709   5.803   0.960   4.826 -0.2181  0.3120  0.4342
 3582TIP3    H110710   5.780   0.912   4.905  0.8571 -0.1515  0.4858
 3582TIP3    H210711   5.899   0.959   4.824 -0.2158  0.2124 -0.9229
 3583TIP3   OH210712   6.946   0.454   3.721  0.1122  0.1391  0.1873
 3583TIP3    H110713   6.884   0.384   3.741  0.2929  0.0987  0.6083
 3583TIP3    H210714   6.971   0.489   3.806 -1.1821  1.7833 -0.0575
 3584TIP3   OH210715   2.015   2.321   1.259 -0.3528  0.0673 -0.0628
 3584TIP3    H110716   2.110   2.334   1.262 -0.2692 -0.4478 -0.3271
 3584TIP3    H210717   2.001   2.236   1.301 -0.7226  0.2631  0.2159
 3585TIP3   OH210718   3.601   0.975   2.312 -0.5139 -0.3550  0.3067
 3585TIP3    H110719   3.528   0.924   2.348 -0.9927 -0.9910 -1.4267
 3585TIP3    H210720   3.675   0.955   2.368 -1.0111 -1.9728  0.4424
 3586TIP3   OH210721   1.908   2.299   0.759  0.2253 -0.4094 -0.3977
 3586TIP3    H110722   1.975   2.340   0.813 -0.3045  0.6341 -0.4983
 3586TIP3    H210723   1.874   2.371   0.705 -0.0422 -1.1980 -1.3001
 3587TIP3   OH210724   6.457   3.180   5.400 -0.1315 -0.4538 -0.2506
 3587TIP3    H110725   6.433   3.104   5.453 -1.1852  0.0482  0.0249
 3587TIP3    H210726   6.544   3.204   5.431 -0.8736  0.0828  1.6077
 3588TIP3   OH210727   1.664   0.137   0.806 -0.7595  0.3964 -0.6434
 3588TIP3    H110728   1.744   0.109   0.761  0.8833  1.3617  1.4218
 3588TIP3    H210729   1.623   0.199   0.747  1.0681  1.2932 -1.0377
 3589TIP3   OH210730   5.296   1.471   2.592  0.3164 -0.3842  0.9150
 3589TIP3    H110731   5.318   1.488   2.683 -0.0373 -0.6097  1.0455
 3589TIP3    H210732   5.330   1.383   2.574 -1.2003 -1.0955  1.3750
 3590TIP3   OH210733   5.430   0.088   4.114 -0.3926  0.3654  0.5479
 3590TIP3    H110734   5.488   0.159   4.086  0.1270 -0.1509  0.2917
 3590TIP3    H210735   5.477   0.045   4.185  0.3153 -1.0736 -0.7303
 3591TIP3   OH210736   4.519   5.276   0.994  0.1483  0.6315  0.2246
 3591TIP3    H110737   4.609   5.242   0.997  0.2838  1.0174  2.0583
 3591TIP3    H210738   4.479   5.232   0.919  1.0367 -1.7638  1.0635
 3592TIP3   OH210739   2.267   4.858   4.646  0.2979 -0.1782 -0.5018
 3592TIP3    H110740   2.362   4.866   4.654  0.0744  2.2967  0.6030
 3592TIP3    H210741   2.253   4.830   4.555  2.0585  1.2431 -1.2786
 3593TIP3   OH210742   0.069   5.360   1.708  0.3476 -0.8548 -0.2319
 3593TIP3    H110743   0.073   5.283   1.651  2.7398 -0.7104 -0.3681
 3593TIP3    H210744   0.134   5.342   1.776 -0.6432  0.1017  1.0279
 3594TIP3   OH210745   2.733   5.451   4.743 -0.2826 -0.0226  0.5270
 3594TIP3    H110746   2.732   5.535   4.697  1.2035 -0.2909 -0.0736
 3594TIP3    H210747   2.814   5.409   4.713 -1.4558 -2.0955  0.0748
 3595TIP3   OH210748   5.777   3.181   4.840 -0.4937 -0.6514 -0.4468
 3595TIP3    H110749   5.699   3.188   4.895 -0.7244 -2.1749 -0.5470
 3595TIP3    H210750   5.758   3.239   4.766 -1.7915 -1.3838 -0.7292
 3596TIP3   OH210751   3.899   1.626   3.460  0.4363 -1.3016  0.0240
 3596TIP3    H110752   3.917   1.562   3.391  1.5700 -0.9480 -0.0237
 3596TIP3    H210753   3.912   1.711   3.417 -2.4185 -0.9347 -0.3138
 3597TIP3   OH210754   0.867   4.128   1.503  0.4817 -0.2663 -0.5446
 3597TIP3    H110755   0.840   4.100   1.416 -0.6972 -1.9882  0.2972
 3597TIP3    H210756   0.821   4.067   1.562  0.2494  1.6171  1.3197
 3598TIP3   OH210757   5.218   1.400   4.347  0.4789  0.1692  0.4831
 3598TIP3    H110758   5.288   1.337   4.330  0.8943  0.2448  1.8177
 3598TIP3    H210759   5.166   1.399   4.267 -0.3435 -2.9096  0.9379
 3599TIP3   OH210760   1.159   5.836   5.393 -0.2559  0.1255  0.1652
 3599TIP3    H110761   1.235   5.820   5.337  0.2926 -1.5717  1.3123
 3599TIP3    H210762   1.160   5.931   5.408 -0.6671  0.7263 -2.9305
 3600TIP3   OH210763   2.997   3.312   1.198  0.2123  0.1325  0.4994
 3600TIP3    H110764   2.980   3.310   1.104 -1.1281  0.1003  0.7286
 3600TIP3    H210765   3.052   3.236   1.214 -3.0466 -2.4535  0.3485
 3601TIP3   OH210766   2.210   4.594   4.132 -0.2212 -0.5294  0.0589
 3601TIP3    H110767   2.156   4.545   4.193  0.3239 -0.5957  0.5002
 3601TIP3    H210768   2.246   4.666   4.184 -0.6177  0.0545 -0.4582
 3602TIP3   OH210769   3.591   6.566   3.962 -0.5939  0.3871 -0.1339
 3602TIP3    H110770   3.613   6.643   3.909  0.7758 -0.1279 -0.3675
 3602TIP3    H210771   3.584   6.600   4.052  0.3879  0.7303 -0.1776
 3603TIP3   OH210772   6.444   4.507   5.503 -0.4168 -0.2448  0.2292
 3603TIP3    H110773   6.383   4.492   5.575 -0.7076  0.5911  0.1667
 3603TIP3    H210774   6.466   4.419   5.471 -0.5317 -0.6063  1.1260
 3604TIP3   OH210775   6.216   2.287   3.753  0.0538 -0.3152  0.2832
 3604TIP3    H110776   6.199   2.355   3.818  0.8188 -0.8392  1.0595
 3604TIP3    H210777   6.247   2.213   3.804  1.8493 -0.3423 -0.7711
 3605TIP3   OH210778   0.423  -0.010   2.425  0.7009  0.0710 -0.3031
 3605TIP3    H110779   0.419   0.070   2.372  1.8918 -0.1853 -0.8248
 3605TIP3    H210780   0.457   0.020   2.509  0.2119  0.2571 -0.1685
 3606TIP3   OH210781   0.281   5.294   3.663 -0.6597  0.0325 -0.6162
 3606TIP3    H110782   0.348   5.314   3.728 -0.0630 -2.1373 -0.4673
 3606TIP3    H210783   0.203   5.339   3.694  0.1462  0.7641  0.4384
 3607TIP3   OH210784   2.673   6.631   0.241 -0.5178  0.1304 -0.4282
 3607TIP3    H110785   2.763   6.661   0.226 -1.4923  2.8255 -1.4641
 3607TIP3    H210786   2.650   6.664   0.328 -1.1695  1.3630 -1.0419
 3608TIP3   OH210787   5.585   2.944   2.554 -0.1011 -0.1875  0.5500
 3608TIP3    H110788   5.498   2.975   2.580 -0.0375  1.7803 -1.3105
 3608TIP3    H210789   5.569   2.864   2.505 -0.6383 -0.9993  1.9860
 3609TIP3   OH210790   4.091   4.657   3.434 -0.2865  0.5354  0.0823
 3609TIP3    H110791   4.063   4.656   3.342  1.3455  1.4750 -0.4734
 3609TIP3    H210792   4.186   4.667   3.430 -0.1135  0.0009  1.8894
 3610TIP3   OH210793   1.775   4.023   4.073 -0.1282  0.4858  0.0033
 3610TIP3    H110794   1.787   4.025   4.168 -1.3391  0.9346  0.1679
 3610TIP3    H210795   1.808   4.107   4.043 -2.3369  1.5818  0.4129
 3611TIP3   OH210796   5.889   6.121   3.052  0.0008 -0.7318 -0.4694
 3611TIP3    H110797   5.916   6.100   2.963  1.3420 -2.1897  0.2313
 3611TIP3    H210798   5.860   6.037   3.089  1.4476 -0.6044  1.0910
 3612TIP3   OH210799   4.747   2.319   0.157 -0.1013 -0.3247  0.5188
 3612TIP3    H110800   4.810   2.247   0.149  0.6453  0.3723 -0.0572
 3612TIP3    H210801   4.715   2.313   0.247  2.3086  0.5109  1.5243
 3613TIP3   OH210802   7.201   1.853   3.444 -0.3785 -0.2054  0.3810
 3613TIP3    H110803   7.287   1.867   3.404 -0.3556 -0.0736  0.4772
 3613TIP3    H210804   7.140   1.899   3.386 -0.4332 -0.6267  0.0952
 3614TIP3   OH210805   1.627   0.873   5.571  0.0386 -0.3584  0.4074
 3614TIP3    H110806   1.684   0.797   5.584 -0.3732 -0.5128  1.5163
 3614TIP3    H210807   1.540   0.840   5.594 -0.1463  0.4439  0.8869
 3615TIP3   OH210808   5.817   1.511   3.901 -0.1544  0.0160 -0.1575
 3615TIP3    H110809   5.878   1.449   3.941  0.5162  0.4409 -0.5035
 3615TIP3    H210810   5.823   1.495   3.807 -2.4477 -1.6540 -0.1171
 3616TIP3   OH210811   5.847   5.390   1.153 -0.0311  0.1099  0.2508
 3616TIP3    H110812   5.884   5.353   1.233  0.8492 -0.5511 -0.4374
 3616TIP3    H210813   5.822   5.479   1.177 -2.9437 -1.0822  2.1639
 3617TIP3   OH210814   0.409   2.434   4.254  0.3571 -0.4949  0.2855
 3617TIP3    H110815   0.377   2.510   4.207 -1.8060 -1.7737 -0.4525
 3617TIP3    H210816   0.365   2.437   4.339 -2.1439 -2.4018 -0.8303
 3618TIP3   OH210817   6.954   4.408   4.668 -0.6391  0.5307 -0.0465
 3618TIP3    H110818   6.993   4.339   4.614 -1.5857 -1.0725  1.2334
 3618TIP3    H210819   7.020   4.477   4.668  0.4843 -0.4707 -1.1362
 3619TIP3   OH210820   5.670   1.199   2.901  0.5682 -0.1268  0.1051
 3619TIP3    H110821   5.731   1.224   2.971 -1.1915 -1.8314  2.4221
 3619TIP3    H210822   5.668   1.274   2.842  1.8288  1.5925  2.1135
 3620TIP3   OH210823   6.573   4.863   1.898 -0.0520 -0.0202 -0.1250
 3620TIP3    H110824   6.477   4.869   1.901  0.0374  1.1793  2.7415
 3620TIP3    H210825   6.598   4.829   1.984  2.0556 -2.4809 -1.5700
 3621TIP3   OH210826   4.511   2.658   1.643 -0.7982  0.1709 -0.4679
 3621TIP3    H110827   4.479   2.674   1.554  0.4371  0.2958 -0.9201
 3621TIP3    H210828   4.542   2.743   1.673 -0.9422  0.0713 -0.0276
 3622TIP3   OH210829   6.298   4.810   1.214  0.7790 -0.7235  0.6695
 3622TIP3    H110830   6.264   4.723   1.231 -0.8042 -0.3171 -0.2267
 3622TIP3    H210831   6.335   4.805   1.125 -1.1615 -0.0132 -0.2327
 3623TIP3   OH210832   2.907   2.367   0.179 -0.4757 -0.1829 -0.5179
 3623TIP3    H110833   2.832   2.343   0.124 -0.9786  1.0521 -0.4081
 3623TIP3    H210834   2.937   2.451   0.143 -1.0056  0.8205  1.2285
 3624TIP3   OH210835   0.155   2.518   5.561 -0.3496  0.0046 -0.0168
 3624TIP3    H110836   0.224   2.540   5.498  0.7378  0.6526  1.3706
 3624TIP3    H210837   0.169   2.425   5.580 -0.5872 -0.1551 -0.5691
 3625TIP3   OH210838   4.812   2.757   3.817 -0.0561  0.3790 -0.3069
 3625TIP3    H110839   4.799   2.830   3.756 -0.2729  1.6076  1.1328
 3625TIP3    H210840   4.723   2.734   3.845  0.0899  0.7378  0.5113
 3626TIP3   OH210841   7.070   6.408   1.540  0.1517  0.3284  0.3812
 3626TIP3    H110842   7.015   6.463   1.595 -1.2829 -1.0755  0.4133
 3626TIP3    H210843   7.026   6.323   1.539  0.3056  0.1877 -2.6210
 3627TIP3   OH210844   0.776   5.210   5.336  0.6908  0.1580  0.1448
 3627TIP3    H110845   0.847   5.274   5.333  0.3474  0.5764 -3.3566
 3627TIP3    H210846   0.697   5.262   5.320  0.0033 -0.7684  0.4421
 3628TIP3   OH210847   0.930   4.488   5.466 -0.1233  0.3328 -0.7802
 3628TIP3    H110848   0.921   4.582   5.455 -1.7219  0.0633 -2.0962
 3628TIP3    H210849   0.920   4.452   5.378 -0.7768 -1.1479 -0.1343
 3629TIP3   OH210850   3.207   6.273   1.616 -0.1085  0.0917 -0.0033
 3629TIP3    H110851   3.240   6.284   1.527  0.8611  0.7473  0.4176
 3629TIP3    H210852   3.112   6.269   1.606 -0.0308  0.4780 -1.0318
 3630TIP3   OH210853   4.714   2.014   1.797 -0.1981 -0.4953  0.2349
 3630TIP3    H110854   4.695   1.943   1.736 -0.7480 -0.2720  0.1381
 3630TIP3    H210855   4.793   2.055   1.762 -0.6141 -0.2570 -0.4339
 3631TIP3   OH210856   0.885   1.859   5.190 -0.0257 -0.1031 -0.2046
 3631TIP3    H110857   0.969   1.816   5.175  0.6918  0.2974  2.1964
 3631TIP3    H210858   0.883   1.931   5.126  1.7963  0.3095  0.1547
 3632TIP3   OH210859   6.713   2.586   1.364 -0.8436 -0.0432 -0.6285
 3632TIP3    H110860   6.653   2.576   1.438  0.8957  0.3605  0.9175
 3632TIP3    H210861   6.797   2.554   1.397  0.0615  0.4464 -2.3476
 3633TIP3   OH210862   3.878   5.544   5.450  0.0407 -0.5304  0.1506
 3633TIP3    H110863   3.897   5.636   5.472  0.3881 -0.1924 -1.4566
 3633TIP3    H210864   3.927   5.494   5.516 -2.8968  0.3540  3.2812
 3634TIP3   OH210865   3.260   4.540   3.002 -0.6138  0.1936 -0.2089
 3634TIP3    H110866   3.309   4.462   2.978 -0.3327  0.1686  0.4379
 3634TIP3    H210867   3.186   4.508   3.054 -0.3767  0.3725  0.2444
 3635TIP3   OH210868   4.434   1.134   3.368  0.2378 -0.0591  0.3448
 3635TIP3    H110869   4.514   1.173   3.404  0.0208  0.9609 -0.2574
 3635TIP3    H210870   4.438   1.154   3.275 -0.4781 -0.4414  0.2278
 3636TIP3   OH210871   0.904   1.450   3.161  0.1118  0.5699 -0.1728
 3636TIP3    H110872   0.856   1.439   3.243  2.3044 -0.2782  1.0490
 3636TIP3    H210873   0.868   1.382   3.104  0.3645 -0.5493  0.9688
 3637TIP3   OH210874   1.114   2.880   3.968 -0.1680  0.2610  0.5336
 3637TIP3    H110875   1.087   2.826   4.042 -1.8080 -0.0895 -0.2764
 3637TIP3    H210876   1.035   2.926   3.941  0.5331  0.8511 -0.6212
 3638TIP3   OH210877   7.089   4.172   3.172  0.3822 -0.1900  0.2733
 3638TIP3    H110878   6.999   4.143   3.158 -0.1547  1.6612 -0.4303
 3638TIP3    H210879   7.099   4.175   3.267 -0.7550  0.8068  0.3858
 3639TIP3   OH210880   0.940   2.431   3.153  0.4701  0.0965  0.6097
 3639TIP3    H110881   1.025   2.471   3.133  0.7504  0.3451  2.1824
 3639TIP3    H210882   0.959   2.338   3.164  0.0964 -0.2673 -1.4033
 3640TIP3   OH210883   5.155   2.730   5.383  0.2407 -0.2336  0.4325
 3640TIP3    H110884   5.164   2.708   5.291  0.7235 -0.2284  0.4774
 3640TIP3    H210885   5.113   2.817   5.383 -1.0646 -0.8419  0.2512
 3641TIP3   OH210886   2.598   6.625   3.573 -0.3678  0.6316 -0.1356
 3641TIP3    H110887   2.596   6.581   3.488 -0.9438 -0.1619  0.2795
 3641TIP3    H210888   2.558   6.563   3.634  3.5120 -0.4800  1.5517
 3642TIP3   OH210889   3.913   1.039   5.785  0.2048  0.1714 -0.8496
 3642TIP3    H110890   3.981   1.106   5.780  0.2917  0.4362  2.1567
 3642TIP3    H210891   3.851   1.073   5.849 -1.7040 -1.0226 -1.9526
 3643TIP3   OH210892   0.487   2.668   1.613 -0.1198 -0.3482 -0.1440
 3643TIP3    H110893   0.446   2.583   1.597  2.4682 -1.9592  1.1090
 3643TIP3    H210894   0.556   2.674   1.547  1.9265 -0.8924  1.8191
 3644TIP3   OH210895   6.746   1.389   4.750 -0.6071 -0.1224  0.5529
 3644TIP3    H110896   6.748   1.325   4.679 -0.2709  0.2684  0.2063
 3644TIP3    H210897   6.677   1.358   4.808 -2.5314  0.8401 -1.1178
 3645TIP3   OH210898   0.612   5.895   4.551 -0.3377  0.2217  0.3544
 3645TIP3    H110899   0.599   5.816   4.499 -0.6239  1.4486 -1.5592
 3645TIP3    H210900   0.705   5.917   4.537 -0.4564  0.6429  0.2122
 3646TIP3   OH210901   0.903   2.678   4.044 -0.4800 -0.5484 -0.1279
 3646TIP3    H110902   0.937   2.728   4.118 -1.9224  0.0079  0.1901
 3646TIP3    H210903   0.942   2.591   4.055  1.4038  0.2169 -0.2217
 3647TIP3   OH210904   1.036   5.188   5.039  0.3574 -0.1804 -0.6258
 3647TIP3    H110905   0.940   5.188   5.039  0.3497  0.3210 -0.2029
 3647TIP3    H210906   1.060   5.128   5.109  0.3094  1.2802  0.7139
 3648TIP3   OH210907   1.803   4.866   3.772  0.3159 -0.1717 -0.3644
 3648TIP3    H110908   1.762   4.853   3.858  0.4093 -1.2682 -0.4656
 3648TIP3    H210909   1.764   4.946   3.738 -0.8486 -0.5317  0.0681
 3649TIP3   OH210910   6.420   2.913   5.471  0.5034 -0.0209  0.3258
 3649TIP3    H110911   6.326   2.930   5.479  0.5481  0.4669 -0.1403
 3649TIP3    H210912   6.426   2.851   5.399  0.4789 -0.7042  0.8999
 3650TIP3   OH210913   0.916   1.036   2.586  0.3033 -0.6489  0.1184
 3650TIP3    H110914   0.939   1.046   2.493  1.2505 -1.5079  0.2431
 3650TIP3    H210915   0.936   0.945   2.606 -2.0956 -1.1527  0.5955
 3651TIP3   OH210916   2.546   4.156   3.596  0.3430 -0.1197 -1.4775
 3651TIP3    H110917   2.622   4.213   3.604 -0.4325  0.7598  0.1021
 3651TIP3    H210918   2.471   4.215   3.605 -0.4797 -1.3041 -0.1080
 3652TIP3   OH210919   5.841   3.100   5.526 -0.6617 -0.7108 -0.4414
 3652TIP3    H110920   5.901   3.047   5.475  0.8520 -0.2136  0.7367
 3652TIP3    H210921   5.796   3.037   5.583 -0.6063 -0.9787 -0.6913
 3653TIP3   OH210922   6.407   4.882   4.755 -0.2424 -0.1751  0.1046
 3653TIP3    H110923   6.324   4.876   4.801  0.8877 -1.3359  2.1382
 3653TIP3    H210924   6.383   4.905   4.665 -2.6397  0.7058  0.9018
 3654TIP3   OH210925   4.375   6.784   5.409  0.5721 -0.3806  0.3250
 3654TIP3    H110926   4.322   6.705   5.398  1.4517 -1.1183  1.1491
 3654TIP3    H210927   4.326   6.837   5.471  0.5528 -0.8345  0.7062
 3655TIP3   OH210928   4.557   3.210   2.134 -0.0862  0.2800 -0.1481
 3655TIP3    H110929   4.569   3.288   2.080  0.5957  0.0296 -0.3688
 3655TIP3    H210930   4.625   3.150   2.104  0.7314  0.3694  1.4237
 3656TIP3   OH210931   3.829   3.789   4.469 -0.6644 -0.2591  0.4770
 3656TIP3    H110932   3.739   3.776   4.437 -0.5167  3.2033 -1.8309
 3656TIP3    H210933   3.884   3.766   4.395  0.2879 -0.5844  1.2652
 3657TIP3   OH210934   0.083   6.425   3.365  0.1301 -0.0602 -0.0789
 3657TIP3    H110935   0.157   6.398   3.418 -0.2082  0.1906  0.5319
 3657TIP3    H210936   0.027   6.347   3.360 -1.8534  0.9085  3.3720
 3658TIP3   OH210937   1.626   5.600   0.164 -0.3531 -0.2069  0.2999
 3658TIP3    H110938   1.662   5.679   0.124 -0.8928  0.2731  0.7376
 3658TIP3    H210939   1.654   5.529   0.107 -1.7473  0.5244 -1.4087
 3659TIP3   OH210940   4.439   0.905   2.105  0.2980 -0.2431  0.3018
 3659TIP3    H110941   4.491   0.857   2.169  1.8988  0.7031 -0.2267
 3659TIP3    H210942   4.449   0.997   2.129  1.7137  0.2256 -1.7724
 3660TIP3   OH210943   4.760   4.902   3.753 -0.3089 -0.1719 -0.0493
 3660TIP3    H110944   4.691   4.944   3.702 -2.2550 -0.5408  2.1131
 3660TIP3    H210945   4.753   4.809   3.732 -0.8078 -0.2697  0.5470
 3661TIP3   OH210946   6.745   4.477   0.142 -0.2724  0.0461  0.4566
 3661TIP3    H110947   6.734   4.383   0.158  0.5358 -0.3308 -1.0492
 3661TIP3    H210948   6.790   4.482   0.058  0.0324  1.7864  0.6884
 3662TIP3   OH210949   1.549   0.804   2.326 -0.6370 -0.4130  0.2048
 3662TIP3    H110950   1.584   0.730   2.276 -1.8149 -0.7883 -0.0931
 3662TIP3    H210951   1.469   0.770   2.366 -1.2752  0.7450 -0.0521
 3663TIP3   OH210952   1.632   4.236   2.967  0.2547 -0.6143 -0.7107
 3663TIP3    H110953   1.630   4.299   2.895  0.6146 -0.8459 -0.9234
 3663TIP3    H210954   1.565   4.268   3.028  1.8263  1.1413  0.1899
 3664TIP3   OH210955   2.094   5.275   2.827 -1.0396 -0.0056  0.3618
 3664TIP3    H110956   2.049   5.360   2.832 -2.1527 -0.4839 -0.8201
 3664TIP3    H210957   2.059   5.225   2.901 -1.8755 -0.0939 -0.0829
 3665TIP3   OH210958   2.481   2.228   1.974  0.0977  0.1840 -0.3398
 3665TIP3    H110959   2.437   2.156   1.929  2.2248 -0.3918 -1.6501
 3665TIP3    H210960   2.414   2.296   1.982 -1.4815 -1.2701 -0.6352
 3666TIP3   OH210961   3.092   1.621   2.832 -0.3009 -0.3963 -0.5849
 3666TIP3    H110962   3.054   1.543   2.873 -0.7311 -0.3113 -0.8213
 3666TIP3    H210963   3.142   1.587   2.758  1.3883 -0.6601  0.6216
 3667TIP3   OH210964   5.222   3.296   1.026  0.4222  0.4956  0.2688
 3667TIP3    H110965   5.199   3.378   1.071  1.7717  0.9482  0.1894
 3667TIP3    H210966   5.297   3.320   0.971  1.5311 -1.0317  1.0443
 3668TIP3   OH210967   2.046   2.395   0.256 -0.3879 -0.2444 -0.7611
 3668TIP3    H110968   2.037   2.316   0.203 -0.2944  0.0324 -1.1940
 3668TIP3    H210969   1.992   2.378   0.334  0.5067 -1.1725 -0.3245
 3669TIP3   OH210970   0.938   5.295   3.261 -0.0900  0.2072 -0.0191
 3669TIP3    H110971   0.923   5.225   3.197  1.4205 -0.1231 -0.0455
 3669TIP3    H210972   0.860   5.294   3.316 -0.2693 -1.2487 -0.2608
 3670TIP3   OH210973   6.374   6.441   5.333  0.2724 -0.3154  0.0160
 3670TIP3    H110974   6.391   6.489   5.414 -2.2167 -1.6205  1.4141
 3670TIP3    H210975   6.283   6.413   5.340  0.3823 -1.6611 -2.6381
 3671TIP3   OH210976   5.712   1.565   1.101 -0.2049 -0.2075  0.3497
 3671TIP3    H110977   5.677   1.506   1.167 -0.0425  1.0314  1.5914
 3671TIP3    H210978   5.806   1.565   1.115 -0.3492  1.9185  1.8224
 3672TIP3   OH210979   6.609   2.246   1.207  0.1874 -0.0309  0.4984
 3672TIP3    H110980   6.683   2.241   1.268  0.4174  0.3553  0.2569
 3672TIP3    H210981   6.650   2.262   1.122 -0.2079  0.8883  0.4718
 3673TIP3   OH210982   0.910   6.082   0.967  0.6484  0.2082 -0.1505
 3673TIP3    H110983   0.891   6.049   0.879 -0.6375 -1.2048  0.6029
 3673TIP3    H210984   0.827   6.072   1.015  0.9080  2.3150  0.8363
 3674TIP3   OH210985   3.344   0.953   3.253 -0.2614 -0.1742  0.8280
 3674TIP3    H110986   3.427   0.912   3.275  1.3448  2.4251 -0.0021
 3674TIP3    H210987   3.333   0.937   3.159 -0.0599  0.5605  0.6789
 3675TIP3   OH210988   1.773   1.670   5.686 -0.4572  0.0613 -0.1292
 3675TIP3    H110989   1.834   1.597   5.671  1.1828  0.9943  1.6117
 3675TIP3    H210990   1.829   1.743   5.712 -2.3795  0.4431  3.5693
 3676TIP3   OH210991   4.971   4.673   3.800  0.8530  0.1529 -0.8513
 3676TIP3    H110992   4.969   4.633   3.887  0.6032 -2.0857 -1.8430
 3676TIP3    H210993   4.880   4.674   3.771  0.9948  0.4287 -1.3045
 3677TIP3   OH210994   0.737   1.360   2.939  0.5959  0.5593  0.8976
 3677TIP3    H110995   0.711   1.441   2.896 -1.7056 -1.6996 -2.4573
 3677TIP3    H210996   0.657   1.329   2.983 -0.1825 -2.0647 -1.9616
 3678TIP3   OH210997   5.995   0.907   4.421  0.1972  0.0906  0.2444
 3678TIP3    H110998   5.962   0.826   4.459 -0.3860 -0.9393 -2.2493
 3678TIP3    H210999   6.076   0.925   4.468 -0.6581 -0.8510  2.1673
 3679TIP3   OH211000   1.817   0.883   4.355  0.4166  0.5109  0.1371
 3679TIP3    H111001   1.856   0.801   4.386  1.0988  1.0292  0.6666
 3679TIP3    H211002   1.751   0.855   4.291 -0.4000 -0.5527  1.3770
 3680TIP3   OH211003   4.854   6.159   0.672 -0.4500  0.1588 -0.7272
 3680TIP3    H111004   4.890   6.107   0.744  1.0373  2.0697  0.0262
 3680TIP3    H211005   4.781   6.207   0.711  0.3959  1.2428 -0.4212
 3681TIP3   OH211006   7.100   4.046   3.729 -0.7358 -0.3110 -0.0378
 3681TIP3    H111007   7.048   4.125   3.744  0.9219  0.6329  0.9300
 3681TIP3    H211008   7.067   3.983   3.792  0.7542  1.0310  2.2192
 3682TIP3   OH211009   3.376   6.807   5.707 -0.3208 -0.4895 -0.2638
 3682TIP3    H111010   3.369   6.714   5.683  0.1802 -0.4609 -0.5280
 3682TIP3    H211011   3.469   6.822   5.718 -0.0111  0.7612 -3.4751
 3683TIP3   OH211012   2.828   3.145   0.217 -0.0072 -0.2492 -0.5658
 3683TIP3    H111013   2.842   3.225   0.268  0.6621  0.1114 -1.2897
 3683TIP3    H211014   2.745   3.160   0.172 -0.2687 -0.2913 -0.1037
 3684TIP3   OH211015   0.693   6.146   5.030 -0.2440 -0.1647  0.4743
 3684TIP3    H111016   0.623   6.154   4.966  0.8390 -1.4950 -0.9532
 3684TIP3    H211017   0.771   6.178   4.985  0.2548  0.4976  1.7378
 3685TIP3   OH211018   3.000   5.854   2.719 -1.0236 -0.1105 -0.1456
 3685TIP3    H111019   3.054   5.810   2.784 -1.2442  1.0503  0.8545
 3685TIP3    H211020   3.054   5.853   2.639 -0.9126 -1.8823 -0.0891
 3686TIP3   OH211021   0.287   4.813   5.043  0.1498  0.3941 -0.0103
 3686TIP3    H111022   0.243   4.898   5.035 -2.1137 -0.7397 -0.3650
 3686TIP3    H211023   0.332   4.817   5.127  1.1200  2.3399 -0.5486
 3687TIP3   OH211024   1.512   2.149   3.621  0.5716  0.0989 -0.1720
 3687TIP3    H111025   1.465   2.123   3.701  1.2663  1.5786  0.7533
 3687TIP3    H211026   1.443   2.158   3.555 -0.1983  0.2108  0.6251
 3688TIP3   OH211027   1.256   1.159   4.595 -0.3605 -0.0629  0.5625
 3688TIP3    H111028   1.270   1.253   4.608 -1.7822  0.1383  0.8533
 3688TIP3    H211029   1.253   1.123   4.684  0.9969 -0.5310  0.4312
 3689TIP3   OH211030   0.372   1.132   3.503  0.2591 -0.0427  0.1004
 3689TIP3    H111031   0.320   1.057   3.476  0.2934 -0.2227  0.5289
 3689TIP3    H211032   0.325   1.168   3.578  1.3374 -0.8725  1.1974
 3690TIP3   OH211033   7.111   4.553   4.473 -0.3604  0.3023  0.0378
 3690TIP3    H111034   7.100   4.501   4.393 -1.7337  0.8907 -0.1676
 3690TIP3    H211035   7.203   4.540   4.497 -0.2201 -0.7803 -1.0072
 3691TIP3   OH211036   4.452   0.599   2.729  0.5273 -0.4100 -0.1083
 3691TIP3    H111037   4.479   0.606   2.638  1.5324 -1.1271  0.1249
 3691TIP3    H211038   4.529   0.565   2.775 -0.3886 -1.3748  0.7714
 3692TIP3   OH211039   1.617   6.615   0.660  0.1154  0.3568 -0.4960
 3692TIP3    H111040   1.669   6.654   0.730 -0.1374 -3.9484  2.4644
 3692TIP3    H211041   1.540   6.672   0.653  1.6696  2.7203  0.3200
 3693TIP3   OH211042   1.583   5.118   4.041  0.1672 -0.0035 -0.2178
 3693TIP3    H111043   1.543   5.031   4.036 -2.0349  0.9140 -0.0126
 3693TIP3    H211044   1.641   5.123   3.965 -0.2586 -1.3810 -0.6534
 3694TIP3   OH211045   4.540   3.154   5.648  0.6366  0.7519 -0.7695
 3694TIP3    H111046   4.459   3.160   5.596  0.7129  0.1304 -0.9682
 3694TIP3    H211047   4.540   3.234   5.701 -0.4266  0.4660 -0.3049
 3695TIP3   OH211048   0.049   2.660   3.880 -1.0199 -0.1811  0.6358
 3695TIP3    H111049  -0.001   2.678   3.959 -0.2399  1.5161  0.7678
 3695TIP3    H211050   0.092   2.742   3.858 -0.6393 -0.7954 -1.1597
 3696TIP3   OH211051   5.384   6.268   4.211 -0.7759  0.3794 -0.0625
 3696TIP3    H111052   5.443   6.198   4.182 -1.6699 -0.7639  0.8001
 3696TIP3    H211053   5.425   6.300   4.291 -2.2287 -1.7533  1.6561
 3697TIP3   OH211054   3.658   4.377   5.524  0.3149 -0.4854  0.2011
 3697TIP3    H111055   3.640   4.352   5.433 -1.2472 -0.3161  0.4319
 3697TIP3    H211056   3.577   4.419   5.553  1.8070  2.2713  0.7077
 3698TIP3   OH211057   5.655   1.812   3.234 -0.3292 -0.1563  0.4501
 3698TIP3    H111058   5.626   1.722   3.217 -0.4386 -0.4452  1.9499
 3698TIP3    H211059   5.745   1.815   3.200  0.5772 -1.6254  2.4329
 3699TIP3   OH211060   3.526   0.869   1.839  0.2539 -0.3824  0.1267
 3699TIP3    H111061   3.553   0.948   1.886  1.7246 -0.6320 -0.2434
 3699TIP3    H211062   3.494   0.810   1.908  0.2293  0.1042  0.5384
 3700TIP3   OH211063   5.998   3.733   3.162 -0.2267 -0.1776 -0.0606
 3700TIP3    H111064   5.962   3.821   3.171 -0.2738 -0.0439 -1.4197
 3700TIP3    H211065   6.092   3.744   3.172 -0.3452 -0.2032  1.2375
 3701TIP3   OH211066   5.676   1.021   0.479 -0.0003  0.0583  0.1122
 3701TIP3    H111067   5.598   1.039   0.532  0.2891  0.4838  0.3987
 3701TIP3    H211068   5.695   0.928   0.494  0.1552  0.2062  0.8604
 3702TIP3   OH211069   1.774   2.691   5.130 -0.1120  0.7396 -0.5463
 3702TIP3    H111070   1.800   2.759   5.192  0.1833  0.5498 -0.4638
 3702TIP3    H211071   1.776   2.735   5.045  1.3763  0.4951 -0.6649
 3703TIP3   OH211072   3.386   6.178   3.359 -0.3629  0.0941 -0.0625
 3703TIP3    H111073   3.449   6.149   3.293  1.0458 -2.5365  2.2560
 3703TIP3    H211074   3.439   6.195   3.437 -2.3985 -1.4545  1.7700
 3704TIP3   OH211075   6.571   2.493   3.057 -0.4367 -0.0553  0.3313
 3704TIP3    H111076   6.662   2.510   3.080 -0.5596 -0.0671  0.8416
 3704TIP3    H211077   6.536   2.579   3.033 -0.2869 -0.0557  0.1071
 3705TIP3   OH211078   0.517   1.668   4.089  0.3587  0.4437 -0.2527
 3705TIP3    H111079   0.504   1.760   4.112  0.5608  0.3846  0.0963
 3705TIP3    H211080   0.547   1.627   4.170 -0.2974 -0.0472 -0.2510
 3706TIP3   OH211081   2.712   5.103   1.001  0.0623  0.2588  0.0711
 3706TIP3    H111082   2.792   5.093   1.053  0.3090  0.8262 -0.1961
 3706TIP3    H211083   2.643   5.117   1.066  0.2263  0.0882  0.2841
 3707TIP3   OH211084   1.227   3.072   0.042 -0.2115 -0.2617  1.0997
 3707TIP3    H111085   1.148   3.108  -0.000 -0.9858 -0.8158  2.0353
 3707TIP3    H211086   1.299   3.109  -0.008 -1.0789 -0.5044 -0.4001
 3708TIP3   OH211087   0.299   5.227   3.346 -0.4762  0.3370 -0.1166
 3708TIP3    H111088   0.249   5.228   3.428 -0.4717 -1.1446 -0.0544
 3708TIP3    H211089   0.388   5.253   3.372 -0.5889  0.3523  0.2638
 3709TIP3   OH211090   1.706   2.519   5.737 -0.2444 -0.3572 -0.0491
 3709TIP3    H111091   1.726   2.562   5.654 -0.7510 -0.4037 -0.1990
 3709TIP3    H211092   1.749   2.573   5.803  0.8045 -0.7421 -0.4024
 3710TIP3   OH211093   5.304   1.831   4.050 -0.9093 -0.2064 -0.3064
 3710TIP3    H111094   5.284   1.854   3.959 -1.2209 -0.2918 -0.2607
 3710TIP3    H211095   5.313   1.736   4.049 -0.1314 -0.1368 -0.3966
 3711TIP3   OH211096   2.487   6.198   4.084 -0.3152  0.2627  0.4805
 3711TIP3    H111097   2.465   6.105   4.083 -2.6764  0.7410  0.7617
 3711TIP3    H211098   2.552   6.207   4.153 -1.8734 -0.8775  2.1984
 3712TIP3   OH211099   4.298   6.637   2.356 -0.0364 -0.5826  0.3489
 3712TIP3    H111100   4.349   6.711   2.325 -0.5174 -0.0977  0.6955
 3712TIP3    H211101   4.347   6.560   2.328  0.7758 -0.1300  0.5082
 3713TIP3   OH211102   1.007   0.231   0.859  0.7533 -0.0912 -0.0021
 3713TIP3    H111103   0.931   0.267   0.812  1.5052  1.8234  0.1552
 3713TIP3    H211104   0.975   0.214   0.947 -0.0829 -1.5971 -0.5490
 3714TIP3   OH211105   3.894   1.554   0.012 -0.1837  0.7637  0.1531
 3714TIP3    H111106   3.945   1.618   0.061  1.1195  1.6637 -2.2144
 3714TIP3    H211107   3.958   1.490  -0.018 -0.9779  0.0963 -0.1610
 3715TIP3   OH211108   2.401   4.993   2.355  0.3201  0.2720 -0.1361
 3715TIP3    H111109   2.412   4.972   2.448 -1.2576  0.4269  0.1261
 3715TIP3    H211110   2.331   5.058   2.354  0.4941  0.4669 -1.4263
 3716TIP3   OH211111   0.404   4.140   1.409 -0.1599 -0.2253 -0.4224
 3716TIP3    H111112   0.327   4.140   1.466 -0.6587 -1.1123 -1.0574
 3716TIP3    H211113   0.476   4.166   1.466 -0.5256 -1.7145  0.8128
 3717TIP3   OH211114   1.517   3.725   5.798 -0.4116  0.4858  0.2207
 3717TIP3    H111115   1.530   3.712   5.705  1.5675 -1.6755  0.7105
 3717TIP3    H211116   1.429   3.690   5.815 -0.1487 -0.6442 -0.6119
 3718TIP3   OH211117   0.775   0.437   4.577 -0.5001 -0.0545 -0.3054
 3718TIP3    H111118   0.764   0.416   4.670 -2.4784  0.7232 -0.2991
 3718TIP3    H211119   0.797   0.530   4.576 -0.6808 -0.0138 -0.6130
 3719TIP3   OH211120   3.390   4.699   5.081  0.9865  0.2375 -0.6937
 3719TIP3    H111121   3.429   4.677   5.166 -1.0795 -1.3022 -0.0521
 3719TIP3    H211122   3.438   4.645   5.018  0.9652 -0.4147 -0.1625
 3720TIP3   OH211123   5.687   3.411   4.123  0.1821 -0.0715  0.0354
 3720TIP3    H111124   5.760   3.472   4.113  0.7612 -0.8178 -0.3729
 3720TIP3    H211125   5.635   3.423   4.044  0.3075 -0.1222 -0.0546
 3721TIP3   OH211126   7.125   0.078   0.134 -0.0487  0.5233  0.0924
 3721TIP3    H111127   7.063   0.010   0.163 -0.5194  0.6838 -0.5299
 3721TIP3    H211128   7.076   0.160   0.143  0.1038  0.6585 -0.3194
 3722TIP3   OH211129   1.699   2.452   1.220  0.2287 -0.1713 -0.2465
 3722TIP3    H111130   1.777   2.410   1.258  0.9756 -1.3927 -2.9146
 3722TIP3    H211131   1.654   2.382   1.174 -1.7245  0.8297  0.0639
 3723TIP3   OH211132   4.871   2.263   1.065 -0.7441 -0.8978 -0.1201
 3723TIP3    H111133   4.806   2.299   1.125 -0.0072 -1.0309  0.7916
 3723TIP3    H211134   4.857   2.309   0.983 -0.2665  1.0023  0.8078
 3724TIP3   OH211135   6.717   2.773   3.071 -0.2209  0.0406  0.5362
 3724TIP3    H111136   6.750   2.859   3.096 -0.8804  0.5517 -0.2990
 3724TIP3    H211137   6.774   2.746   2.998  0.5338 -0.6277  1.3561
 3725TIP3   OH211138   1.982   5.361   4.858 -0.1803  0.4010 -0.1672
 3725TIP3    H111139   1.976   5.290   4.922 -1.3041 -0.9313 -1.6748
 3725TIP3    H211140   2.010   5.318   4.777  1.5009  2.0801 -0.5515
 3726TIP3   OH211141   4.679   1.428   0.674 -0.1556  0.0067  0.1319
 3726TIP3    H111142   4.701   1.348   0.721 -0.7479 -0.4402 -0.3447
 3726TIP3    H211143   4.717   1.416   0.587  1.0530  0.8845  0.5097
 3727TIP3   OH211144   3.348   3.292   0.171 -0.2383  0.4691 -0.9798
 3727TIP3    H111145   3.335   3.287   0.077 -1.1684 -1.5451 -0.8132
 3727TIP3    H211146   3.260   3.285   0.208 -0.0228  2.4662  0.0654
 3728TIP3   OH211147   3.300   2.244   1.489 -0.3607 -0.5462 -0.0386
 3728TIP3    H111148   3.324   2.229   1.397 -0.3682  0.5663 -0.2341
 3728TIP3    H211149   3.384   2.256   1.534 -0.4306  1.1625 -0.3241
 3729TIP3   OH211150   6.828   4.111   4.299 -0.2736  0.1337 -0.0245
 3729TIP3    H111151   6.918   4.082   4.317 -0.4931 -1.6292 -1.5079
 3729TIP3    H211152   6.803   4.160   4.377  1.7765  0.1928  0.6636
 3730TIP3   OH211153   6.835   1.615   0.482 -0.4890 -0.0361 -0.0065
 3730TIP3    H111154   6.871   1.581   0.564 -0.2895  1.7417  0.7064
 3730TIP3    H211155   6.750   1.651   0.507 -1.0794 -0.7980 -0.8974
 3731TIP3   OH211156   6.079   6.613   2.312 -0.0919  0.5003 -0.3151
 3731TIP3    H111157   5.993   6.571   2.310  0.1272  0.0444 -0.3720
 3731TIP3    H211158   6.124   6.579   2.235  0.4590  0.0336  0.1994
 3732TIP3   OH211159   6.533   0.411   4.628  0.1344  0.1888  0.7402
 3732TIP3    H111160   6.536   0.366   4.713 -0.3807  0.8737  1.1254
 3732TIP3    H211161   6.447   0.452   4.625  0.6629  1.3136  0.4769
 3733TIP3   OH211162   2.015   4.297   3.850 -0.0043 -0.3033  0.1400
 3733TIP3    H111163   1.997   4.320   3.758  0.4392  1.1847  0.3950
 3733TIP3    H211164   1.967   4.216   3.864 -0.6099 -0.2135 -1.2305
 3734TIP3   OH211165   2.761   0.249   2.547 -0.0449  0.0817  0.1822
 3734TIP3    H111166   2.706   0.173   2.566 -1.3454  0.6506 -1.0471
 3734TIP3    H211167   2.719   0.289   2.471  1.0783  1.5745  0.3154
 3735TIP3   OH211168   6.320   4.317   1.574  0.0272 -0.2711  0.1057
 3735TIP3    H111169   6.283   4.382   1.515 -0.6705 -0.1520  0.6648
 3735TIP3    H211170   6.261   4.242   1.568  0.6249 -0.7279 -0.2572
 3736TIP3   OH211171   0.401   1.454   1.813 -0.2767 -0.4463  0.3552
 3736TIP3    H111172   0.317   1.456   1.858 -0.1740 -2.6518  0.7542
 3736TIP3    H211173   0.445   1.376   1.847  1.4343 -0.0130 -0.7280
 3737TIP3   OH211174   6.583   2.443   5.248  0.0112 -0.3186  0.2661
 3737TIP3    H111175   6.581   2.403   5.334 -1.0249  0.4101  0.6066
 3737TIP3    H211176   6.634   2.383   5.194 -1.1085 -1.8354  0.8585
 3738TIP3   OH211177   6.263   3.375   4.281  0.5532 -0.3726  0.0360
 3738TIP3    H111178   6.240   3.458   4.323  0.5184 -0.3940  0.0591
 3738TIP3    H211179   6.198   3.313   4.312  0.2537 -0.2852 -0.4060
 3739TIP3   OH211180   4.473   4.370   4.321  0.3114 -0.4213  0.5558
 3739TIP3    H111181   4.407   4.432   4.289  0.3378 -0.8879 -0.4411
 3739TIP3    H211182   4.460   4.368   4.416 -0.7159 -0.0578  0.4359
 3740TIP3   OH211183   3.505   1.721   2.448  0.4751 -0.3394  0.3169
 3740TIP3    H111184   3.450   1.777   2.503 -1.3992 -1.2021 -0.5538
 3740TIP3    H211185   3.565   1.781   2.405 -1.5185  1.0800 -0.6387
 3741TIP3   OH211186   4.884   6.048   4.578 -0.2187  0.1981 -0.6713
 3741TIP3    H111187   4.852   6.133   4.606  1.2972  0.1165  1.5848
 3741TIP3    H211188   4.944   6.067   4.506  1.5680  1.3005  1.0218
 3742TIP3   OH211189   0.668   1.870   0.537  0.3334 -0.0155 -0.0633
 3742TIP3    H111190   0.762   1.877   0.519  0.3949  0.4032  0.3893
 3742TIP3    H211191   0.632   1.954   0.510 -0.0084 -0.3672 -0.7383
 3743TIP3   OH211192   3.458   0.466   0.780  0.0461 -0.4143 -0.0711
 3743TIP3    H111193   3.552   0.452   0.790 -0.1836 -1.1314  1.3426
 3743TIP3    H211194   3.418   0.397   0.832 -1.2559  0.6637  0.4033
 3744TIP3   OH211195   1.938   2.535   0.488  0.3684 -0.0327 -0.3987
 3744TIP3    H111196   1.990   2.583   0.423  1.1094  2.0291  1.5535
 3744TIP3    H211197   1.857   2.585   0.495  1.2202  1.2303  1.7869
 3745TIP3   OH211198   0.309   5.720   3.030 -0.1184  0.2949 -0.1630
 3745TIP3    H111199   0.387   5.667   3.019  0.3623  0.8158  0.6906
 3745TIP3    H211200   0.306   5.775   2.951 -1.0440 -1.4671 -1.4429
 3746TIP3   OH211201   0.016   0.294   2.856 -0.3960 -0.0295  0.7462
 3746TIP3    H111202   0.058   0.304   2.941 -0.3906 -0.2608  0.7714
 3746TIP3    H211203   0.045   0.370   2.806 -1.3323  0.7294  1.3293
 3747TIP3   OH211204   7.143   6.484   4.418 -0.4299 -0.0433 -0.1973
 3747TIP3    H111205   7.132   6.579   4.411  2.3895  0.3705 -0.5198
 3747TIP3    H211206   7.185   6.459   4.335  2.6057 -0.7856  1.3921
 3748TIP3   OH211207   5.049   0.245   1.278  0.1529 -0.2931 -0.1151
 3748TIP3    H111208   5.034   0.152   1.262 -2.2474 -0.1309  0.7719
 3748TIP3    H211209   4.988   0.289   1.219 -0.6241  0.6103  1.3126
 3749TIP3   OH211210   1.746   4.653   4.521 -0.7129  0.4362 -0.2672
 3749TIP3    H111211   1.687   4.578   4.517  1.1638 -1.1293 -0.2366
 3749TIP3    H211212   1.773   4.658   4.613 -0.6672  1.0413 -0.3075
 3750TIP3   OH211213   3.292   6.248   5.375 -0.2415 -0.2632  0.1142
 3750TIP3    H111214   3.252   6.265   5.290 -1.4500 -2.6255  0.1380
 3750TIP3    H211215   3.236   6.294   5.438  1.1378  2.2208 -0.3237
 3751TIP3   OH211216   0.401   1.803   2.355 -0.1857  0.3130 -0.1296
 3751TIP3    H111217   0.421   1.717   2.319  0.2034  0.1664  0.4246
 3751TIP3    H211218   0.484   1.850   2.353 -0.6213  1.0610 -1.4414
 3752TIP3   OH211219   5.459   3.344   0.444 -0.4792  0.4879 -0.1323
 3752TIP3    H111220   5.490   3.407   0.509 -0.4433  0.7941 -0.4424
 3752TIP3    H211221   5.365   3.336   0.460 -0.3936  0.2014  0.2596
 3753TIP3   OH211222   5.149   3.623   1.127 -0.1868  0.0917  0.0037
 3753TIP3    H111223   5.208   3.696   1.147 -1.4743  1.0875  0.3382
 3753TIP3    H211224   5.078   3.663   1.076 -1.5369 -0.6606  1.2163
 3754TIP3   OH211225   2.292   6.114   5.464 -0.1937 -0.0182  0.7223
 3754TIP3    H111226   2.279   6.054   5.390 -0.3419  0.6925  0.1664
 3754TIP3    H211227   2.376   6.157   5.447 -0.3065  0.2718  0.8853
 3755TIP3   OH211228   5.864   4.291   3.580  0.6899  0.2127 -0.0539
 3755TIP3    H111229   5.869   4.382   3.549 -1.9363  0.6380  0.4850
 3755TIP3    H211230   5.840   4.299   3.672  0.5346 -1.0101  0.0270
 3756TIP3   OH211231   0.593   6.151   5.288  0.2724  0.3306  0.6024
 3756TIP3    H111232   0.631   6.101   5.216  1.1304 -0.0633  1.3059
 3756TIP3    H211233   0.586   6.240   5.255 -0.4275 -0.0512 -0.3568
 3757TIP3   OH211234   3.359   1.699   4.546  0.3195  0.1109 -0.5540
 3757TIP3    H111235   3.345   1.607   4.567 -0.9724  0.3077 -0.4388
 3757TIP3    H211236   3.414   1.732   4.617 -0.8244 -0.1313  0.4715
 3758TIP3   OH211237   5.196   3.019   4.521  0.6082  0.3829  0.3617
 3758TIP3    H111238   5.172   3.065   4.441  0.0349 -1.1416 -0.3761
 3758TIP3    H211239   5.277   3.060   4.549  0.5501  1.2746 -0.7187
 3759TIP3   OH211240   1.511   0.757   2.659  0.0257 -0.3567 -0.0737
 3759TIP3    H111241   1.583   0.723   2.607  0.8305  2.6535 -1.1291
 3759TIP3    H211242   1.433   0.739   2.608  0.2655 -1.6368 -0.0062
 3760TIP3   OH211243   1.577   3.330   2.789 -0.3970 -0.1784  0.0700
 3760TIP3    H111244   1.650   3.277   2.820 -0.1917  0.3445  0.4951
 3760TIP3    H211245   1.500   3.294   2.834 -0.4558 -0.8913 -0.5685
 3761TIP3   OH211246   1.484   3.493   3.430  0.1957  0.0472 -0.5448
 3761TIP3    H111247   1.512   3.515   3.519  0.0680 -1.2105 -0.1785
 3761TIP3    H211248   1.401   3.539   3.419  0.0942  0.0146  0.0684
 3762TIP3   OH211249   7.050   2.159   1.290  0.1031 -0.1697  0.4157
 3762TIP3    H111250   7.113   2.225   1.319  1.6036 -1.3631  0.0372
 3762TIP3    H211251   7.094   2.114   1.218 -1.2906 -0.9140 -0.0032
 3763TIP3   OH211252   1.295   3.783   3.795 -0.0485 -0.1847 -0.4304
 3763TIP3    H111253   1.344   3.712   3.836  1.6547  0.1793 -1.7040
 3763TIP3    H211254   1.308   3.858   3.852 -1.6308 -0.7562  0.7770
 3764TIP3   OH211255   0.763   0.995   2.013 -0.3033 -0.4519 -0.1719
 3764TIP3    H111256   0.841   0.941   1.997 -1.1601 -1.7221 -0.2313
 3764TIP3    H211257   0.721   0.953   2.088 -1.1745 -0.0614 -0.4401
 3765TIP3   OH211258   5.693   6.110   1.717  0.0977 -0.1457  0.0577
 3765TIP3    H111259   5.620   6.113   1.655  0.9244 -0.2458 -0.9677
 3765TIP3    H211260   5.652   6.110   1.803 -1.0852  0.6026 -0.4719
 3766TIP3   OH211261   3.046   3.009   4.995  0.2598 -0.2667 -0.0938
 3766TIP3    H111262   2.990   3.014   5.072  0.4627 -1.1325  0.1206
 3766TIP3    H211263   3.026   2.923   4.957 -1.1779  0.8361 -2.0389
 3767TIP3   OH211264   2.289   6.706   1.858 -0.5842 -0.0753  0.3536
 3767TIP3    H111265   2.317   6.665   1.776  0.2053  0.1689  0.4864
 3767TIP3    H211266   2.364   6.759   1.884 -1.4185  1.0903  0.4226
 3768TIP3   OH211267   6.242   0.398   2.187  0.6853  0.3108 -0.5600
 3768TIP3    H111268   6.310   0.459   2.160 -0.6197  1.8444 -0.5833
 3768TIP3    H211269   6.232   0.338   2.113  0.5373  1.4082 -1.4504
 3769TIP3   OH211270   5.065   0.348   1.536  0.4935 -0.1620  0.0585
 3769TIP3    H111271   5.078   0.314   1.447 -0.3706 -0.3194 -0.0136
 3769TIP3    H211272   5.015   0.279   1.580 -1.2995  0.9822 -0.0907
 3770TIP3   OH211273   2.660   3.353   2.378 -0.0295  0.6212  0.1272
 3770TIP3    H111274   2.675   3.350   2.284  0.4935  0.2653  0.2168
 3770TIP3    H211275   2.747   3.344   2.416 -0.3734 -0.6493  0.6593
 3771TIP3   OH211276   3.965   2.605   5.824  0.2782 -0.3772 -0.0782
 3771TIP3    H111277   3.953   2.577   5.915  1.7004 -1.3378 -0.1486
 3771TIP3    H211278   4.058   2.592   5.808  0.1296  0.2456 -1.5313
 3772TIP3   OH211279   1.935   1.602   0.737  0.1493  0.4700 -0.7279
 3772TIP3    H111280   2.000   1.605   0.667  0.9735  2.0669  0.0381
 3772TIP3    H211281   1.850   1.604   0.692  0.6651  1.4432 -1.6914
 3773TIP3   OH211282   1.645   6.350   0.749  0.1515 -0.5182  0.2172
 3773TIP3    H111283   1.632   6.407   0.824  2.0280 -0.4353  0.5232
 3773TIP3    H211284   1.630   6.406   0.673 -4.1874 -1.1403  0.3503
 3774TIP3   OH211285   2.353   2.732   2.619  0.2064 -0.3021 -0.0201
 3774TIP3    H111286   2.416   2.771   2.558  1.7022 -1.9291  0.3996
 3774TIP3    H211287   2.390   2.646   2.640 -2.6922 -1.8194 -0.5661
 3775TIP3   OH211288   3.434   0.745   1.352 -0.7221 -0.4095  0.3505
 3775TIP3    H111289   3.528   0.732   1.345 -0.7346 -0.5688  0.4668
 3775TIP3    H211290   3.421   0.783   1.439 -1.0822 -3.6881  1.8690
 3776TIP3   OH211291   6.936   1.447   2.852 -0.2398 -0.0817 -0.7246
 3776TIP3    H111292   6.948   1.408   2.939  0.8753  0.5195 -0.5967
 3776TIP3    H211293   7.019   1.490   2.833  0.0624 -1.4434 -2.7511
 3777TIP3   OH211294   4.178   2.198   5.751  0.0873 -0.1121  0.1008
 3777TIP3    H111295   4.263   2.242   5.747  0.6306 -1.1306  0.0828
 3777TIP3    H211296   4.131   2.229   5.673  1.0753 -0.7786 -0.7906
 3778TIP3   OH211297   5.311   1.771   3.733  0.2603 -0.0586 -0.2471
 3778TIP3    H111298   5.371   1.724   3.791  1.7669  0.1506 -1.5548
 3778TIP3    H211299   5.289   1.708   3.665  0.5941  0.4571 -0.8434
 3779TIP3   OH211300   2.567   0.529   0.595  0.2086 -0.3051 -0.1469
 3779TIP3    H111301   2.522   0.610   0.622  1.9619  0.7641 -0.2455
 3779TIP3    H211302   2.654   0.537   0.635  0.2992 -2.3534  0.1422
 3780TIP3   OH211303   1.248   2.785   5.189  0.1061  0.1930  0.0078
 3780TIP3    H111304   1.285   2.819   5.108 -0.3524  0.0832 -0.2508
 3780TIP3    H211305   1.315   2.802   5.255  1.0523 -0.8989 -0.6265
 3781TIP3   OH211306   0.675   3.930   4.028  0.6951 -0.7329  0.0439
 3781TIP3    H111307   0.704   3.974   4.108 -0.2422 -0.5513  0.2932
 3781TIP3    H211308   0.690   3.994   3.958 -0.3443 -0.1271  0.3585
 3782TIP3   OH211309   5.418   5.441   0.394  0.0594 -0.0063 -0.0712
 3782TIP3    H111310   5.436   5.376   0.461  0.6624  1.2343  1.0289
 3782TIP3    H211311   5.486   5.428   0.327 -1.0585 -1.8073 -0.9116
 3783TIP3   OH211312   3.912   4.702   0.597 -0.4810 -0.0110  0.0080
 3783TIP3    H111313   3.913   4.785   0.644 -0.5706  0.0989 -0.1825
 3783TIP3    H211314   3.986   4.708   0.536 -1.7097  0.8017 -1.4922
 3784TIP3   OH211315   4.656   1.391   2.953  0.2736  0.7425 -0.2176
 3784TIP3    H111316   4.612   1.445   2.887  1.5382  1.5832 -0.4131
 3784TIP3    H211317   4.627   1.302   2.934 -0.2696  1.1054 -1.1912
 3785TIP3   OH211318   6.628   4.529   1.581  0.1143 -0.1295  0.8576
 3785TIP3    H111319   6.538   4.550   1.555  0.3967  1.7408  1.2872
 3785TIP3    H211320   6.618   4.468   1.654 -0.7353 -2.2691 -0.9292
 3786TIP3   OH211321   1.890   6.526   3.128  0.2464  0.4580 -0.0495
 3786TIP3    H111322   1.865   6.534   3.036  0.5914  2.4244 -0.0172
 3786TIP3    H211323   1.966   6.468   3.127 -0.6879 -0.8140 -0.7958
 3787TIP3   OH211324   1.077   6.469   4.871  0.8143  0.3983  0.6699
 3787TIP3    H111325   1.067   6.528   4.946  1.7676  0.9952  0.3424
 3787TIP3    H211326   1.144   6.511   4.817 -0.9368  0.8008 -1.3184
 3788TIP3   OH211327   1.028   6.363   2.584  0.6433 -0.1966 -0.3854
 3788TIP3    H111328   0.933   6.372   2.590  0.5358  0.2184 -2.1885
 3788TIP3    H211329   1.046   6.277   2.622 -0.5685 -0.6958 -0.8944
 3789TIP3   OH211330   6.536   1.018   5.031  0.0100  0.8064 -0.2446
 3789TIP3    H111331   6.571   0.955   4.968  0.3274 -0.6159  1.2891
 3789TIP3    H211332   6.613   1.061   5.067 -0.1750  1.6651 -0.8522
 3790TIP3   OH211333   2.018   4.777   2.137  0.0578 -0.1718  0.0126
 3790TIP3    H111334   1.971   4.695   2.121 -0.1083  0.2521 -1.9485
 3790TIP3    H211335   2.050   4.769   2.227  0.4829 -2.6077 -0.2768
 3791TIP3   OH211336   1.197   2.315   2.183  0.3783 -0.2265 -0.1487
 3791TIP3    H111337   1.172   2.224   2.199 -0.9094 -0.0899 -1.1546
 3791TIP3    H211338   1.134   2.366   2.233  0.4624  0.1096 -0.3816
 3792TIP3   OH211339   0.353   2.123   1.795  0.1046 -0.1411 -0.4333
 3792TIP3    H111340   0.428   2.067   1.772  2.4227  2.2026  0.9245
 3792TIP3    H211341   0.286   2.062   1.825  2.6454 -2.2569  1.4357
 3793TIP3   OH211342   5.829   2.392   4.029  0.0746 -0.4334 -0.7483
 3793TIP3    H111343   5.893   2.336   3.986 -0.5711 -1.0172 -0.9641
 3793TIP3    H211344   5.869   2.480   4.028 -0.1002 -0.3357 -2.9049
 3794TIP3   OH211345   0.608   1.547   1.650  0.2437  0.1434  0.0821
 3794TIP3    H111346   0.661   1.477   1.613  1.3263 -0.1861  2.1307
 3794TIP3    H211347   0.532   1.503   1.687 -0.7672  0.4575 -1.5335
 3795TIP3   OH211348   1.144   5.469   4.079  0.0612 -0.2506  0.2808
 3795TIP3    H111349   1.128   5.549   4.129  1.3379  0.1104  0.1642
 3795TIP3    H211350   1.085   5.474   4.004  0.1790  0.6268  0.2392
 3796TIP3   OH211351   5.899   3.367   2.948  0.5639 -0.2916 -0.1242
 3796TIP3    H111352   5.860   3.361   2.861 -0.1261  0.2572  0.1400
 3796TIP3    H211353   5.916   3.460   2.960 -0.6748 -0.1736  0.8947
 3797TIP3   OH211354   2.944   1.794   5.448 -0.5427  0.0318 -0.4526
 3797TIP3    H111355   3.005   1.861   5.415 -1.1934  0.0074 -1.7868
 3797TIP3    H211356   2.967   1.715   5.399 -0.8483 -0.2979 -0.0671
 3798TIP3   OH211357   5.566   6.345   4.403  0.4696  0.0722 -0.6228
 3798TIP3    H111358   5.554   6.404   4.477 -1.4322 -1.6040  0.4958
 3798TIP3    H211359   5.640   6.289   4.429 -1.3683 -1.7593  0.9813
 3799TIP3   OH211360   3.594   6.026   5.074  0.1989  0.6891 -0.3639
 3799TIP3    H111361   3.549   6.028   5.158 -1.1785  0.8420 -1.0705
 3799TIP3    H211362   3.567   5.943   5.035  2.4714 -0.3695  0.1698
 3800TIP3   OH211363   2.875   2.586   4.736  0.2490 -0.0214 -0.0589
 3800TIP3    H111364   2.930   2.540   4.799  0.6740  0.3130 -0.1795
 3800TIP3    H211365   2.895   2.678   4.750 -1.1178  0.1886  0.6631
 3801TIP3   OH211366   5.029   5.840   5.131 -0.2308  0.1636  0.4501
 3801TIP3    H111367   5.018   5.871   5.041  0.1302 -0.2794  0.2503
 3801TIP3    H211368   5.037   5.745   5.123 -3.6987 -0.3441  1.2536
 3802TIP3   OH211369   3.539   1.617   2.207  0.3900 -0.0049  0.2380
 3802TIP3    H111370   3.482   1.540   2.214 -0.0941  0.2461 -0.7741
 3802TIP3    H211371   3.552   1.646   2.297 -0.4149 -0.5560  0.5412
 3803TIP3   OH211372   5.351   0.026   1.997  0.2622 -0.4725 -0.0489
 3803TIP3    H111373   5.292   0.093   1.961  1.4268  0.4019 -0.4142
 3803TIP3    H211374   5.389   0.067   2.075  1.9796 -0.1473 -1.0029
 3804TIP3   OH211375   0.934   3.208   5.335 -0.3165 -0.2210  0.5688
 3804TIP3    H111376   0.953   3.115   5.350 -0.5337  0.0687  3.1298
 3804TIP3    H211377   0.852   3.207   5.284 -1.7762 -1.5147  2.7367
 3805TIP3   OH211378   4.683   4.003   4.299 -0.2111 -0.0536  0.1733
 3805TIP3    H111379   4.708   4.006   4.392  0.3755 -1.0366  0.0539
 3805TIP3    H211380   4.742   4.065   4.257  0.3926 -0.5596  0.2664
 3806TIP3   OH211381   2.028   1.787   5.084 -0.1522 -0.0214 -0.2884
 3806TIP3    H111382   1.967   1.763   5.154 -1.5305  1.7641 -0.7836
 3806TIP3    H211383   2.053   1.877   5.104  0.9483 -0.1430 -1.0586
 3807TIP3   OH211384   5.254   6.672   0.665  0.0906  0.6339 -0.7261
 3807TIP3    H111385   5.164   6.697   0.686 -0.2312  0.8177 -2.1679
 3807TIP3    H211386   5.305   6.693   0.744 -1.0139  1.1728 -0.1385
 3808TIP3   OH211387   2.093   4.361   0.746 -0.1242 -0.5311 -0.5513
 3808TIP3    H111388   2.147   4.409   0.683 -1.9405  0.5997 -1.3456
 3808TIP3    H211389   2.102   4.409   0.828 -1.2472  0.7180 -1.1243
 3809TIP3   OH211390   4.248   4.515   1.762 -0.3336 -0.4376  0.7753
 3809TIP3    H111391   4.255   4.564   1.844 -0.5265  0.1320  0.4572
 3809TIP3    H211392   4.229   4.581   1.696  1.3307 -0.6854  0.0013
 3810TIP3   OH211393   5.912   6.465   4.349 -0.3760 -1.0243  0.5490
 3810TIP3    H111394   5.911   6.370   4.360  2.7772 -1.1656  0.5900
 3810TIP3    H211395   5.895   6.500   4.437 -0.7928 -1.5419  0.6809
 3811TIP3   OH211396   0.122   2.549   2.741 -0.1631  0.0877  0.4764
 3811TIP3    H111397   0.097   2.458   2.758 -2.3414  0.3576 -0.8415
 3811TIP3    H211398   0.205   2.543   2.694 -0.2563 -1.2154  0.4336
 3812TIP3   OH211399   3.651   5.537   1.557 -0.1088  0.0539 -0.2950
 3812TIP3    H111400   3.598   5.546   1.636 -1.8219  0.4612 -1.4149
 3812TIP3    H211401   3.668   5.443   1.550 -0.5430 -0.0680  0.1956
 3813TIP3   OH211402   6.943   3.617   0.045 -0.6681 -0.5417  0.3118
 3813TIP3    H111403   6.908   3.629   0.134  0.4378 -1.3306  0.8786
 3813TIP3    H211404   7.032   3.584   0.059 -0.1571  0.1636 -1.0900
 3814TIP3   OH211405   5.065   1.696   4.343  0.4682  0.3683  0.4091
 3814TIP3    H111406   4.982   1.734   4.372 -1.0728 -2.0036 -0.6559
 3814TIP3    H211407   5.101   1.654   4.422 -0.9126 -1.2077  0.2484
 3815TIP3   OH211408   6.547   0.211   2.079 -0.2812 -0.4740  0.1636
 3815TIP3    H111409   6.583   0.170   2.158 -0.2342  0.1457  0.4721
 3815TIP3    H211410   6.526   0.138   2.021 -0.5201 -0.9489  0.8382
 3816TIP3   OH211411   5.692   4.123   5.034 -0.1393  0.6053 -0.0205
 3816TIP3    H111412   5.725   4.166   4.955 -0.3650  0.8168 -0.0031
 3816TIP3    H211413   5.766   4.126   5.095 -0.2109  1.1427  0.0460
 3817TIP3   OH211414   7.000   5.314   4.728  0.2745 -0.5059  0.1402
 3817TIP3    H111415   6.940   5.248   4.695  0.1125  0.8220 -2.4929
 3817TIP3    H211416   6.961   5.344   4.810 -1.7929 -0.8265 -0.6870
 3818TIP3   OH211417   1.589   0.882   3.460  0.4111 -0.2087  0.1587
 3818TIP3    H111418   1.509   0.907   3.507  1.2250  2.6413  0.1844
 3818TIP3    H211419   1.642   0.837   3.526 -0.5782 -0.8957  0.5107
 3819TIP3   OH211420   0.355   5.821   1.629  0.1603 -0.6248  0.1957
 3819TIP3    H111421   0.312   5.891   1.678  0.1795 -1.2477  1.1217
 3819TIP3    H211422   0.295   5.800   1.558  1.1175  1.8655 -1.5133
 3820TIP3   OH211423   2.286   2.048   0.659 -0.3386 -0.2103  0.1080
 3820TIP3    H111424   2.287   2.127   0.605 -0.2728 -0.0011  0.4167
 3820TIP3    H211425   2.342   1.986   0.612 -0.5458 -0.1428 -0.2341
 3821TIP3   OH211426   3.516   4.022   5.815 -0.2579 -0.0001 -0.4390
 3821TIP3    H111427   3.452   3.998   5.748 -0.2501 -1.4667  0.0287
 3821TIP3    H211428   3.467   4.072   5.880 -1.0966 -1.5070  0.1543
 3822TIP3   OH211429   0.596   0.913   0.423 -0.0939  0.5599  0.0494
 3822TIP3    H111430   0.648   0.972   0.368 -2.1017  1.3205 -1.1007
 3822TIP3    H211431   0.558   0.969   0.490 -0.8343  0.3240 -0.1666
 3823TIP3   OH211432   3.026   3.491   0.735 -0.1617  0.3574  0.3118
 3823TIP3    H111433   3.042   3.520   0.825 -0.5276 -4.6567  2.3731
 3823TIP3    H211434   3.095   3.426   0.719 -1.2982 -0.3395 -2.2302
 3824TIP3   OH211435   6.234   3.238   0.692 -0.2950  0.3514  0.1065
 3824TIP3    H111436   6.166   3.288   0.646  0.4998  0.4581 -0.9818
 3824TIP3    H211437   6.186   3.169   0.738 -1.1871  0.7377 -0.2177
 3825TIP3   OH211438   6.284   4.774   1.977 -0.4278 -0.2144 -0.3087
 3825TIP3    H111439   6.260   4.696   1.927 -0.5811 -0.3215 -0.0703
 3825TIP3    H211440   6.214   4.784   2.041  0.7695 -1.2921  1.2644
 3826TIP3   OH211441   6.998   3.403   4.390 -0.0938  0.4348 -0.3004
 3826TIP3    H111442   7.018   3.400   4.483  1.8308  0.3678 -0.6798
 3826TIP3    H211443   6.976   3.494   4.373  3.0587  1.2967 -0.3860
 3827TIP3   OH211444   6.047   2.018   1.900  0.1304 -0.2245  0.4853
 3827TIP3    H111445   6.059   1.945   1.839  1.3269  1.9613 -2.1329
 3827TIP3    H211446   6.135   2.055   1.910 -0.5314  1.1926  1.2996
 3828TIP3   OH211447   2.045   2.525   5.039  0.1653 -0.1148 -0.2573
 3828TIP3    H111448   2.001   2.610   5.037 -2.0604 -1.2003  0.2840
 3828TIP3    H211449   2.081   2.518   5.127  0.1227  0.1226 -0.2202
 3829TIP3   OH211450   4.580   5.606   1.350 -0.2619 -0.1130 -0.3936
 3829TIP3    H111451   4.616   5.586   1.437 -1.3529  1.2180  0.3903
 3829TIP3    H211452   4.606   5.531   1.296  1.8945 -0.1895  0.6293
 3830TIP3   OH211453   0.966   1.902   3.585 -0.8255 -0.3831 -0.5824
 3830TIP3    H111454   0.981   1.851   3.506  1.9080 -1.5213  0.5562
 3830TIP3    H211455   0.972   1.993   3.556  1.3027 -0.7767 -1.6105
 3831TIP3   OH211456   3.383   1.126   3.693 -0.2942 -0.3911  0.7565
 3831TIP3    H111457   3.310   1.185   3.676  0.5078  0.6985  1.0039
 3831TIP3    H211458   3.372   1.101   3.785  0.8829  1.6058  1.5039
 3832TIP3   OH211459   2.693   3.068   4.905  0.1923  0.1639  0.4429
 3832TIP3    H111460   2.612   3.018   4.912  1.3856 -1.8586  0.4869
 3832TIP3    H211461   2.757   3.006   4.870  1.4088  2.0904 -0.9850
 3833TIP3   OH211462   4.419   3.131   2.785 -1.0196  0.6284  0.1375
 3833TIP3    H111463   4.338   3.166   2.749 -0.0934  1.2823 -1.3904
 3833TIP3    H211464   4.473   3.209   2.802  0.7003  0.0961 -2.3846
 3834TIP3   OH211465   1.685   4.660   5.287  0.2371 -0.2762  0.0330
 3834TIP3    H111466   1.703   4.595   5.355  1.3392  0.9806  0.9815
 3834TIP3    H211467   1.635   4.729   5.332  3.5877  2.0805  0.4726
 3835TIP3   OH211468   0.872   0.460   0.675 -0.5214  0.1507  0.0850
 3835TIP3    H111469   0.926   0.509   0.737 -0.8798  0.4587  0.1525
 3835TIP3    H211470   0.797   0.517   0.658  0.0121  0.4604 -1.3184
 3836TIP3   OH211471   1.429   1.299   4.091  0.5148 -0.0776  0.7241
 3836TIP3    H111472   1.512   1.328   4.131  0.4456 -1.3766  1.8992
 3836TIP3    H211473   1.375   1.274   4.166 -1.0645  0.9879 -0.0108
 3837TIP3   OH211474   0.489   2.546   0.688  0.6566 -0.3696  0.0790
 3837TIP3    H111475   0.566   2.602   0.683 -1.8791  3.3800 -0.4542
 3837TIP3    H211476   0.477   2.513   0.599  1.4763 -0.8605  0.1361
 3838TIP3   OH211477   4.352   5.273   4.750 -0.0221 -0.0683 -0.0655
 3838TIP3    H111478   4.289   5.296   4.682 -0.3620  0.2665  0.3518
 3838TIP3    H211479   4.345   5.178   4.759  0.0303 -0.1122 -0.5060
 3839TIP3   OH211480   6.049   6.286   5.059  0.5588 -0.6379  0.1960
 3839TIP3    H111481   6.122   6.345   5.042  1.5171 -1.5185  1.1202
 3839TIP3    H211482   6.016   6.313   5.144 -0.8348  0.3660 -0.6275
 3840TIP3   OH211483   6.080   0.114   5.199  0.1655  0.7819  0.4145
 3840TIP3    H111484   6.004   0.111   5.141 -0.7813  0.6717  1.6206
 3840TIP3    H211485   6.046   0.150   5.282  1.2378 -0.0304  1.2382
 3841TIP3   OH211486   7.219   4.270   4.807  0.4616  0.3704 -0.2225
 3841TIP3    H111487   7.244   4.336   4.872  1.5389  0.4277 -0.6847
 3841TIP3    H211488   7.127   4.289   4.788  0.2141  0.5451  1.0556
 3842TIP3   OH211489   5.775   4.743   0.217  0.1013 -0.2881  0.0561
 3842TIP3    H111490   5.870   4.742   0.222  0.0833 -2.0828  1.0565
 3842TIP3    H211491   5.753   4.657   0.181 -1.1904 -0.8389  2.0134
 3843TIP3   OH211492   2.081   4.018   2.191 -0.3681 -0.2636  0.2210
 3843TIP3    H111493   2.020   4.068   2.245 -1.0052 -0.5381 -0.2290
 3843TIP3    H211494   2.133   3.968   2.254  0.0657  0.7157  0.6570
 3844TIP3   OH211495   0.285   0.319   4.063 -0.2241 -0.2474 -0.4337
 3844TIP3    H111496   0.221   0.379   4.100  0.6056 -0.1941  0.9488
 3844TIP3    H211497   0.355   0.314   4.127 -0.4776 -3.0737 -0.2229
 3845TIP3   OH211498   2.449   6.525   4.116 -0.1363 -0.0947 -0.7211
 3845TIP3    H111499   2.431   6.615   4.089  0.4695 -0.5629 -2.8060
 3845TIP3    H211500   2.452   6.475   4.035  4.8290 -1.0913 -0.2194
 3846TIP3   OH211501   1.621   2.995   1.306  0.1422  0.8403  0.8165
 3846TIP3    H111502   1.644   2.928   1.242  0.1798  0.6483  1.0327
 3846TIP3    H211503   1.703   3.041   1.324  0.3948  0.0538  1.7075
 3847TIP3   OH211504   6.248   4.059   5.280 -0.1578 -0.2685 -0.7677
 3847TIP3    H111505   6.308   4.005   5.331 -0.7692 -0.2002  0.0494
 3847TIP3    H211506   6.170   4.066   5.334  0.1216  1.9382 -0.5510
 3848TIP3   OH211507   7.020   3.546   0.935  0.2203  0.0059  0.7483
 3848TIP3    H111508   7.000   3.459   0.902  0.6788  0.4961 -0.9612
 3848TIP3    H211509   7.113   3.558   0.915  0.1467  0.8901  0.8945
 3849TIP3   OH211510   6.531   2.483   1.594 -0.1853 -0.5915  0.7380
 3849TIP3    H111511   6.591   2.422   1.636 -1.6330 -1.7044  1.2732
 3849TIP3    H211512   6.450   2.434   1.584 -1.0220  0.8633  0.0255
 3850TIP3   OH211513   1.988   3.014   2.784  0.0875 -0.2154  0.0621
 3850TIP3    H111514   2.010   3.027   2.877 -1.3517  0.7078  0.3064
 3850TIP3    H211515   2.072   2.995   2.742  0.7347 -0.8899  1.5907
 3851TIP3   OH211516   2.357   3.830   0.353  0.2169 -0.0193  0.4004
 3851TIP3    H111517   2.300   3.893   0.308  1.3959  1.8184  1.3302
 3851TIP3    H211518   2.297   3.764   0.389 -0.8619 -0.8393 -2.6526
 3852TIP3   OH211519   2.657   2.068   2.567 -0.5211 -0.0290  0.0162
 3852TIP3    H111520   2.731   2.129   2.568 -0.9033  0.4464 -0.0546
 3852TIP3    H211521   2.654   2.032   2.655 -0.3061  0.0776  0.0672
 3853TIP3   OH211522   4.998   2.954   5.399 -0.2792  0.1022  0.2237
 3853TIP3    H111523   4.937   3.024   5.377  0.8409  0.6606 -1.3294
 3853TIP3    H211524   5.049   2.990   5.472 -1.4131 -0.1623  1.1755
 3854TIP3   OH211525   6.302   2.726   4.766  0.0155  0.6108  0.2504
 3854TIP3    H111526   6.386   2.694   4.732 -0.2611 -0.1708  0.2860
 3854TIP3    H211527   6.255   2.647   4.792 -0.5850  1.0691  0.5838
 3855TIP3   OH211528   0.620   0.718   5.313  0.0098  0.0384  0.0056
 3855TIP3    H111529   0.537   0.756   5.342 -0.6211 -0.0660 -1.5415
 3855TIP3    H211530   0.686   0.769   5.358 -0.8761 -0.7211  2.2876
 3856TIP3   OH211531   3.270   4.272   2.295 -0.5560 -0.6347  0.4907
 3856TIP3    H111532   3.330   4.222   2.241  4.2779  2.6639  2.1030
 3856TIP3    H211533   3.240   4.343   2.239  1.0269  0.3734  0.8560
 3857TIP3   OH211534   0.548   0.266   5.608 -0.1362 -0.0461  0.0041
 3857TIP3    H111535   0.545   0.362   5.598 -0.7466  0.3186  2.8578
 3857TIP3    H211536   0.627   0.250   5.660 -1.1028 -0.8462  1.2812
 3858TIP3   OH211537   5.373   6.480   5.411  0.2743  0.2847  0.2648
 3858TIP3    H111538   5.284   6.448   5.421  0.0983  0.9052  0.7750
 3858TIP3    H211539   5.363   6.571   5.384  0.7661 -0.1191 -1.3914
 3859TIP3   OH211540   5.364   2.582   3.633 -0.3202 -0.0638 -0.7184
 3859TIP3    H111541   5.400   2.524   3.700 -1.5713 -1.9966 -1.6378
 3859TIP3    H211542   5.430   2.582   3.564 -0.3013 -0.3495 -0.6996
 3860TIP3   OH211543   2.792   2.531   0.572  0.2010  0.1552  0.1365
 3860TIP3    H111544   2.860   2.598   0.574 -0.5270  0.9020  0.5255
 3860TIP3    H211545   2.727   2.560   0.636 -0.4874 -0.5336 -0.2267
 3861TIP3   OH211546   1.858   4.245   5.591 -0.5497  0.3000  0.2992
 3861TIP3    H111547   1.779   4.191   5.590 -0.1115 -0.5387  3.0741
 3861TIP3    H211548   1.828   4.332   5.617 -0.6213  0.0675  1.0083
 3862TIP3   OH211549   2.325   6.772   2.425 -0.2813  1.0542  0.4823
 3862TIP3    H111550   2.299   6.711   2.494  0.2845 -1.3823 -1.3486
 3862TIP3    H211551   2.246   6.823   2.406 -1.1430  0.0142  1.1792
 3863TIP3   OH211552   0.700   2.830   2.741 -0.2645 -0.6477 -0.1670
 3863TIP3    H111553   0.757   2.773   2.689  0.0872  0.2873 -0.8342
 3863TIP3    H211554   0.759   2.897   2.776 -0.6912 -0.6143  0.5164
 3864TIP3   OH211555   6.842   6.486   2.274  0.0917 -0.3821  0.2378
 3864TIP3    H111556   6.802   6.399   2.284 -0.3944 -0.0472  1.2910
 3864TIP3    H211557   6.818   6.513   2.185  1.1440 -1.7577 -0.5036
 3865TIP3   OH211558   1.103   2.224   4.566 -0.3350  0.6330  0.3572
 3865TIP3    H111559   1.011   2.246   4.554 -0.1369  1.9527  1.1033
 3865TIP3    H211560   1.125   2.172   4.488 -1.8998 -0.4165  0.5674
 3866TIP3   OH211561   1.770   0.230   0.241  0.5007  0.1887 -0.0123
 3866TIP3    H111562   1.711   0.154   0.235  1.8649 -1.0165  1.1756
 3866TIP3    H211563   1.854   0.197   0.209  1.2056  1.1017  0.8465
 3867TIP3   OH211564   4.322   0.442   4.580 -1.1422  0.9775  0.2652
 3867TIP3    H111565   4.372   0.507   4.629  1.9732 -1.4431  0.5920
 3867TIP3    H211566   4.231   0.458   4.606 -0.5672  4.9011  0.5210
 3868TIP3   OH211567   0.768   2.817   0.315 -0.0315  0.4284  0.4290
 3868TIP3    H111568   0.708   2.889   0.330 -1.7457 -0.4356 -1.7704
 3868TIP3    H211569   0.848   2.858   0.283 -1.1950  1.4033 -1.3966
 3869TIP3   OH211570   6.939   2.837   5.517 -0.1270  0.1166 -0.0198
 3869TIP3    H111571   6.846   2.825   5.539  0.1693  0.1057  1.3473
 3869TIP3    H211572   6.966   2.912   5.571 -0.0005  1.9373 -2.4462
 3870TIP3   OH211573   4.312   0.010   3.936 -0.5155 -0.3989 -0.1531
 3870TIP3    H111574   4.352   0.047   3.857 -0.2052 -0.9949 -0.2784
 3870TIP3    H211575   4.295   0.086   3.992  1.9023 -0.1791  0.4007
 3871TIP3   OH211576   5.046   3.156   0.419 -0.7277  0.1190  0.2162
 3871TIP3    H111577   4.957   3.140   0.450 -1.2269  0.5826 -0.9358
 3871TIP3    H211578   5.039   3.233   0.362  0.7345  1.3665  1.6001
 3872TIP3   OH211579   6.937   1.992   4.411 -0.3143  0.3312  0.0210
 3872TIP3    H111580   6.938   1.982   4.506 -0.7477 -0.3204 -0.0409
 3872TIP3    H211581   6.864   2.051   4.394 -0.3837  0.2603  0.0738
 3873TIP3   OH211582   1.600   0.366   5.758  0.4415  0.2783 -0.1314
 3873TIP3    H111583   1.642   0.301   5.703  1.7466  0.4025  0.6738
 3873TIP3    H211584   1.577   0.319   5.838  0.2143  0.5076 -0.0610
 3874TIP3   OH211585   5.576   0.213   1.820 -0.1750 -0.0760  0.3712
 3874TIP3    H111586   5.540   0.124   1.826  3.1229 -1.7193 -1.1924
 3874TIP3    H211587   5.634   0.210   1.744  2.1793  2.5924  1.8627
 3875TIP3   OH211588   3.838   6.446   4.476  0.3086  0.2458 -0.3340
 3875TIP3    H111589   3.812   6.501   4.403 -1.6977 -1.5072 -1.0277
 3875TIP3    H211590   3.766   6.453   4.539  1.2415  0.4293  0.7476
 3876TIP3   OH211591   6.898   6.400   0.133  0.0854 -0.0849  0.1038
 3876TIP3    H111592   6.946   6.416   0.214 -0.1861 -1.6319  0.6007
 3876TIP3    H211593   6.960   6.354   0.077 -0.2230 -0.4187  0.0318
 3877TIP3   OH211594   4.348   6.714   1.274 -0.1900 -0.3604 -0.4360
 3877TIP3    H111595   4.408   6.786   1.291  0.7767 -0.6282 -2.4549
 3877TIP3    H211596   4.275   6.754   1.227 -0.9680 -0.2826  0.7840
 3878TIP3   OH211597   3.398   2.665   4.688  0.2098  0.5285  0.2546
 3878TIP3    H111598   3.401   2.674   4.593 -0.7617  2.1680  0.3469
 3878TIP3    H211599   3.487   2.687   4.717  1.1005 -1.9331 -0.3537
 3879TIP3   OH211600   0.841   5.235   0.739  0.1896  0.2396 -0.5415
 3879TIP3    H111601   0.889   5.168   0.689 -0.5644 -0.9383  0.2677
 3879TIP3    H211602   0.750   5.225   0.711 -0.2852 -0.5999  1.2049
 3880TIP3   OH211603   3.651   3.293   4.190  0.1706 -0.3749 -0.6496
 3880TIP3    H111604   3.611   3.296   4.102 -0.8970  0.4150 -0.1552
 3880TIP3    H211605   3.717   3.224   4.183  0.0065 -0.4293 -2.0364
 3881TIP3   OH211606   7.057   0.712   1.460 -0.2460  0.1828 -0.9552
 3881TIP3    H111607   7.060   0.770   1.383 -0.2970 -1.0772 -1.9442
 3881TIP3    H211608   6.966   0.715   1.488  0.0237  1.6316 -0.1359
 3882TIP3   OH211609   1.175   3.329   5.407 -0.3041  0.5502 -1.0208
 3882TIP3    H111610   1.091   3.283   5.401  0.2487 -0.5185 -0.7400
 3882TIP3    H211611   1.205   3.335   5.316  0.1170 -0.6227 -0.9790
 3883TIP3   OH211612   2.306   3.269   1.985 -0.2820  0.2934 -0.2054
 3883TIP3    H111613   2.395   3.240   1.964 -0.7594 -1.2627 -0.1654
 3883TIP3    H211614   2.253   3.236   1.913 -0.9252  0.7292  0.0635
 3884TIP3   OH211615   6.553   2.267   2.881 -0.6071 -0.1395  0.3882
 3884TIP3    H111616   6.556   2.329   2.954 -0.7280 -0.4246  0.6367
 3884TIP3    H211617   6.616   2.301   2.818 -1.8239  1.1433 -0.2071
 3885TIP3   OH211618   2.811   5.674   5.825  0.1399  0.5959 -0.2560
 3885TIP3    H111619   2.761   5.740   5.777  0.3596 -0.2943 -1.7751
 3885TIP3    H211620   2.883   5.651   5.766  0.7417 -0.1461  0.7433
 3886TIP3   OH211621   3.442   5.697   5.121  0.0023  0.3063  1.2725
 3886TIP3    H111622   3.401   5.770   5.167 -0.9887 -0.4540  1.6366
 3886TIP3    H211623   3.380   5.625   5.130 -0.3021  0.1424 -1.3712
 3887TIP3   OH211624   2.780   5.106   0.742 -0.1317 -0.3311  0.1382
 3887TIP3    H111625   2.754   5.022   0.704  0.5116 -0.1459 -0.7313
 3887TIP3    H211626   2.756   5.099   0.834  1.0761 -1.9555  0.3689
 3888TIP3   OH211627   5.113   5.067   0.231  0.1779  0.4886  0.3404
 3888TIP3    H111628   5.206   5.086   0.231 -0.0192  1.5138  0.1090
 3888TIP3    H211629   5.089   5.060   0.139 -0.1018  0.8980  0.3803
 3889TIP3   OH211630   4.198   1.684   5.459 -0.9424 -0.0589  0.1807
 3889TIP3    H111631   4.220   1.765   5.504 -1.7179  1.0419 -1.3611
 3889TIP3    H211632   4.266   1.672   5.393 -1.6800  0.2027 -0.6480
 3890TIP3   OH211633   2.612   0.497   3.906  0.8396  0.2275 -0.1329
 3890TIP3    H111634   2.671   0.516   3.979  0.0217 -0.5048  0.7476
 3890TIP3    H211635   2.525   0.511   3.942  0.4482  0.7506 -1.2515
 3891TIP3   OH211636   1.293   5.800   2.863  0.4254  0.1167  0.3091
 3891TIP3    H111637   1.305   5.895   2.869  1.9272 -0.0224 -0.0058
 3891TIP3    H211638   1.205   5.784   2.897  1.1358  1.3512  2.9517
 3892TIP3   OH211639   4.646   4.725   4.995  0.3403  0.3932  0.5036
 3892TIP3    H111640   4.564   4.676   4.983  1.0231 -1.1721  1.8553
 3892TIP3    H211641   4.619   4.808   5.033 -0.6449 -0.0268  0.7540
 3893TIP3   OH211642   4.465   3.698   1.544  0.2954  0.2162  0.1563
 3893TIP3    H111643   4.502   3.618   1.507 -1.1304  0.2734 -1.5285
 3893TIP3    H211644   4.516   3.769   1.505  0.6782  0.1892  0.5967
 3894TIP3   OH211645   1.370   0.476   4.117  0.4742 -0.0941 -0.4359
 3894TIP3    H111646   1.343   0.563   4.147  0.1585 -0.5872  0.7678
 3894TIP3    H211647   1.438   0.494   4.052 -0.8219  1.0925 -1.5552
 3895TIP3   OH211648   0.703   2.667   5.681  0.3573  0.5506  0.5083
 3895TIP3    H111649   0.703   2.601   5.750  2.1648 -0.0295 -0.0010
 3895TIP3    H211650   0.790   2.706   5.685 -0.2485  2.0405 -0.0408
 3896TIP3   OH211651   4.401   6.492   0.672 -0.1711 -0.0129  0.7826
 3896TIP3    H111652   4.480   6.516   0.623  0.2002 -0.3043  1.2274
 3896TIP3    H211653   4.361   6.422   0.622 -0.8905  1.0442 -0.1647
 3897TIP3   OH211654   2.975   4.514   4.514  0.2730  0.0152  0.4885
 3897TIP3    H111655   2.975   4.497   4.420  0.5106 -0.6899  0.6063
 3897TIP3    H211656   2.919   4.445   4.551  0.9646 -0.3118  0.9564
 3898TIP3   OH211657   6.626   4.096   5.073  0.0125  0.6588  0.1164
 3898TIP3    H111658   6.581   4.030   5.021  0.8162  0.3427 -0.1882
 3898TIP3    H211659   6.615   4.066   5.164  0.5826 -0.0237 -0.0368
 3899TIP3   OH211660   2.567   5.690   3.584 -0.6401  0.1063  0.0865
 3899TIP3    H111661   2.645   5.651   3.623 -0.0565  0.6000 -0.5532
 3899TIP3    H211662   2.493   5.644   3.625 -0.0126 -0.4443  0.6126
 3900TIP3   OH211663   3.765   0.142   1.815  0.6438  0.0875  0.3129
 3900TIP3    H111664   3.765   0.201   1.890 -0.3880 -0.3903  0.7026
 3900TIP3    H211665   3.728   0.060   1.848  1.6268 -0.6384 -0.3383
 3901TIP3   OH211666   5.338   4.077   4.611 -0.6245  0.6253 -0.0736
 3901TIP3    H111667   5.368   4.096   4.522  1.8739  0.0877  0.6029
 3901TIP3    H211668   5.327   3.982   4.613  1.2821  0.3907  0.7195
 3902TIP3   OH211669   6.559   3.932   2.790 -0.0050  0.2401  0.2319
 3902TIP3    H111670   6.602   3.883   2.859  1.4820 -0.3392 -1.0471
 3902TIP3    H211671   6.606   4.015   2.785 -0.3726  0.4506  0.1750
 3903TIP3   OH211672   0.025   3.421   3.204 -0.2402 -0.0420  0.4502
 3903TIP3    H111673   0.119   3.418   3.185  0.2658  0.6499  2.5462
 3903TIP3    H211674  -0.003   3.506   3.170 -0.9757 -1.5833 -3.3010
 3904TIP3   OH211675   3.978   2.821   0.855  0.0913  0.9518  0.2071
 3904TIP3    H111676   4.042   2.890   0.871  3.0566 -1.3349 -0.9115
 3904TIP3    H211677   3.908   2.863   0.806 -0.1190  3.8935  2.7259
 3905TIP3   OH211678   1.678   5.771   1.755  0.0062 -0.3991 -0.0309
 3905TIP3    H111679   1.773   5.762   1.744 -0.1077 -3.1607  0.5609
 3905TIP3    H211680   1.647   5.802   1.670  1.2379 -1.5010 -0.9264
 3906TIP3   OH211681   7.055   3.324   2.928  0.2850 -0.6700 -0.1253
 3906TIP3    H111682   7.132   3.342   2.982  1.7027 -0.5488 -2.1155
 3906TIP3    H211683   7.044   3.402   2.874 -0.3952 -1.2375 -0.8312
 3907TIP3   OH211684   5.784   4.551   2.093 -0.3505  0.5597  0.1999
 3907TIP3    H111685   5.725   4.616   2.055 -1.3154  0.3275  1.2477
 3907TIP3    H211686   5.730   4.472   2.100  0.0869  0.3304  1.1436
 3908TIP3   OH211687   7.179   0.493   1.826 -0.2066  0.0930 -0.2895
 3908TIP3    H111688   7.115   0.489   1.897  0.6464  0.7824  0.5396
 3908TIP3    H211689   7.178   0.585   1.799  0.5212  0.1444 -0.1707
 3909TIP3   OH211690   7.076   1.755   0.881  0.0303  0.0419 -0.2442
 3909TIP3    H111691   7.071   1.684   0.946  0.7722  0.4922  0.3195
 3909TIP3    H211692   6.994   1.748   0.832  0.4515 -1.7441 -0.7746
 3910TIP3   OH211693   4.419   2.899   0.379 -0.4659  0.0816  0.0757
 3910TIP3    H111694   4.407   2.971   0.317  0.9967 -0.8744 -1.4169
 3910TIP3    H211695   4.510   2.907   0.409 -0.2416 -1.1602 -0.1909
 3911TIP3   OH211696   3.469   6.041   4.201  0.2087 -0.0102  0.5710
 3911TIP3    H111697   3.503   5.959   4.238  0.7897  0.1758  0.4660
 3911TIP3    H211698   3.382   6.049   4.238  0.1577 -0.6594  0.6134
 3912TIP3   OH211699   5.879   5.408   4.292  0.3426 -0.0158  0.1254
 3912TIP3    H111700   5.785   5.400   4.275  0.2935  0.1131  0.3356
 3912TIP3    H211701   5.891   5.499   4.317  0.7444  0.3378 -1.2456
 3913TIP3   OH211702   6.117   5.795   5.048 -0.7343  0.5393 -0.1434
 3913TIP3    H111703   6.191   5.814   5.105 -0.1687  0.3490 -0.8014
 3913TIP3    H211704   6.054   5.864   5.066 -0.9329  0.0192  1.3263
 3914TIP3   OH211705   2.029   0.308   4.107  0.2377 -0.1038 -0.5018
 3914TIP3    H111706   1.942   0.310   4.069  0.9722 -1.6828 -2.4175
 3914TIP3    H211707   2.028   0.232   4.165  0.3132 -0.0527 -0.4332
 3915TIP3   OH211708   3.049   4.252   5.240  0.1817  0.0974  0.1433
 3915TIP3    H111709   3.095   4.264   5.323  1.3396  0.7720 -0.5757
 3915TIP3    H211710   3.083   4.170   5.205 -0.0668 -0.0217  0.1790
 3916TIP3   OH211711   6.130   2.887   1.885  0.1125 -0.2231 -0.0995
 3916TIP3    H111712   6.213   2.864   1.928 -1.1649 -0.4727  2.4148
 3916TIP3    H211713   6.068   2.823   1.919 -1.2474  0.2857 -1.5376
 3917TIP3   OH211714   3.130   3.771   5.338  0.4916  0.0006  1.1060
 3917TIP3    H111715   3.120   3.712   5.413 -0.5329  1.0164  1.7978
 3917TIP3    H211716   3.224   3.769   5.319  0.5902 -1.2304  1.6119
 3918TIP3   OH211717   1.138   2.888   5.738 -0.5141 -0.1027  0.3544
 3918TIP3    H111718   1.067   2.946   5.764 -1.7523 -2.1937  1.9487
 3918TIP3    H211719   1.213   2.915   5.792 -0.1653  1.8055 -0.9986
 3919TIP3   OH211720   3.981   1.059   2.247 -0.2327 -0.5923  0.3363
 3919TIP3    H111721   3.930   1.020   2.175  1.5295 -1.1164 -0.6704
 3919TIP3    H211722   4.003   0.985   2.303  2.7916 -1.1334 -1.3756
 3920TIP3   OH211723   0.072   3.280   0.242  0.2291 -0.0773  0.2373
 3920TIP3    H111724   0.145   3.237   0.286  1.4672  0.7697 -0.8956
 3920TIP3    H211725  -0.002   3.271   0.302  1.1878 -1.2104  1.2887
 3921TIP3   OH211726   3.681   0.714   0.194  0.1320 -0.0606  0.5641
 3921TIP3    H111727   3.592   0.716   0.230 -0.2744  0.3413 -0.4244
 3921TIP3    H211728   3.680   0.638   0.135  0.1315  0.5378 -0.2124
 3922TIP3   OH211729   5.447   6.607   4.982 -0.6920  0.1543  0.2648
 3922TIP3    H111730   5.374   6.630   5.038 -0.2163 -1.0077  1.4238
 3922TIP3    H211731   5.447   6.511   4.980  2.1071 -0.0241  2.2203
 3923TIP3   OH211732   3.590   1.680   1.412  0.5246  0.0368  0.1252
 3923TIP3    H111733   3.552   1.598   1.380  0.3400 -0.0651  0.5948
 3923TIP3    H211734   3.534   1.748   1.376 -0.0977 -0.1090  0.7799
 3924TIP3   OH211735   3.939   1.913   3.034 -0.2713  0.2122 -0.0018
 3924TIP3    H111736   3.876   1.963   2.981  0.0003 -0.2412 -0.7689
 3924TIP3    H211737   4.015   1.970   3.041 -1.0585  1.1368  1.6801
 3925TIP3   OH211738   5.623   5.138   0.948 -0.1672  0.0923 -0.6902
 3925TIP3    H111739   5.676   5.205   0.905  1.1140  0.2699  1.0588
 3925TIP3    H211740   5.557   5.113   0.882 -1.8484  4.2757 -0.9190
 3926TIP3   OH211741   5.093   2.418   4.067 -0.5790 -0.1562 -0.0400
 3926TIP3    H111742   5.018   2.452   4.018 -0.3632  0.9241  0.3372
 3926TIP3    H211743   5.064   2.334   4.102 -0.6308 -1.1729 -2.3139
 3927TIP3   OH211744   6.610   4.830   2.900 -0.1845 -0.4242  0.0697
 3927TIP3    H111745   6.701   4.833   2.872 -0.2420 -1.6434 -0.3194
 3927TIP3    H211746   6.583   4.739   2.885 -0.9894 -0.4857  1.6895
 3928TIP3   OH211747   0.693   4.594   2.038 -0.0363 -0.0361  0.2085
 3928TIP3    H111748   0.725   4.554   2.119 -0.3676  0.3786  0.5478
 3928TIP3    H211749   0.612   4.637   2.063  1.4335  2.8309  0.4194
 3929TIP3   OH211750   5.813   3.044   0.328  0.3923 -0.0124 -0.0940
 3929TIP3    H111751   5.820   3.052   0.233  1.0732  1.9356  0.0679
 3929TIP3    H211752   5.903   3.049   0.360  0.0312  2.3036  0.7656
 3930TIP3   OH211753   5.674   0.350   3.712  0.1040 -0.2004 -0.2515
 3930TIP3    H111754   5.684   0.327   3.620 -0.9936 -2.2502  0.0804
 3930TIP3    H211755   5.582   0.375   3.721  0.4063  0.8191  0.1412
 3931TIP3   OH211756   3.094   1.721   4.550  0.7980 -0.1967 -0.0140
 3931TIP3    H111757   3.186   1.735   4.568  0.3245  1.0452  1.7145
 3931TIP3    H211758   3.073   1.638   4.593  0.6963  0.5004  1.3269
 3932TIP3   OH211759   4.712   2.655   4.730  0.7735 -0.7030  0.0366
 3932TIP3    H111760   4.796   2.612   4.711  2.2218  2.2419 -0.7734
 3932TIP3    H211761   4.659   2.639   4.652  0.9842 -1.6301  0.0726
 3933TIP3   OH211762   3.617   3.488   5.417  0.2423 -0.1112  0.1521
 3933TIP3    H111763   3.695   3.455   5.461  0.3406 -0.1334 -0.0418
 3933TIP3    H211764   3.550   3.421   5.434  0.5890 -0.6915 -0.7186
 3934TIP3   OH211765   4.615   1.739   4.456  0.1775  0.2555 -0.3038
 3934TIP3    H111766   4.581   1.695   4.534  0.0709  2.8929  1.2557
 3934TIP3    H211767   4.538   1.767   4.408  0.1775  1.2808  0.2682
 3935TIP3   OH211768   5.296   5.666   5.765 -0.7827  0.1828  0.5739
 3935TIP3    H111769   5.375   5.617   5.788 -0.0782  0.9374 -0.1713
 3935TIP3    H211770   5.230   5.635   5.827  0.2091 -0.1279  1.5117
 3936TIP3   OH211771   6.256   3.797   3.278 -0.5872 -0.4832  0.0885
 3936TIP3    H111772   6.291   3.760   3.359  2.1587 -0.6528 -1.0967
 3936TIP3    H211773   6.273   3.891   3.286  1.0321 -0.6656 -0.8513
 3937TIP3   OH211774   2.090   2.993   2.039  0.1408  0.4783 -0.2813
 3937TIP3    H111775   2.112   3.054   1.969  1.5269  0.8004  0.3858
 3937TIP3    H211776   2.093   3.046   2.119  1.6968 -0.4679  0.3504
 3938TIP3   OH211777   1.131   6.402   4.513  0.4474  0.4540  0.0412
 3938TIP3    H111778   1.174   6.342   4.452 -1.3002  1.4787 -2.3584
 3938TIP3    H211779   1.131   6.356   4.597  0.3250 -2.3604 -1.4018
 3939TIP3   OH211780   1.415   2.020   4.337  0.2232 -0.2101  0.0994
 3939TIP3    H111781   1.325   2.047   4.319  0.6345  2.1596  1.1711
 3939TIP3    H211782   1.466   2.056   4.264  0.6498  1.2055  1.0452
 3940TIP3   OH211783   2.754   5.888   2.373 -0.2273  0.9972  0.0006
 3940TIP3    H111784   2.687   5.824   2.350 -1.0000  1.8228 -0.1234
 3940TIP3    H211785   2.810   5.843   2.435 -1.3201  0.5104  0.6632
 3941TIP3   OH211786   5.585   2.064   0.284  0.1563 -0.1837  0.1022
 3941TIP3    H111787   5.680   2.052   0.276  0.2140  0.2071  0.1493
 3941TIP3    H211788   5.554   2.065   0.193  0.4522  1.5350 -0.0256
 3942TIP3   OH211789   5.466   4.501   5.381 -0.1228 -0.4487 -0.3656
 3942TIP3    H111790   5.439   4.460   5.299 -1.5217  1.3259 -0.8659
 3942TIP3    H211791   5.451   4.433   5.447 -0.8090 -1.2793 -1.3363
 3943TIP3   OH211792   4.436   0.267   2.829 -0.2763 -0.0319  0.0011
 3943TIP3    H111793   4.390   0.229   2.755 -0.0179  2.1168 -1.3582
 3943TIP3    H211794   4.528   0.266   2.804 -0.1277  0.2449  0.5179
 3944TIP3   OH211795   0.730   2.850   5.020  0.3734 -0.1986 -0.4095
 3944TIP3    H111796   0.766   2.788   5.084 -1.1354 -0.6552  0.0404
 3944TIP3    H211797   0.636   2.832   5.020  0.2658  0.1823 -2.3620
 3945TIP3   OH211798   0.643   3.162   5.205 -0.1450 -0.4186  0.3517
 3945TIP3    H111799   0.588   3.126   5.135 -0.3272 -2.0515  1.2964
 3945TIP3    H211800   0.643   3.095   5.273  0.3998  0.9319  1.7474
 3946TIP3   OH211801   0.222   3.511   5.352 -0.0885 -0.2139  0.2930
 3946TIP3    H111802   0.178   3.465   5.279 -0.6521 -0.9883  1.1000
 3946TIP3    H211803   0.275   3.578   5.309 -0.4965 -0.5818 -0.8324
 3947TIP3   OH211804   7.040   0.895   3.276  0.0949  0.1039 -0.4645
 3947TIP3    H111805   7.030   0.875   3.369  0.5391  1.9179 -0.0057
 3947TIP3    H211806   7.034   0.809   3.233 -0.6768 -0.7065  1.1665
 3948TIP3   OH211807   2.432   2.277   2.439  0.5824  0.0156  0.0933
 3948TIP3    H111808   2.468   2.325   2.364 -1.2230 -0.3439 -1.0556
 3948TIP3    H211809   2.465   2.187   2.428 -0.3507 -0.2402 -0.7884
 3949TIP3   OH211810   5.834   1.805   5.281  0.1078 -0.3697 -0.4120
 3949TIP3    H111811   5.747   1.771   5.259  0.8640 -3.2500  0.6456
 3949TIP3    H211812   5.892   1.769   5.214  0.7783 -0.1924  0.0582
 3950TIP3   OH211813   5.021   4.590   2.952 -0.0745  0.3770  0.1806
 3950TIP3    H111814   5.057   4.507   2.921  0.5411  0.4570  0.6658
 3950TIP3    H211815   5.051   4.655   2.889 -0.2588  0.2829 -0.0032
 3951TIP3   OH211816   2.436   1.758   5.235 -0.0935  0.1358 -0.1610
 3951TIP3    H111817   2.504   1.786   5.297  0.6079 -0.8921 -0.4425
 3951TIP3    H211818   2.355   1.766   5.285  0.0603  2.5010 -0.1938
 3952TIP3   OH211819   5.060   6.693   0.124  0.6644 -0.6883  0.1634
 3952TIP3    H111820   5.049   6.753   0.051  2.0221 -0.4268  0.1601
 3952TIP3    H211821   5.131   6.730   0.176 -0.4489 -0.7204  1.7829
 3953TIP3   OH211822   6.868   0.652   1.823 -0.0575  0.4242 -0.0660
 3953TIP3    H111823   6.793   0.635   1.881  0.4769 -0.4664  0.3765
 3953TIP3    H211824   6.895   0.741   1.844  0.2963  0.0201  1.2662
 3954TIP3   OH211825   1.001   4.093   4.768 -0.1822  0.1744  0.4296
 3954TIP3    H111826   0.912   4.124   4.747  0.9189  2.6842 -0.9468
 3954TIP3    H211827   1.047   4.094   4.685  1.4718  0.0380  1.3010
 3955TIP3   OH211828   4.050   4.343   0.524  0.0522  0.4379 -0.2312
 3955TIP3    H111829   4.051   4.248   0.509 -0.5403  0.3580  0.1866
 3955TIP3    H211830   4.103   4.379   0.453 -0.9082 -0.0962 -1.2658
 3956TIP3   OH211831   0.590   5.051   3.529  0.3307  0.4197 -0.3613
 3956TIP3    H111832   0.645   4.986   3.485  0.8834  0.2909  0.4933
 3956TIP3    H211833   0.633   5.066   3.613 -2.0880 -1.3766  1.3652
 3957TIP3   OH211834   6.129   4.125   1.608  0.4039 -0.2707 -0.3446
 3957TIP3    H111835   6.123   4.031   1.625  1.1115 -0.3376 -0.4658
 3957TIP3    H211836   6.038   4.152   1.596  0.1605 -0.8532  0.1464
 3958TIP3   OH211837   6.911   4.830   2.844 -0.6532  0.0755  0.1231
 3958TIP3    H111838   6.937   4.794   2.759  1.0631  2.1260 -0.3141
 3958TIP3    H211839   6.971   4.789   2.907 -1.1872 -0.6003  0.2044
 3959TIP3   OH211840   7.045   3.409   4.680  0.7126 -0.6275  0.1120
 3959TIP3    H111841   7.126   3.381   4.723  1.0483 -0.9441 -0.7210
 3959TIP3    H211842   6.983   3.339   4.699  1.0728 -1.1348 -0.5283
 3960TIP3   OH211843   1.250   4.818   3.120 -0.0660  0.5062  0.0704
 3960TIP3    H111844   1.256   4.913   3.113 -2.3776  0.6451 -0.8047
 3960TIP3    H211845   1.286   4.785   3.038  3.1810  0.3973  1.3939
 3961TIP3   OH211846   3.582   0.088   1.090 -0.0102 -0.5848  0.0043
 3961TIP3    H111847   3.657   0.049   1.046 -2.1959 -3.7694 -1.2635
 3961TIP3    H211848   3.507   0.038   1.058 -2.6445  2.0197  1.6391
 3962TIP3   OH211849   4.571   4.046   1.787 -0.0329  0.3280 -0.3632
 3962TIP3    H111850   4.553   4.056   1.694 -0.9541  0.7670 -0.1522
 3962TIP3    H211851   4.522   4.116   1.829  0.1833 -0.0042  0.4744
 3963TIP3   OH211852   6.675   0.447   3.390 -0.2684  0.2704  0.2427
 3963TIP3    H111853   6.591   0.413   3.420  0.9118 -1.4428  1.8393
 3963TIP3    H211854   6.733   0.371   3.388  1.7216  1.6662  0.9780
 3964TIP3   OH211855   0.405   4.657   0.273  0.3533  0.0792 -0.3371
 3964TIP3    H111856   0.322   4.641   0.227  1.6287 -0.1185 -2.7339
 3964TIP3    H211857   0.413   4.753   0.276 -0.7587  0.1483  1.5199
 3965TIP3   OH211858   2.136   0.455   1.934  0.0041  0.9357 -0.6816
 3965TIP3    H111859   2.080   0.417   1.866 -1.3098  1.0811  0.2758
 3965TIP3    H211860   2.127   0.395   2.008  2.7201 -0.1286 -1.1098
 3966TIP3   OH211861   1.049   4.584   0.737 -0.2032 -0.2505 -0.1860
 3966TIP3    H111862   1.005   4.499   0.733  0.0541 -0.4328  0.6351
 3966TIP3    H211863   1.142   4.562   0.748 -0.3973  0.0792  2.9052
 3967TIP3   OH211864   5.200   3.171   3.101 -0.0341 -0.5599 -0.1127
 3967TIP3    H111865   5.218   3.094   3.047  1.0641  0.1365 -0.7936
 3967TIP3    H211866   5.204   3.138   3.191  2.3473 -0.9968 -0.2952
 3968TIP3   OH211867   5.869   0.735   0.403  0.1627  0.0930 -0.1501
 3968TIP3    H111868   5.954   0.775   0.419 -0.1406  0.0755  1.7078
 3968TIP3    H211869   5.889   0.643   0.385  0.5471  0.0667  0.3722
 3969TIP3   OH211870   5.929   2.023   2.990 -0.7297  0.0165  0.1991
 3969TIP3    H111871   5.874   2.052   3.063 -1.0234 -1.5965  0.6530
 3969TIP3    H211872   5.913   1.929   2.983 -1.6957  0.3011 -2.7964
 3970TIP3   OH211873   2.386   5.447   0.696 -0.6190  0.6570  0.7179
 3970TIP3    H111874   2.310   5.493   0.662  0.6712  2.0607 -0.4432
 3970TIP3    H211875   2.401   5.484   0.782 -2.0001 -0.5914  1.5343
 3971TIP3   OH211876   0.923   4.300   1.704 -0.7483  0.0266  0.1564
 3971TIP3    H111877   0.904   4.238   1.634 -2.1121  1.1017 -0.4728
 3971TIP3    H211878   0.865   4.374   1.687 -0.0681  0.9396  1.6040
 3972TIP3   OH211879   2.720   0.857   5.456 -0.3256 -0.2890  0.6048
 3972TIP3    H111880   2.771   0.937   5.471  1.0994 -0.9070 -0.7785
 3972TIP3    H211881   2.629   0.888   5.452  0.2233  1.3271 -0.2497
 3973TIP3   OH211882   4.455   1.213   2.955 -0.1504 -0.0644  0.5123
 3973TIP3    H111883   4.503   1.153   3.012  0.0711 -0.0887  0.3007
 3973TIP3    H211884   4.419   1.279   3.015 -0.5905 -0.5339  0.7734
 3974TIP3   OH211885   3.134   1.477   0.992 -0.4485 -0.3195 -0.4412
 3974TIP3    H111886   3.212   1.530   1.010  0.2545 -1.8744  1.4284
 3974TIP3    H211887   3.165   1.407   0.936 -0.9477  0.0940 -1.2590
 3975TIP3   OH211888   4.376   0.522   0.490 -0.7378 -0.3160  0.4716
 3975TIP3    H111889   4.318   0.598   0.502  1.0308  1.4358 -1.3367
 3975TIP3    H211890   4.316   0.448   0.478 -2.5470  0.9365  1.2489
 3976TIP3   OH211891   5.197   3.680   2.619  0.3541  0.3334  0.8551
 3976TIP3    H111892   5.123   3.684   2.680  0.2763  1.9720  0.6932
 3976TIP3    H211893   5.162   3.638   2.541 -0.0788  0.0199  1.2106
 3977TIP3   OH211894   2.888   3.141   2.230 -0.5811 -0.7163 -0.4079
 3977TIP3    H111895   2.975   3.141   2.189 -0.3812 -1.2019  0.0067
 3977TIP3    H211896   2.849   3.223   2.202  0.6036  0.2453  0.6060
 3978TIP3   OH211897   1.016   5.369   5.324  0.4219 -0.3167  0.5362
 3978TIP3    H111898   1.008   5.452   5.370  1.8862  0.6801 -0.8968
 3978TIP3    H211899   1.106   5.341   5.339  1.1674  0.3670 -2.1131
 3979TIP3   OH211900   4.985   6.377   2.870  0.0278  0.2775  0.0382
 3979TIP3    H111901   4.952   6.292   2.900  1.0756  0.0235  0.5195
 3979TIP3    H211902   4.971   6.375   2.775  0.5438 -0.6760 -0.0390
 3980TIP3   OH211903   6.578   4.209   4.554 -0.2072  0.1146  0.4694
 3980TIP3    H111904   6.617   4.144   4.612 -0.4471  0.9462  1.5933
 3980TIP3    H211905   6.650   4.266   4.530  0.4090 -1.5017 -1.9614
 3981TIP3   OH211906   7.226   0.602   3.065  0.2558 -0.4162 -0.0710
 3981TIP3    H111907   7.263   0.631   2.982  2.2065 -0.4201  0.7355
 3981TIP3    H211908   7.131   0.599   3.050  0.1542  3.4309 -1.1036
 3982TIP3   OH211909   2.536   1.856   3.468  0.1525  0.3895 -0.0621
 3982TIP3    H111910   2.549   1.790   3.536 -0.9535  0.7246  0.5071
 3982TIP3    H211911   2.602   1.923   3.487  0.4535  0.0441  0.1264
 3983TIP3   OH211912   2.113   2.006   2.180  0.2434 -0.2722 -0.1510
 3983TIP3    H111913   2.068   1.936   2.133  2.8688 -0.0686 -3.3119
 3983TIP3    H211914   2.195   1.968   2.209  1.7503  1.3457 -1.9782
 3984TIP3   OH211915   5.117   1.172   4.953  0.2963 -0.1385 -0.0212
 3984TIP3    H111916   5.127   1.261   4.919  1.7594  0.5142  1.9663
 3984TIP3    H211917   5.055   1.181   5.026 -0.9229 -1.1032 -0.8855
 3985TIP3   OH211918   3.513   3.074   0.315  0.9261  0.3331 -0.0667
 3985TIP3    H111919   3.499   3.008   0.247 -0.8316  1.6364 -1.0361
 3985TIP3    H211920   3.445   3.139   0.300  0.2608  0.5595  3.1427
 3986TIP3   OH211921   2.194   4.812   4.330 -0.5624  0.8670  0.7265
 3986TIP3    H111922   2.118   4.763   4.299 -0.1559  1.2170 -0.9467
 3986TIP3    H211923   2.162   4.901   4.342 -0.5780  0.8644  0.7036
 3987TIP3   OH211924   4.030   5.660   4.318 -0.5882  0.2201  0.1668
 3987TIP3    H111925   4.103   5.599   4.307  0.8781  1.6962  1.2634
 3987TIP3    H211926   4.019   5.700   4.232  0.3901  0.5068  0.1644
 3988TIP3   OH211927   2.393   2.157   4.605  0.1889 -0.0838  0.0320
 3988TIP3    H111928   2.446   2.147   4.684  0.6311  1.6339 -0.0170
 3988TIP3    H211929   2.337   2.232   4.623 -1.2941 -1.0140 -0.4646
 3989TIP3   OH211930   0.199   3.756   2.875 -0.1912 -0.2902  0.4013
 3989TIP3    H111931   0.135   3.827   2.867  1.2324  0.8892 -1.9340
 3989TIP3    H211932   0.259   3.785   2.943 -0.2052  0.2618  0.1834
 3990TIP3   OH211933   1.674   2.359   3.549  0.0029  0.4281  0.2246
 3990TIP3    H111934   1.627   2.397   3.475 -0.1557  1.3254  0.7729
 3990TIP3    H211935   1.615   2.292   3.583 -0.1831  0.4302 -0.0903
 3991TIP3   OH211936   2.911   6.575   5.577  0.1083 -0.8109  0.3860
 3991TIP3    H111937   2.857   6.601   5.502  0.5728  0.2849  0.4095
 3991TIP3    H211938   2.848   6.538   5.640 -0.3637 -1.1890 -0.2918
 3992TIP3   OH211939   0.770   1.455   3.390 -0.1880  0.1460 -0.2407
 3992TIP3    H111940   0.685   1.494   3.372  0.2249  1.0935 -0.1903
 3992TIP3    H211941   0.816   1.519   3.444  0.5510 -0.3607 -0.2355
 3993TIP3   OH211942   2.708   4.783   1.442  0.1064 -0.1839  0.1743
 3993TIP3    H111943   2.652   4.718   1.399  0.6450 -0.6126  0.1205
 3993TIP3    H211944   2.702   4.860   1.385  1.3277 -0.9566 -1.0614
 3994TIP3   OH211945   5.394   3.309   1.384  0.2963  0.6796 -0.8472
 3994TIP3    H111946   5.393   3.294   1.478 -0.1186 -0.2110 -0.9918
 3994TIP3    H211947   5.313   3.356   1.367 -1.1513 -1.7898 -1.1651
 3995TIP3   OH211948   0.214   4.408   3.654 -0.2909 -0.4222  0.4852
 3995TIP3    H111949   0.160   4.379   3.728 -0.2065 -1.7337  0.0572
 3995TIP3    H211950   0.301   4.372   3.673  0.4726  1.6278  1.1442
 3996TIP3   OH211951   2.715   5.936   3.556  0.6055 -0.6835 -0.3662
 3996TIP3    H111952   2.728   5.996   3.629  3.5815 -1.4219 -0.1716
 3996TIP3    H211953   2.677   5.858   3.595  1.3603 -0.7467  0.2745
 3997TIP3   OH211954   6.036   2.571   5.371 -0.5320 -0.4547  0.4445
 3997TIP3    H111955   6.028   2.524   5.287 -0.9747  1.5366 -0.6931
 3997TIP3    H211956   6.106   2.635   5.356 -0.1018 -0.5672  1.8675
 3998TIP3   OH211957   6.770   0.238   4.950 -0.2370 -0.1982  0.6731
 3998TIP3    H111958   6.779   0.327   4.986 -0.6557 -0.3470  1.1608
 3998TIP3    H211959   6.760   0.182   5.027  1.7056 -0.8936  0.4600
 3999TIP3   OH211960   4.961   3.254   3.272  0.1161 -0.3168 -0.0889
 3999TIP3    H111961   5.033   3.263   3.334  0.4171  2.0638 -0.6681
 3999TIP3    H211962   4.888   3.223   3.325  1.2360 -1.6915  0.7354
 4000TIP3   OH211963   1.415   5.454   2.847 -0.1497 -0.0500 -0.7029
 4000TIP3    H111964   1.460   5.398   2.784 -0.6983 -1.1868 -0.1422
 4000TIP3    H211965   1.363   5.392   2.900  1.2693  0.6866  1.6950
 4001TIP3   OH211966   6.241   4.137   5.025  0.2981 -0.5859 -0.1910
 4001TIP3    H111967   6.333   4.145   4.999 -0.0309  0.2267 -1.1800
 4001TIP3    H211968   6.244   4.087   5.107  1.4699 -2.2830 -1.1910
 4002TIP3   OH211969   2.199   4.613   0.676 -0.0722 -0.1512 -0.0554
 4002TIP3    H111970   2.257   4.654   0.739 -1.0782  1.0694  0.1263
 4002TIP3    H211971   2.187   4.680   0.608  0.2857 -1.1090 -1.0942
 4003TIP3   OH211972   4.179   0.695   0.592  0.8186 -0.9119 -0.2187
 4003TIP3    H111973   4.155   0.783   0.562  0.7183 -0.8468  0.0527
 4003TIP3    H211974   4.198   0.705   0.685 -0.9794 -1.5112  0.2446
 4004TIP3   OH211975   6.133   3.133   2.525 -0.4468  0.0837 -0.3434
 4004TIP3    H111976   6.213   3.162   2.569 -1.0056  1.1801 -0.0042
 4004TIP3    H211977   6.095   3.069   2.585  0.4442 -0.8829 -0.7715
 4005TIP3   OH211978   5.531   6.187   1.912 -0.4693  0.3664 -0.0850
 4005TIP3    H111979   5.501   6.278   1.914  0.8126  0.8019  1.8551
 4005TIP3    H211980   5.452   6.136   1.925 -0.9787  1.2829  0.5467
 4006TIP3   OH211981   3.658   2.348   0.214  0.2561  0.3417 -0.1440
 4006TIP3    H111982   3.566   2.373   0.220  0.2786  0.2173  0.8847
 4006TIP3    H211983   3.682   2.319   0.302  1.3447  0.5833 -0.3372
 4007TIP3   OH211984   5.230   0.482   5.326  0.3971 -0.5389 -0.3833
 4007TIP3    H111985   5.164   0.479   5.257  0.5687  1.5064 -0.6934
 4007TIP3    H211986   5.211   0.406   5.380 -1.4734 -0.6715 -1.1472
 4008TIP3   OH211987   3.324   2.777   2.554  0.1681  0.5592 -0.4977
 4008TIP3    H111988   3.351   2.785   2.646  1.2064 -0.3415 -0.7026
 4008TIP3    H211989   3.253   2.713   2.556  0.4505  0.2473 -0.3662
 4009TIP3   OH211990   3.982   3.526   5.440 -0.2704 -0.3137 -0.0163
 4009TIP3    H111991   4.048   3.565   5.498  0.0780 -1.0732  0.1076
 4009TIP3    H211992   4.001   3.563   5.354  0.2893 -0.4860  0.0299
 4010TIP3   OH211993   0.481   3.472   3.339  0.3085 -0.1071  0.2998
 4010TIP3    H111994   0.436   3.506   3.417  0.9316  0.0805  0.5842
 4010TIP3    H211995   0.506   3.550   3.290  0.8286 -0.1799  0.4373
 4011TIP3   OH211996   6.586   4.518   0.714 -0.2511 -0.1064  0.4210
 4011TIP3    H111997   6.586   4.454   0.786 -0.9312 -0.7034 -0.1035
 4011TIP3    H211998   6.674   4.512   0.677 -0.1801 -0.4305  0.6360
 4012TIP3   OH211999   1.667   0.293   2.167  0.0521  0.9771 -0.2770
 4012TIP3    H112000   1.609   0.225   2.132  0.5976  0.7479 -0.7528
 4012TIP3    H212001   1.750   0.280   2.121  0.5857  1.0954  0.6321
 4013TIP3   OH212002   5.297   3.431   1.916 -0.5176 -0.4472 -0.3742
 4013TIP3    H112003   5.326   3.346   1.951 -2.6637 -0.9615  0.3342
 4013TIP3    H212004   5.256   3.475   1.991  0.0049  0.9652 -0.8854
 4014TIP3   OH212005   4.869   3.531   0.072 -0.6716 -0.0567 -0.4871
 4014TIP3    H112006   4.864   3.467   0.143 -1.8806 -0.5538 -1.0093
 4014TIP3    H212007   4.799   3.507   0.012  1.0172 -0.3717 -2.4667
 4015TIP3   OH212008   3.337   3.732   3.676 -0.8217  0.4082  0.0337
 4015TIP3    H112009   3.397   3.800   3.644 -1.6635  1.2148  0.1255
 4015TIP3    H212010   3.392   3.675   3.729  0.0361  0.6442 -0.5773
 4016TIP3   OH212011   5.776   0.543   4.818 -0.2758  0.4788  0.0416
 4016TIP3    H112012   5.767   0.473   4.754 -2.0084  0.0555  0.6872
 4016TIP3    H212013   5.813   0.616   4.769  0.6440 -0.5601 -0.8706
 4017TIP3   OH212014   6.050   1.627   5.419 -0.2741  0.1113 -0.4685
 4017TIP3    H112015   5.969   1.578   5.400 -0.7791  0.4503  0.7164
 4017TIP3    H212016   6.019   1.710   5.455  0.6096  0.4393 -0.4640
 4018TIP3   OH212017   3.937   6.466   5.254 -0.1284  0.8449 -0.0703
 4018TIP3    H112018   3.939   6.558   5.279 -1.0886  0.7156  0.5441
 4018TIP3    H212019   3.885   6.463   5.174  1.7314  1.0770 -1.3566
 4019TIP3   OH212020   3.821   4.330   4.456  0.1555 -0.1737 -0.0030
 4019TIP3    H112021   3.726   4.329   4.461  0.1112 -1.5410 -0.7211
 4019TIP3    H212022   3.850   4.259   4.513  0.8027  0.7286  0.8315
 4020TIP3   OH212023   7.092   1.432   1.943  0.2459  0.3236 -0.4066
 4020TIP3    H112024   7.098   1.488   2.020  2.4393 -0.3368 -0.0321
 4020TIP3    H212025   7.003   1.445   1.911 -0.9838  0.0897  2.5981
 4021TIP3   OH212026   1.574   5.192   5.850  0.5181  0.0344 -0.4466
 4021TIP3    H112027   1.576   5.097   5.856 -0.4323  0.1027  1.5481
 4021TIP3    H212028   1.659   5.215   5.812 -0.2577 -1.6856 -3.5734
 4022TIP3   OH212029   2.705   2.211   0.074 -0.4741 -0.0599  0.1215
 4022TIP3    H112030   2.630   2.223   0.016  0.5783 -0.5199 -1.3796
 4022TIP3    H212031   2.667   2.191   0.159 -2.0601  0.7233 -0.3785
 4023TIP3   OH212032   4.397   3.705   0.668  0.2035  0.3842 -0.2200
 4023TIP3    H112033   4.343   3.784   0.660 -0.2350  0.1403  0.2680
 4023TIP3    H212034   4.399   3.667   0.580  2.1873  2.0667 -0.9896
 4024TIP3   OH212035   1.878   3.351   2.917  0.1283 -0.0980  0.7974
 4024TIP3    H112036   1.852   3.307   2.836 -0.6285 -0.4991  1.2431
 4024TIP3    H212037   1.931   3.285   2.963 -0.5328 -0.3490  1.2103
 4025TIP3   OH212038   2.350   0.842   1.768  0.2661  0.1016  0.4383
 4025TIP3    H112039   2.292   0.772   1.737  0.5530 -0.5183  1.2455
 4025TIP3    H212040   2.296   0.921   1.765  0.1261 -0.0164 -1.0920
 4026TIP3   OH212041   0.075   6.586   0.307  0.1154  0.1529  0.2465
 4026TIP3    H112042   0.128   6.527   0.255  1.0521  0.9550  0.2599
 4026TIP3    H212043   0.138   6.641   0.354 -0.6852  2.0301 -0.7556
 4027TIP3   OH212044   3.789   3.110   3.139 -0.2097  0.7767 -0.1441
 4027TIP3    H112045   3.778   3.202   3.118 -2.5567  0.3466 -1.1845
 4027TIP3    H212046   3.706   3.070   3.113  0.7487 -1.6374  0.2466
 4028TIP3   OH212047   5.635   1.078   0.867  0.0328 -0.0653  0.2312
 4028TIP3    H112048   5.659   1.040   0.952  1.3679 -0.7794 -0.4297
 4028TIP3    H212049   5.601   1.165   0.888  0.2680 -0.2556  1.4977
 4029TIP3   OH212050   5.233   6.695   3.758  0.0261  0.2026  0.0279
 4029TIP3    H112051   5.325   6.696   3.785  0.3809 -0.2188 -1.1020
 4029TIP3    H212052   5.227   6.759   3.688 -0.7701  0.9060  0.7070
 4030TIP3   OH212053   5.596   3.525   3.241 -0.3522  0.4366 -0.2169
 4030TIP3    H112054   5.688   3.544   3.255 -0.1311  0.3740 -1.4683
 4030TIP3    H212055   5.592   3.431   3.224 -0.5062  0.5851 -1.0698
 4031TIP3   OH212056   4.519   2.728   4.208 -0.3693 -0.4798  0.3891
 4031TIP3    H112057   4.566   2.793   4.156  0.0531 -1.8522 -1.0155
 4031TIP3    H212058   4.459   2.779   4.262  0.9438  1.1486  0.3721
 4032TIP3   OH212059   6.660   6.126   1.802 -0.1900  0.5238 -0.3196
 4032TIP3    H112060   6.599   6.076   1.747  0.2542 -1.1320  0.6117
 4032TIP3    H212061   6.608   6.149   1.879  0.3240 -0.9388  0.5014
 4033TIP3   OH212062   0.112   4.683   1.904 -0.3017  0.0401 -0.2707
 4033TIP3    H112063   0.120   4.590   1.925 -0.8981  0.0143 -0.1616
 4033TIP3    H212064   0.123   4.727   1.988 -0.0506  0.0669 -0.3176
 4034TIP3   OH212065   6.337   2.763   0.456 -0.3502 -0.0147 -0.0189
 4034TIP3    H112066   6.430   2.768   0.478 -0.2315 -1.2813 -0.1234
 4034TIP3    H212067   6.323   2.835   0.395  0.1667  1.2293  1.2903
 4035TIP3   OH212068   2.308   5.481   1.751  0.2618  0.2611 -0.1683
 4035TIP3    H112069   2.349   5.482   1.837 -0.3912 -1.5996  0.2057
 4035TIP3    H212070   2.239   5.548   1.757 -0.0236 -0.1106  0.8956
 4036TIP3   OH212071   1.891   5.056   2.158  0.2287  0.1350 -0.3233
 4036TIP3    H112072   1.960   5.000   2.124  1.0109  0.2894  0.9478
 4036TIP3    H212073   1.830   4.997   2.200  0.3859  0.1186 -0.1147
 4037TIP3   OH212074   0.188   6.193   5.485 -0.1913  0.4323 -0.2059
 4037TIP3    H112075   0.114   6.178   5.544 -0.2811 -0.7886 -0.5910
 4037TIP3    H212076   0.236   6.110   5.486  0.1613  0.6055 -1.3407
 4038TIP3   OH212077   2.147   5.714   5.291  0.0905  0.0526  0.2712
 4038TIP3    H112078   2.150   5.637   5.347  0.0553  0.5574  0.9724
 4038TIP3    H212079   2.229   5.761   5.311 -1.3850  1.9423  2.3717
 4039TIP3   OH212080   6.435   3.716   0.412 -0.2450  0.0008  0.7376
 4039TIP3    H112081   6.345   3.687   0.425 -0.5107  0.5270  0.0982
 4039TIP3    H212082   6.488   3.652   0.460 -0.8991 -0.7938  0.4182
 4040TIP3   OH212083   4.474   4.671   3.599  0.0765 -0.6524 -0.2069
 4040TIP3    H112084   4.431   4.754   3.620  1.4364  0.3755 -1.2309
 4040TIP3    H212085   4.451   4.655   3.507  0.2094 -1.1577 -0.1526
 4041TIP3   OH212086   4.699   6.793   2.688 -0.2828 -0.5237  0.5020
 4041TIP3    H112087   4.702   6.708   2.645  2.8671  0.6279 -1.9735
 4041TIP3    H212088   4.678   6.855   2.617 -1.4980  0.9051  2.0271
 4042TIP3   OH212089   2.843   1.568   5.718 -0.1946 -0.3607  0.2737
 4042TIP3    H112090   2.922   1.549   5.769 -0.9003 -0.3661  1.3986
 4042TIP3    H212091   2.860   1.654   5.680  0.1162 -0.1006  0.9841
 4043TIP3   OH212092   1.324   2.031   2.800 -0.2301  0.3353 -0.5113
 4043TIP3    H112093   1.244   1.980   2.812  0.1739 -0.0974  0.4413
 4043TIP3    H212094   1.368   2.027   2.885 -0.3324  2.5400 -0.2991
 4044TIP3   OH212095   6.700   4.412   3.362  0.0161  0.3640  0.2466
 4044TIP3    H112096   6.635   4.350   3.328  1.2849 -0.2450 -1.1876
 4044TIP3    H212097   6.660   4.447   3.441 -1.5300 -0.9036  0.0862
 4045TIP3   OH212098   3.340   4.034   1.532 -0.2346  0.1668  0.1250
 4045TIP3    H112099   3.287   3.972   1.481 -1.4854  0.2396  1.2781
 4045TIP3    H212100   3.406   4.066   1.470  0.9608 -2.8408 -0.3364
 4046TIP3   OH212101   1.028   2.644   1.407 -0.4470  0.0422 -0.0045
 4046TIP3    H112102   1.066   2.583   1.471 -0.1129 -0.7105 -0.8939
 4046TIP3    H212103   1.059   2.730   1.435  0.8689 -0.4241  0.0375
 4047TIP3   OH212104   3.594   1.225   0.192 -0.1606 -0.1204 -0.2109
 4047TIP3    H112105   3.632   1.139   0.208  0.8903  0.3463 -0.1682
 4047TIP3    H212106   3.639   1.257   0.114 -0.3376  0.5185 -0.0542
 4048TIP3   OH212107   3.180   5.289   3.144  0.5717  0.7117  0.2301
 4048TIP3    H112108   3.262   5.277   3.192  1.3448  0.4947 -1.1020
 4048TIP3    H212109   3.175   5.215   3.084 -0.2349  1.1146 -0.2312
 4049TIP3   OH212110   1.189   3.168   5.663  0.5967 -0.0326 -0.5537
 4049TIP3    H112111   1.187   3.240   5.600  3.4793  0.2188 -0.4674
 4049TIP3    H212112   1.105   3.175   5.709  0.1106  2.2572 -1.6359
 4050TIP3   OH212113   3.216   1.202   3.350  0.3742 -0.7690  0.1224
 4050TIP3    H112114   3.251   1.117   3.326  0.3499 -0.3833 -1.4331
 4050TIP3    H212115   3.292   1.261   3.349  0.2945 -0.6585  0.5578
 4051TIP3   OH212116   5.447   2.642   5.089  0.1589  0.2139  0.0471
 4051TIP3    H112117   5.352   2.631   5.092  0.0722 -2.2108 -4.0484
 4051TIP3    H212118   5.461   2.737   5.088 -1.9750  0.6557  2.4034
 4052TIP3   OH212119   3.660   4.693   0.762  0.2701  0.6049  0.2054
 4052TIP3    H112120   3.743   4.730   0.730  0.8131  0.1329  1.0148
 4052TIP3    H212121   3.616   4.767   0.804  0.8877  0.5823  0.9225
 4053TIP3   OH212122   4.855   0.845   2.794 -0.0424  0.1284 -0.0212
 4053TIP3    H112123   4.886   0.890   2.715  0.7211  2.6969  1.6272
 4053TIP3    H212124   4.841   0.755   2.766  1.5655  0.6112 -2.7430
 4054TIP3   OH212125   0.269   4.897   1.504 -0.3767 -0.0687  0.6103
 4054TIP3    H112126   0.221   4.910   1.421 -0.0671  0.3439  0.4937
 4054TIP3    H212127   0.260   4.804   1.522  1.3083 -0.6038 -0.9887
 4055TIP3   OH212128   6.526   2.477   4.008 -0.6411  0.4076 -0.1007
 4055TIP3    H112129   6.510   2.520   3.924 -1.8589  1.5082  0.6454
 4055TIP3    H212130   6.570   2.395   3.986 -2.2100 -0.0136 -1.9192
 4056TIP3   OH212131   1.057   4.552   2.050  0.1791  0.4197  0.6591
 4056TIP3    H112132   1.069   4.629   1.995  0.8748 -0.4949 -0.5302
 4056TIP3    H212133   1.129   4.556   2.114  1.2705 -0.1139 -0.4940
 4057TIP3   OH212134   2.425   1.691   5.535 -0.1217  0.3540  0.0645
 4057TIP3    H112135   2.431   1.597   5.556 -1.5922 -0.2008 -1.7264
 4057TIP3    H212136   2.501   1.707   5.479 -0.0784  0.1343  0.0577
 4058TIP3   OH212137   1.693   0.112   1.072  0.1907 -0.0388  0.3518
 4058TIP3    H112138   1.757   0.041   1.073  0.6174  0.3344  0.0512
 4058TIP3    H212139   1.675   0.127   0.979 -1.0522 -0.7687  0.4472
 4059TIP3   OH212140   6.235   3.736   5.139  0.0528 -0.1767 -1.1002
 4059TIP3    H112141   6.271   3.700   5.220  0.9656  1.9192 -0.4992
 4059TIP3    H212142   6.264   3.675   5.071 -0.5551 -1.8670  0.0788
 4060TIP3   OH212143   3.478   1.672   1.958 -0.1213  0.7234  0.1476
 4060TIP3    H112144   3.388   1.640   1.958 -0.7364  2.3245  0.4898
 4060TIP3    H212145   3.509   1.654   2.047 -0.1186  0.1986  0.0400
 4061TIP3   OH212146   3.235   6.444   4.530  0.2244  0.4013 -0.0208
 4061TIP3    H112147   3.212   6.440   4.437  1.1336 -1.4320 -0.2192
 4061TIP3    H212148   3.294   6.369   4.543  0.4164  0.8463  1.9507
 4062TIP3   OH212149   4.665   6.566   0.550  0.0931 -0.3927  0.5232
 4062TIP3    H112150   4.674   6.512   0.472 -0.1289  0.4308 -0.0900
 4062TIP3    H212151   4.739   6.542   0.605  2.2643  1.3801 -1.3936
 4063TIP3   OH212152   5.162   2.769   2.474  0.1152 -0.9830  0.3002
 4063TIP3    H112153   5.075   2.753   2.511 -0.3427  0.1162 -0.2520
 4063TIP3    H212154   5.204   2.683   2.473 -1.2021 -1.6462 -0.0027
 4064TIP3   OH212155   1.002   5.254   1.575  0.3445 -0.5857 -0.3515
 4064TIP3    H112156   0.981   5.311   1.501  2.4789 -1.2727 -1.5450
 4064TIP3    H212157   1.081   5.208   1.549 -0.0654 -2.4858  1.4866
 4065TIP3   OH212158   3.388   2.957   3.319  0.3691  0.1170 -0.6292
 4065TIP3    H112159   3.358   2.878   3.275  2.0949 -0.1043 -1.5039
 4065TIP3    H212160   3.321   3.022   3.301 -0.1916 -0.6621 -1.4205
 4066TIP3   OH212161   5.402   4.186   1.375 -0.2270  0.1576  0.7844
 4066TIP3    H112162   5.369   4.222   1.293 -0.5741 -0.2130  0.7571
 4066TIP3    H212163   5.408   4.261   1.434 -0.4703  0.3411  0.5772
 4067TIP3   OH212164   1.379   5.818   0.707  0.3198  0.7475  0.4163
 4067TIP3    H112165   1.358   5.875   0.781  0.5335  0.5765  0.6103
 4067TIP3    H212166   1.307   5.830   0.645  0.7943  1.9159  0.0597
 4068TIP3   OH212167   2.768   5.035   5.855  0.5023 -0.1851  0.0696
 4068TIP3    H112168   2.801   5.123   5.876  0.1062 -0.0492  0.1389
 4068TIP3    H212169   2.840   4.976   5.876  0.3516  0.0062  1.1913
 4069TIP3   OH212170   5.769   4.550   5.058 -0.6230 -0.1501 -0.0475
 4069TIP3    H112171   5.722   4.631   5.078  0.0387  0.4897 -0.9723
 4069TIP3    H212172   5.800   4.518   5.143 -2.5253 -0.5018  0.5764
 4070TIP3   OH212173   3.492   1.538   4.988 -0.2136 -0.2208  0.7233
 4070TIP3    H112174   3.449   1.453   4.988  0.5540 -0.6397 -0.6446
 4070TIP3    H212175   3.563   1.529   5.052 -0.4499 -0.4367  0.9570
 4071TIP3   OH212176   1.128   5.650   5.751 -0.1961 -0.1971 -1.0626
 4071TIP3    H112177   1.189   5.592   5.707 -1.7641 -2.4670 -0.4259
 4071TIP3    H212178   1.064   5.591   5.792 -1.2275  1.9407  0.6253
 4072TIP3   OH212179   5.881   6.605   4.583  0.4171 -0.2214  0.5126
 4072TIP3    H112180   5.820   6.577   4.651  1.1040 -2.1402  0.4204
 4072TIP3    H212181   5.964   6.618   4.630 -0.0082  2.4059  0.6478
 4073TIP3   OH212182   5.338   1.451   5.142  0.4466  0.0440  0.3413
 4073TIP3    H112183   5.335   1.503   5.061 -1.3483 -2.5555 -1.4282
 4073TIP3    H212184   5.288   1.503   5.205 -2.0811  0.2255 -1.6184
 4074TIP3   OH212185   3.320   0.864   4.321 -0.3844  0.1844  0.1355
 4074TIP3    H112186   3.305   0.937   4.261 -0.3960 -0.8437 -1.1610
 4074TIP3    H212187   3.358   0.795   4.266  1.6247 -0.0869  1.7200
 4075TIP3   OH212188   2.007   0.939   5.560  0.6445 -0.3263 -0.4291
 4075TIP3    H112189   2.067   0.952   5.487 -2.0054  0.7723 -2.5847
 4075TIP3    H212190   1.945   0.874   5.528 -1.1673  0.9081  0.4262
 4076TIP3   OH212191   3.175   4.570   1.557 -0.3955 -0.2447 -0.2022
 4076TIP3    H112192   3.242   4.605   1.615 -1.2659  1.6093 -0.2318
 4076TIP3    H212193   3.092   4.588   1.603 -0.9248 -2.1954 -0.2979
 4077TIP3   OH212194   3.770   2.567   0.846  0.6311 -0.0390  0.6651
 4077TIP3    H112195   3.681   2.595   0.826  0.2974 -1.1866  0.4453
 4077TIP3    H212196   3.801   2.526   0.765  0.8699 -0.8045  1.1310
 4078TIP3   OH212197   5.950   5.416   0.506 -0.4220  0.4154  0.1601
 4078TIP3    H112198   5.965   5.500   0.463 -0.8939  0.1969 -0.4351
 4078TIP3    H212199   5.863   5.424   0.545  0.6470  1.2531  2.6049
 4079TIP3   OH212200   3.983   4.350   2.484 -0.1266 -0.6096 -0.3251
 4079TIP3    H112201   4.034   4.278   2.447 -1.4357 -0.4497 -2.5648
 4079TIP3    H212202   3.923   4.308   2.546  0.4944 -1.1715 -0.0921
 4080TIP3   OH212203   4.768   3.497   5.753 -0.5860 -0.4368  0.3296
 4080TIP3    H112204   4.814   3.433   5.699 -1.0083 -0.4333 -0.0441
 4080TIP3    H212205   4.799   3.582   5.723  1.1657 -0.4782  1.8983
 4081TIP3   OH212206   6.438   1.229   2.358  0.3831 -0.2703  0.2661
 4081TIP3    H112207   6.423   1.299   2.295  1.2160  0.0501  0.4051
 4081TIP3    H212208   6.416   1.149   2.311  0.5088  0.0016 -0.2685
 4082TIP3   OH212209   4.243   3.722   2.700 -0.3768 -0.0374  0.1080
 4082TIP3    H112210   4.201   3.692   2.620 -0.1347 -0.7369  0.2383
 4082TIP3    H212211   4.173   3.717   2.766 -0.1191 -1.1590  0.3151
 4083TIP3   OH212212   5.278   1.906   0.815  0.0830 -0.7407 -0.4087
 4083TIP3    H112213   5.211   1.959   0.859  0.5858  0.0141 -0.5188
 4083TIP3    H212214   5.238   1.820   0.804 -1.5621  0.1740 -2.0830
 4084TIP3   OH212215   4.587   6.683   0.261 -0.2148  0.2062 -0.3288
 4084TIP3    H112216   4.642   6.606   0.248  1.6438  1.2193  1.1084
 4084TIP3    H212217   4.517   6.653   0.319 -0.4105 -0.7451 -1.0269
 4085TIP3   OH212218   3.106   5.989   0.219  0.2710  0.4889 -1.0230
 4085TIP3    H112219   3.190   5.943   0.213 -0.4726 -1.0008 -0.4880
 4085TIP3    H212220   3.130   6.081   0.228  1.9211 -0.0488  0.7410
 4086TIP3   OH212221   3.829   5.062   2.415  0.1456  0.6034 -0.4252
 4086TIP3    H112222   3.843   5.135   2.355 -2.4163  0.4391 -1.3332
 4086TIP3    H212223   3.867   4.986   2.370 -0.3450  0.7675 -1.1340
 4087TIP3   OH212224   4.729   0.367   1.828 -0.3662  0.0241  0.1375
 4087TIP3    H112225   4.773   0.290   1.791 -1.2367 -0.5846  0.3561
 4087TIP3    H212226   4.642   0.336   1.852 -0.7052  1.0669  0.2906
 4088TIP3   OH212227   2.664   5.526   0.605 -0.5382  0.2144  0.3369
 4088TIP3    H112228   2.727   5.454   0.593 -0.7527  0.1413 -0.4300
 4088TIP3    H212229   2.591   5.486   0.652 -1.0811 -0.3305 -0.9325
 4089TIP3   OH212230   0.763   4.845   3.877  0.0808 -0.7888  0.5231
 4089TIP3    H112231   0.742   4.783   3.808  0.4016  1.2111 -1.4955
 4089TIP3    H212232   0.744   4.931   3.839  1.0413  0.4557  2.6441
 4090TIP3   OH212233   0.829   3.398   0.602  0.1890  0.0474 -0.2068
 4090TIP3    H112234   0.839   3.304   0.610  2.0892  0.2609  0.2859
 4090TIP3    H212235   0.780   3.410   0.520 -0.8367 -1.3648  0.1669
 4091TIP3   OH212236   3.693   2.472   4.788 -0.3593  0.3502  0.5531
 4091TIP3    H112237   3.689   2.564   4.816  0.1175  0.0973  1.4943
 4091TIP3    H212238   3.622   2.464   4.724 -0.6981  1.2676  0.7869
 4092TIP3   OH212239   0.822   4.057   1.235 -0.3676  0.3084 -0.1015
 4092TIP3    H112240   0.801   4.114   1.161  2.1284  0.5021 -0.7744
 4092TIP3    H212241   0.856   3.977   1.195 -1.2783 -0.5876  0.8512
 4093TIP3   OH212242   6.807   1.937   3.542  0.1605  0.3463 -0.2277
 4093TIP3    H112243   6.799   1.996   3.467  0.2583  0.4595 -0.1501
 4093TIP3    H212244   6.792   1.994   3.618 -2.4220 -0.1963 -0.2202
 4094TIP3   OH212245   0.821   2.639   2.596  0.5029  0.0404  0.2633
 4094TIP3    H112246   0.910   2.660   2.569  0.4759 -1.2985 -0.9728
 4094TIP3    H212247   0.832   2.593   2.679  1.2353 -2.4579 -1.1256
 4095TIP3   OH212248   5.042   4.959   3.298 -0.5138 -0.0178 -0.5116
 4095TIP3    H112249   5.134   4.956   3.271 -0.2966  1.7211 -0.0224
 4095TIP3    H212250   5.044   4.985   3.390 -1.5059  0.3132 -0.5724
 4096TIP3   OH212251   1.272   2.963   2.214 -0.3778  0.5238  0.3098
 4096TIP3    H112252   1.286   3.022   2.289  0.9545  0.9160 -0.2020
 4096TIP3    H212253   1.355   2.968   2.165 -1.1304  0.0882 -1.0526
 4097TIP3   OH212254   1.316   2.228   3.422  0.1652  0.1096 -0.1534
 4097TIP3    H112255   1.224   2.208   3.440 -0.0135  0.7606 -0.3012
 4097TIP3    H212256   1.326   2.212   3.329  0.7233 -1.8715  0.1970
 4098TIP3   OH212257   0.770   6.700   3.099  0.2229  0.1513  0.4648
 4098TIP3    H112258   0.831   6.749   3.044 -1.7107 -0.0145 -1.9914
 4098TIP3    H212259   0.710   6.766   3.134 -1.9382 -0.2025 -2.2613
 4099TIP3   OH212260   1.244   0.548   4.610  0.1670  0.9442  0.3456
 4099TIP3    H112261   1.245   0.616   4.542 -0.8794  1.8124  1.1744
 4099TIP3    H212262   1.278   0.470   4.566 -0.8275  1.3837 -1.2782
 4100TIP3   OH212263   1.625   4.869   2.727 -0.3567  0.0831 -0.1083
 4100TIP3    H112264   1.690   4.850   2.795  0.7085 -1.0696 -1.4055
 4100TIP3    H212265   1.648   4.957   2.696  0.2620 -0.1002 -0.1814
 4101TIP3   OH212266  -0.009   2.093   1.045  0.3900 -0.0605 -0.1084
 4101TIP3    H112267   0.014   2.185   1.035 -1.7881  0.6332  0.7099
 4101TIP3    H212268   0.045   2.047   0.980  1.5598  1.7560 -0.4771
 4102TIP3   OH212269   0.341   2.651   0.901 -0.1076  0.3152  0.1413
 4102TIP3    H112270   0.352   2.605   0.985 -0.5466 -0.3756 -0.1686
 4102TIP3    H212271   0.384   2.594   0.837 -1.1604  0.0211 -0.3382
 4103TIP3   OH212272   0.103   0.933   1.420  0.1789  0.3677  0.1385
 4103TIP3    H112273   0.071   0.845   1.402  0.3505  0.2785  0.2667
 4103TIP3    H212274   0.175   0.920   1.481  0.1720  0.6012  0.1960
 4104TIP3   OH212275   5.568   4.867   0.796  0.3856  0.0570  0.2534
 4104TIP3    H112276   5.560   4.804   0.725  0.8315 -0.6773  0.8350
 4104TIP3    H212277   5.502   4.934   0.777 -0.9689 -1.2138  0.2654
 4105TIP3   OH212278   3.899   4.463   0.722 -0.3932 -0.3216  0.4283
 4105TIP3    H112279   3.950   4.414   0.658  0.4248 -0.5055  1.2004
 4105TIP3    H212280   3.897   4.552   0.688 -0.0217 -0.4280  0.1198
 4106TIP3   OH212281   4.311   4.885   0.305 -0.3803  0.3780 -0.1045
 4106TIP3    H112282   4.395   4.893   0.261 -0.3402 -0.5483 -0.2068
 4106TIP3    H212283   4.331   4.899   0.398 -0.2721  1.1007 -0.2300
 4107TIP3   OH212284   5.498   1.677   5.597 -0.1766 -0.2721 -0.0177
 4107TIP3    H112285   5.506   1.598   5.651 -0.2140 -0.3228 -0.0863
 4107TIP3    H212286   5.518   1.648   5.508  0.3611 -0.0887  0.0410
 4108TIP3   OH212287   4.538   3.694   4.041 -0.1301 -0.0247 -0.1009
 4108TIP3    H112288   4.477   3.768   4.042  0.0598  0.1321  0.2822
 4108TIP3    H212289   4.604   3.719   3.976 -0.1695  0.0597 -0.1092
 4109TIP3   OH212290   1.195   2.559   2.065 -0.0131  0.0510 -0.0630
 4109TIP3    H112291   1.104   2.585   2.073  0.3208  1.7551 -1.1565
 4109TIP3    H212292   1.196   2.466   2.088 -1.9789  0.0368  0.1292
 4110TIP3   OH212293   2.497   3.823   0.984 -0.1453 -0.0461 -0.8644
 4110TIP3    H112294   2.580   3.859   0.953  0.9652 -1.0841  0.7086
 4110TIP3    H212295   2.484   3.862   1.070 -0.7269 -0.6889 -0.6460
 4111TIP3   OH212296   2.252   2.610   3.557 -0.2227 -0.1114 -0.3416
 4111TIP3    H112297   2.190   2.552   3.601 -0.5832 -0.3285 -1.1315
 4111TIP3    H212298   2.287   2.665   3.628 -1.0694 -0.2013  0.1578
 4112TIP3   OH212299   5.031   2.040   4.587 -0.0528 -0.5793  0.0223
 4112TIP3    H112300   5.079   1.980   4.530 -0.8920 -0.4579 -0.8381
 4112TIP3    H212301   4.944   2.000   4.596  0.4921 -1.4134  2.5016
 4113TIP3   OH212302   6.389   0.339   3.740  0.3100 -0.0358  0.5660
 4113TIP3    H112303   6.294   0.336   3.724  0.0383 -1.5601  2.1911
 4113TIP3    H212304   6.398   0.394   3.819  0.8297  0.4434  0.1807
 4114TIP3   OH212305   1.664   4.542   2.314  0.3944 -0.5787 -0.4899
 4114TIP3    H112306   1.573   4.565   2.331  0.7671  0.5398  0.0646
 4114TIP3    H212307   1.714   4.585   2.383  1.3381 -1.3560 -0.6535
 4115TIP3   OH212308   1.676   4.941   5.646 -0.0765 -0.3351  0.1867
 4115TIP3    H112309   1.683   4.898   5.731  1.6905 -0.5351 -0.0400
 4115TIP3    H212310   1.746   5.006   5.646 -0.9288  0.6113 -0.5901
 4116TIP3   OH212311   2.452   4.692   2.589 -0.3553 -0.3111  0.5786
 4116TIP3    H112312   2.511   4.763   2.615  2.7865 -2.9385  1.1970
 4116TIP3    H212313   2.442   4.702   2.494  1.1441  0.2248  0.4488
 4117TIP3   OH212314   0.348   3.764   5.649  0.0175  0.4872  0.2870
 4117TIP3    H112315   0.342   3.668   5.656 -1.9987  0.4620 -0.9988
 4117TIP3    H212316   0.258   3.794   5.657  0.6068  2.3072  0.5771
 4118TIP3   OH212317   2.690   1.150   4.441  0.0266  0.0317 -0.0512
 4118TIP3    H112318   2.761   1.214   4.452 -0.1434  0.3349 -0.6445
 4118TIP3    H212319   2.722   1.070   4.482  1.1885 -0.1783 -1.3321
 4119TIP3   OH212320   1.807   4.332   4.182  0.4600  0.3486  0.5745
 4119TIP3    H112321   1.769   4.377   4.107  0.3841 -0.0165  0.3880
 4119TIP3    H212322   1.901   4.335   4.167  0.4005 -2.3097 -1.1247
 4120TIP3   OH212323   6.110   5.208   0.881  0.0387 -0.0254  0.0994
 4120TIP3    H112324   6.177   5.143   0.901  0.7774  0.7006  0.0593
 4120TIP3    H212325   6.110   5.213   0.785 -0.4727 -0.4266  0.0769
 4121TIP3   OH212326   6.243   2.133   3.236  0.0352  0.5072 -0.3411
 4121TIP3    H112327   6.239   2.038   3.224 -1.5900  0.6647 -1.3965
 4121TIP3    H212328   6.244   2.146   3.331  1.0081 -0.5617 -0.1819
 4122TIP3   OH212329   2.584   5.049   4.832 -0.3062 -0.2187 -0.0906
 4122TIP3    H112330   2.529   5.006   4.898  0.5451 -1.6509 -0.2757
 4122TIP3    H212331   2.527   5.116   4.794 -0.5415  1.2798  2.6683
 4123TIP3   OH212332   1.995   3.705   5.774 -0.2824 -0.6178 -0.1563
 4123TIP3    H112333   2.071   3.726   5.720 -0.1359  0.2251  0.3601
 4123TIP3    H212334   2.031   3.684   5.860 -0.7297  2.7523  0.9871
 4124TIP3   OH212335   5.090   5.369   3.378  0.1539 -0.0111  0.5821
 4124TIP3    H112336   5.059   5.426   3.307  0.0685  0.6839  1.1536
 4124TIP3    H212337   5.083   5.424   3.456  1.2159 -0.4215  0.9789
 4125TIP3   OH212338   4.514   5.621   5.347  0.4926 -0.2389 -0.0872
 4125TIP3    H112339   4.482   5.707   5.375  0.2244 -0.5497  0.5839
 4125TIP3    H212340   4.583   5.599   5.409  0.2476 -0.7082  0.0301
 4126TIP3   OH212341   1.646   0.616   4.978  0.0781  0.6403  0.0002
 4126TIP3    H112342   1.655   0.693   4.921 -0.4083  0.8019  0.1326
 4126TIP3    H212343   1.730   0.611   5.025  0.2240  0.9135 -0.2282
 4127TIP3   OH212344   4.922   5.401   2.326 -0.3842  0.1313  0.5016
 4127TIP3    H112345   4.963   5.327   2.281 -0.8770  1.4415 -2.2900
 4127TIP3    H212346   4.903   5.368   2.414  3.0352 -1.7477  0.6936
 4128TIP3   OH212347   6.251   5.610   5.482 -0.3679 -0.1443 -0.3406
 4128TIP3    H112348   6.208   5.539   5.530 -0.7938  0.4009  0.1083
 4128TIP3    H212349   6.243   5.586   5.390  0.8872 -1.4502 -0.1402
 4129TIP3   OH212350   4.464   0.656   4.669 -0.3451 -0.5507 -0.2157
 4129TIP3    H112351   4.521   0.675   4.595 -0.4457 -0.7173 -0.3357
 4129TIP3    H212352   4.416   0.738   4.684  1.0245  0.0994  0.8683
 4130TIP3   OH212353   1.632   5.684   3.416  0.2099 -0.3788  0.1715
 4130TIP3    H112354   1.561   5.747   3.405  2.2441  1.8802 -0.8651
 4130TIP3    H212355   1.642   5.677   3.511 -0.1973  0.6933  0.3086
 4131TIP3   OH212356   0.214   4.997   0.446  0.1084  0.2930  0.2689
 4131TIP3    H112357   0.238   5.088   0.426 -0.0240  0.2833  0.0526
 4131TIP3    H212358   0.245   4.947   0.370 -0.0037  0.1880  0.2912
 4132TIP3   OH212359   4.840   5.739   2.135  0.2005 -0.0825 -0.3637
 4132TIP3    H112360   4.885   5.814   2.094  0.8426  0.6552  1.5613
 4132TIP3    H212361   4.754   5.773   2.159 -0.5937 -0.8337 -2.0097
 4133TIP3   OH212362   0.639   4.604   3.713  0.0040 -0.0998 -0.4729
 4133TIP3    H112363   0.573   4.666   3.681  1.0464  1.3240 -0.0003
 4133TIP3    H212364   0.692   4.585   3.636 -1.3969 -1.9275 -1.0626
 4134TIP3   OH212365   3.321   0.832   2.706  0.2096  0.1415 -0.3383
 4134TIP3    H112366   3.345   0.743   2.732  0.5134  0.0238 -0.9814
 4134TIP3    H212367   3.260   0.862   2.774  1.4880  0.1205  0.8485
 4135TIP3   OH212368   0.901   5.002   4.234 -0.3853 -0.1730 -0.9090
 4135TIP3    H112369   0.823   5.042   4.273 -0.5779 -1.0199 -0.3978
 4135TIP3    H212370   0.969   5.013   4.300  0.4580  2.1495 -2.0451
 4136TIP3   OH212371   2.427   2.693   0.867 -0.4761  0.2383  0.1138
 4136TIP3    H112372   2.473   2.768   0.904 -2.6121  1.8306 -0.3146
 4136TIP3    H212373   2.491   2.654   0.806  1.1391  0.8367  1.3568
 4137TIP3   OH212374   6.909   3.969   5.036  0.0582  0.3108  0.4873
 4137TIP3    H112375   6.959   3.958   5.117  0.2125  1.0565  0.4950
 4137TIP3    H212376   6.848   4.040   5.054 -1.5647 -1.0657  0.7324
 4138TIP3   OH212377   6.577   0.585   3.186  0.0147  0.0598  0.2915
 4138TIP3    H112378   6.643   0.591   3.117 -0.3424  0.3628 -0.0264
 4138TIP3    H212379   6.623   0.543   3.260  1.6249  3.4163  1.3903
 4139TIP3   OH212380   2.372   3.415   3.822 -0.2827  0.5245  0.3905
 4139TIP3    H112381   2.421   3.494   3.798  1.1916 -0.0904  1.2213
 4139TIP3    H212382   2.290   3.421   3.773  0.8100  1.3933 -1.4382
 4140TIP3   OH212383   6.653   2.215   3.174 -0.3575 -0.4790 -0.5213
 4140TIP3    H112384   6.711   2.229   3.249  0.2927 -2.9539 -0.4691
 4140TIP3    H212385   6.698   2.257   3.101  0.3394 -0.3354 -0.0236
 4141TIP3   OH212386   0.523   6.467   3.393  0.4298  0.4440  0.0995
 4141TIP3    H112387   0.496   6.399   3.331  0.4275 -0.0726  0.6618
 4141TIP3    H212388   0.611   6.491   3.363  1.4590 -1.5324  1.2788
 4142TIP3   OH212389   6.546   1.335   3.160 -0.0302 -0.2694 -0.3353
 4142TIP3    H112390   6.571   1.284   3.238  1.7505 -0.5145 -1.0330
 4142TIP3    H212391   6.486   1.277   3.113 -0.2730 -0.5529  0.3015
 4143TIP3   OH212392   3.582   3.801   1.583  0.1400  0.2730  0.0874
 4143TIP3    H112393   3.521   3.855   1.635 -0.7367  0.2604 -0.8915
 4143TIP3    H212394   3.528   3.766   1.512  1.0705 -0.5996 -0.2082
 4144TIP3   OH212395   5.926   3.507   5.204  0.2107 -0.7721 -0.0006
 4144TIP3    H112396   5.843   3.490   5.160  0.1272 -0.7026  0.1278
 4144TIP3    H212397   5.993   3.485   5.140  0.0858  0.3216 -0.5347
 4145TIP3   OH212398   1.259   0.547   0.850 -0.1582  0.2112  0.1541
 4145TIP3    H112399   1.217   0.512   0.771 -0.3308 -3.4794  1.6895
 4145TIP3    H212400   1.193   0.606   0.888 -0.4839  1.2018 -1.8008
 4146TIP3   OH212401   6.996   5.254   4.270  0.2081 -0.5704  0.2551
 4146TIP3    H112402   6.965   5.300   4.192  1.4223  0.7087  0.4921
 4146TIP3    H212403   6.928   5.268   4.335  0.4013  0.6562  0.2181
 4147TIP3   OH212404   4.082   3.881   2.521 -0.2456  0.3347 -0.4260
 4147TIP3    H112405   4.004   3.878   2.576  0.2321 -0.9233  0.2215
 4147TIP3    H212406   4.085   3.971   2.489 -1.3006  0.7227  0.4948
 4148TIP3   OH212407   1.388   4.249   0.912  0.4658 -0.5411 -0.4137
 4148TIP3    H112408   1.312   4.233   0.968 -1.4286  1.3191 -2.2597
 4148TIP3    H212409   1.358   4.226   0.824  1.4565  1.7004 -1.4101
 4149TIP3   OH212410   2.959   0.345   2.103  0.1305  0.2054 -0.2525
 4149TIP3    H112411   2.976   0.438   2.120 -0.0759  0.3258 -0.6898
 4149TIP3    H212412   3.045   0.304   2.110  0.2876  0.4955 -0.4410
 4150TIP3   OH212413   6.470   4.688   5.838  0.1250 -0.0994  0.4519
 4150TIP3    H112414   6.540   4.630   5.869  0.0711  0.6475  2.1010
 4150TIP3    H212415   6.495   4.711   5.749  1.1874 -1.0671  0.4831
 4151TIP3   OH212416   7.137   4.986   1.956  0.2232 -0.2006 -0.9339
 4151TIP3    H112417   7.187   4.969   1.876  1.1547  2.8785 -1.1463
 4151TIP3    H212418   7.174   5.068   1.989 -2.3459  0.3108  0.8933
 4152TIP3   OH212419   5.862   5.114   5.628 -0.5457  0.3243  0.1024
 4152TIP3    H112420   5.842   5.056   5.701  0.2453 -0.5652 -0.3578
 4152TIP3    H212421   5.954   5.137   5.640  0.0021 -0.9439 -1.3245
 4153TIP3   OH212422   5.863   2.871   4.426 -0.3087  0.3518  0.1031
 4153TIP3    H112423   5.937   2.814   4.403  0.7367  1.7453 -0.1413
 4153TIP3    H212424   5.857   2.866   4.522 -2.2686 -2.5507 -0.0408
 4154TIP3   OH212425   6.262   2.469   2.068  0.2867 -0.6916 -0.0662
 4154TIP3    H112426   6.171   2.446   2.053 -0.0922  0.6332  0.0711
 4154TIP3    H212427   6.311   2.418   2.004 -0.7541  0.3440 -1.7372
 4155TIP3   OH212428   5.606   3.060   3.631 -0.0493 -0.4514 -0.3951
 4155TIP3    H112429   5.641   3.145   3.605  0.1158 -0.2564  0.4607
 4155TIP3    H212430   5.649   2.998   3.573  0.8019 -0.0897 -0.1597
 4156TIP3   OH212431   0.149   2.768   0.677 -0.7020 -0.0859  0.2143
 4156TIP3    H112432   0.163   2.724   0.761 -0.8919 -0.3236  0.1220
 4156TIP3    H212433   0.092   2.843   0.698 -1.0776 -0.3721  0.2380
 4157TIP3   OH212434   3.084   2.722   3.227  0.0390  0.3855 -0.4174
 4157TIP3    H112435   3.050   2.639   3.193  1.6352  0.2787 -1.8722
 4157TIP3    H212436   3.015   2.786   3.208 -1.1845 -0.5468  0.6647
 4158TIP3   OH212437   6.804   1.309   0.784 -0.1345  1.2032  0.2933
 4158TIP3    H112438   6.826   1.279   0.696 -0.7703  2.3960 -0.3117
 4158TIP3    H212439   6.844   1.245   0.842 -1.3561 -0.7316 -0.8794
 4159TIP3   OH212440   1.219   4.144   1.430 -1.2502 -0.1043 -0.9232
 4159TIP3    H112441   1.252   4.211   1.490 -1.9386 -1.0390  0.5892
 4159TIP3    H212442   1.261   4.163   1.346  0.3711  0.8031  0.0449
 4160TIP3   OH212443   1.571   4.371   1.656  0.1559 -0.1747 -0.0876
 4160TIP3    H112444   1.563   4.395   1.748 -0.5433 -1.5826  0.2558
 4160TIP3    H212445   1.665   4.371   1.639  0.2745  0.4441  0.5223
 4161TIP3   OH212446   3.225   0.962   4.042  0.3920  0.1484 -0.1213
 4161TIP3    H112447   3.313   0.998   4.033  0.5079  0.0376  0.5315
 4161TIP3    H212448   3.209   0.918   3.959  1.4305 -0.8494  0.1802
 4162TIP3   OH212449   3.226   6.437   2.928 -0.0087 -0.5816 -0.2281
 4162TIP3    H112450   3.227   6.399   3.015  1.6879 -1.1852 -0.4657
 4162TIP3    H212451   3.301   6.497   2.927  0.6858 -1.4120 -1.5838
 4163TIP3   OH212452   5.967   0.978   1.919 -0.1480  0.1457 -0.0840
 4163TIP3    H112453   5.928   1.062   1.892 -0.1405  0.9705  2.1758
 4163TIP3    H212454   5.897   0.935   1.969  1.1684  0.8919  2.5976
 4164TIP3   OH212455   2.709   0.671   5.250 -0.2360  0.2782 -0.1878
 4164TIP3    H112456   2.727   0.731   5.323  0.5676  0.9159 -0.8994
 4164TIP3    H212457   2.742   0.587   5.280 -0.6027  0.3712  0.4896
 4165TIP3   OH212458   0.579   0.224   0.730  0.1776  0.3683  0.3902
 4165TIP3    H112459   0.493   0.224   0.689  0.1289 -0.1791  0.4860
 4165TIP3    H212460   0.613   0.136   0.715  1.1999  0.9099 -0.6360
 4166TIP3   OH212461   4.715   2.452   4.116 -0.1177  0.4109 -0.2149
 4166TIP3    H112462   4.786   2.461   4.052  0.5036  1.7923  0.6296
 4166TIP3    H212463   4.669   2.535   4.112 -0.6774  0.1392  0.4408
 4167TIP3   OH212464   1.104   1.066   3.339  0.2768 -0.0638 -0.5348
 4167TIP3    H112465   1.034   1.125   3.313 -0.2552 -1.6163 -2.8439
 4167TIP3    H212466   1.061   0.998   3.390  0.0204 -1.1161 -2.1059
 4168TIP3   OH212467   0.016   6.251   2.048  0.1188  0.1203  0.1926
 4168TIP3    H112468   0.010   6.198   1.969  1.6731  2.4642 -1.6302
 4168TIP3    H212469   0.110   6.264   2.061 -0.0789 -0.4208  2.6490
 4169TIP3   OH212470   5.974   2.067   0.459 -0.9992 -0.2367  0.4680
 4169TIP3    H112471   6.056   2.018   0.466 -1.3816 -1.1741 -1.2119
 4169TIP3    H212472   5.915   2.022   0.520 -0.7056 -0.5073  0.5585
 4170TIP3   OH212473   3.095   3.384   2.234  0.1319  0.1676  0.3540
 4170TIP3    H112474   3.125   3.302   2.195 -0.2726 -0.0050  0.3984
 4170TIP3    H212475   3.038   3.423   2.167 -0.2141  0.0849  0.6020
 4171TIP3   OH212476   1.247   1.484   1.653  0.1167 -0.1047  0.3620
 4171TIP3    H112477   1.260   1.553   1.718 -1.3625  1.1950 -0.6495
 4171TIP3    H212478   1.155   1.493   1.627  0.7673 -0.2395 -2.2564
 4172TIP3   OH212479   3.838   3.168   1.467 -0.1454  0.3018  0.6181
 4172TIP3    H112480   3.772   3.190   1.401 -0.1223  1.1923  0.8822
 4172TIP3    H212481   3.908   3.232   1.454  0.6604 -0.6025  0.3751
 4173TIP3   OH212482   6.613   3.318   3.719 -0.0103 -0.2486  0.0461
 4173TIP3    H112483   6.707   3.300   3.726  0.0857 -0.5904 -1.7368
 4173TIP3    H212484   6.595   3.317   3.625 -1.6847  0.4619  0.3280
 4174TIP3   OH212485   5.942   4.637   1.878 -0.3606 -0.3070 -0.2060
 4174TIP3    H112486   5.915   4.612   1.966 -0.5067 -2.2216 -0.7521
 4174TIP3    H212487   5.891   4.715   1.858 -0.8857 -0.3018  1.1040
 4175TIP3   OH212488   5.713   4.932   0.031 -0.0661 -0.5182 -0.2087
 4175TIP3    H112489   5.722   4.862   0.095 -0.4174 -1.6626 -1.3751
 4175TIP3    H212490   5.801   4.943  -0.006 -0.0227 -0.3817 -0.0640
 4176TIP3   OH212491   6.528   2.620   2.761 -0.5038 -0.2862 -0.0185
 4176TIP3    H112492   6.616   2.587   2.746 -0.5836 -0.1199 -0.9161
 4176TIP3    H212493   6.536   2.715   2.754 -0.9520 -0.3259 -1.3123
 4177TIP3   OH212494   3.045   0.691   0.226  0.0123  0.7274 -0.2122
 4177TIP3    H112495   3.045   0.773   0.176 -3.0578  0.4950 -0.7945
 4177TIP3    H212496   3.091   0.713   0.307  1.0522  2.4336 -1.1943
 4178TIP3   OH212497   3.228   2.124   1.849 -0.2953 -0.6658 -0.2943
 4178TIP3    H112498   3.268   2.102   1.765 -1.5488  1.0597 -1.4084
 4178TIP3    H212499   3.297   2.167   1.899  0.4060 -1.5395 -0.4873
 4179TIP3   OH212500   5.322   2.280   2.283  0.1537 -0.9374  0.1480
 4179TIP3    H112501   5.322   2.336   2.205 -0.8038 -1.2142 -0.0594
 4179TIP3    H212502   5.404   2.230   2.276 -0.1580 -1.3293 -0.9555
 4180TIP3   OH212503   0.292   5.772   1.066 -0.0644  0.5760 -0.3096
 4180TIP3    H112504   0.341   5.694   1.088  0.3527  0.4579 -1.5636
 4180TIP3    H212505   0.338   5.843   1.110 -0.7197  0.0860  1.2263
 4181TIP3   OH212506   6.437   3.648   3.129  0.1367 -1.0380 -0.1771
 4181TIP3    H112507   6.373   3.617   3.065 -0.2701 -1.3021  0.3445
 4181TIP3    H212508   6.387   3.705   3.188  0.6023 -0.4242 -0.3566
 4182TIP3   OH212509   4.220   4.904   2.395  0.0768 -0.5386 -0.1382
 4182TIP3    H112510   4.278   4.847   2.447  1.0029  0.1811 -0.3536
 4182TIP3    H212511   4.197   4.975   2.455 -1.1335 -1.1340  0.1509
 4183TIP3   OH212512   3.271   3.295   5.097 -0.1149 -0.3481 -0.1696
 4183TIP3    H112513   3.288   3.214   5.049 -1.5469 -0.2735 -0.8483
 4183TIP3    H212514   3.352   3.311   5.146  0.5544 -1.6405 -0.7981
 4184TIP3   OH212515   4.469   6.525   5.597  0.5708  0.4045  0.2885
 4184TIP3    H112516   4.405   6.560   5.534 -0.5312  0.6027  1.4908
 4184TIP3    H212517   4.514   6.603   5.630  2.8801  0.1743 -1.9454
 4185TIP3   OH212518   3.007   5.651   0.803  0.0494  0.5079  0.4256
 4185TIP3    H112519   3.048   5.735   0.826  0.1454  0.4374  0.5138
 4185TIP3    H212520   2.945   5.635   0.874  1.1758 -0.2826  1.2764
 4186TIP3   OH212521   1.587   4.244   5.248  0.1506  0.1814  0.2437
 4186TIP3    H112522   1.539   4.326   5.259 -1.9113 -0.8157 -0.6057
 4186TIP3    H212523   1.677   4.270   5.231 -0.6156  2.3150 -0.8692
 4187TIP3   OH212524   5.760   0.743   5.606  0.6163  0.1441 -0.3622
 4187TIP3    H112525   5.764   0.686   5.683 -0.6398  1.0168  0.3791
 4187TIP3    H212526   5.833   0.713   5.551  0.2853 -1.8542  0.2032
 4188TIP3   OH212527   6.452   6.787   1.319  0.0145 -0.3663 -0.3064
 4188TIP3    H112528   6.545   6.800   1.301  0.2130 -0.5088  0.5991
 4188TIP3    H212529   6.433   6.700   1.284  0.7227 -1.2151  1.3102
 4189TIP3   OH212530   6.333   4.774   5.479 -0.7176  0.3160 -0.8575
 4189TIP3    H112531   6.323   4.681   5.456  0.7417 -0.1300  0.1991
 4189TIP3    H212532   6.257   4.793   5.534 -0.5591 -0.5075 -0.3419
 4190TIP3   OH212533   1.391   2.743   2.651 -0.0528 -0.8200  0.2291
 4190TIP3    H112534   1.324   2.800   2.611  1.0193 -0.4211 -1.0883
 4190TIP3    H212535   1.433   2.799   2.716 -0.5742 -0.8650  0.6075
 4191TIP3   OH212536   2.897   4.612   1.593  0.2154  0.2758  0.2625
 4191TIP3    H112537   2.848   4.530   1.604  0.0703  0.0739 -1.6435
 4191TIP3    H212538   2.831   4.678   1.575  0.4619  0.5046  0.1844
 4192TIP3   OH212539   1.875   5.454   1.307 -0.0920 -0.6261  0.1926
 4192TIP3    H112540   1.909   5.527   1.254  1.6511 -1.0225  0.6841
 4192TIP3    H212541   1.796   5.426   1.261  0.1559  0.4543 -0.9681
 4193TIP3   OH212542   1.085   0.753   1.704 -0.2201 -0.0079  0.1499
 4193TIP3    H112543   1.163   0.793   1.666 -0.1345 -0.1257  0.1999
 4193TIP3    H212544   1.085   0.783   1.795 -0.2355 -0.0046  0.1488
 4194TIP3   OH212545   3.122   2.365   2.474 -0.1917 -0.6374  0.0440
 4194TIP3    H112546   3.171   2.423   2.417 -2.3041  0.9525 -0.2527
 4194TIP3    H212547   3.190   2.320   2.526  1.6060  0.2800 -1.3836
 4195TIP3   OH212548   2.477   3.511   0.276  0.6087 -0.0412  0.7912
 4195TIP3    H112549   2.548   3.568   0.246  0.0088  1.0631  1.3899
 4195TIP3    H212550   2.491   3.503   0.371 -0.1170  0.2767  0.9342
 4196TIP3   OH212551   1.575   5.787   2.025 -0.0858  0.5296  0.3339
 4196TIP3    H112552   1.616   5.794   1.939 -3.0688  0.7876 -1.2163
 4196TIP3    H212553   1.483   5.770   2.006 -0.7902  0.1493  3.5217
 4197TIP3   OH212554   2.806   6.273   0.276 -0.6263  0.1847 -0.1212
 4197TIP3    H112555   2.733   6.316   0.231 -1.1898  1.4019  1.8325
 4197TIP3    H212556   2.847   6.343   0.327  0.7724 -0.8611  0.2466
 4198TIP3   OH212557   1.642   4.293   0.614 -0.1399 -0.2473 -0.4130
 4198TIP3    H112558   1.728   4.279   0.654 -0.7188 -0.3746  0.8246
 4198TIP3    H212559   1.613   4.206   0.589 -0.0977 -0.2564 -0.4300
 4199TIP3   OH212560   6.467   5.550   0.249 -0.2295 -0.1895  0.1537
 4199TIP3    H112561   6.465   5.525   0.156 -3.3591 -1.5817  0.4481
 4199TIP3    H212562   6.380   5.527   0.281 -0.9978  4.5288  2.3665
 4200TIP3   OH212563   3.201   5.911   4.061 -0.1000 -0.0780  0.5096
 4200TIP3    H112564   3.133   5.867   4.112  0.4828 -0.3296  1.0677
 4200TIP3    H212565   3.241   5.842   4.008 -0.4580  0.1192 -0.0363
 4201TIP3   OH212566   6.172   0.220   3.310  0.1524  0.1750 -0.4783
 4201TIP3    H112567   6.103   0.155   3.326 -0.2359  1.2532  3.2105
 4201TIP3    H212568   6.241   0.170   3.265 -1.3447 -2.0043 -0.5271
 4202TIP3   OH212569   0.666   1.476   3.914 -0.1662  0.5261  0.5890
 4202TIP3    H112570   0.613   1.488   3.835  0.2102  0.2285  0.2870
 4202TIP3    H212571   0.655   1.557   3.963 -0.5897  0.6216  0.3443
 4203TIP3   OH212572   5.096   3.018   1.108  0.1320 -0.3797 -0.3925
 4203TIP3    H112573   5.111   3.079   1.036 -2.8187  1.2229  0.1719
 4203TIP3    H212574   5.061   3.072   1.178  2.2629 -1.9957  2.1002
 4204TIP3   OH212575   6.400   1.471   1.387 -0.4390  0.0434 -0.0839
 4204TIP3    H112576   6.362   1.415   1.320 -1.2604 -0.2648  0.6208
 4204TIP3    H212577   6.378   1.560   1.360  0.2118 -0.0043 -0.8062
 4205TIP3   OH212578   0.110   6.373   0.954  0.1024 -0.6905  0.1449
 4205TIP3    H112579   0.174   6.421   0.902 -0.1580 -0.2152  0.2550
 4205TIP3    H212580   0.027   6.418   0.936 -0.1224 -1.0295  0.3394
 4206TIP3   OH212581   2.175   4.496   4.842  0.5922 -0.1918  0.1320
 4206TIP3    H112582   2.195   4.548   4.920  1.2663  0.4039 -0.4222
 4206TIP3    H212583   2.239   4.424   4.845  1.8724  0.8541 -0.8197
 4207TIP3   OH212584   3.515   1.803   0.215  0.2662  0.5860  0.3767
 4207TIP3    H112585   3.435   1.792   0.164  0.7615  2.1246 -0.8136
 4207TIP3    H212586   3.487   1.849   0.294 -0.1802  0.1332  0.4887
 4208TIP3   OH212587   6.280   0.192   1.186  0.1546  0.0827 -0.3232
 4208TIP3    H112588   6.220   0.124   1.155 -2.1069  1.9895 -0.4486
 4208TIP3    H212589   6.279   0.258   1.116 -0.9120  2.0323  1.3888
 4209TIP3   OH212590   3.711   3.384   3.069 -0.1331 -0.1764 -0.1993
 4209TIP3    H112591   3.689   3.474   3.043 -2.0780 -0.8713 -1.1849
 4209TIP3    H212592   3.627   3.340   3.073  0.8688 -2.2419 -0.7839
 4210TIP3   OH212593   5.013   2.871   4.431 -0.6576  0.1753  0.0031
 4210TIP3    H112594   4.989   2.915   4.349 -1.7908  0.5408  0.5257
 4210TIP3    H212595   5.086   2.923   4.465 -0.6856  0.4730 -0.3774
 4211TIP3   OH212596   2.089   5.340   1.475 -0.2162  0.4867  0.0921
 4211TIP3    H112597   2.046   5.395   1.540 -1.5781  0.3825 -0.7042
 4211TIP3    H212598   2.024   5.327   1.406  1.2464  0.7278 -1.3941
 4212TIP3   OH212599   0.330   6.418   4.703  0.1932 -0.6790  0.6238
 4212TIP3    H112600   0.251   6.444   4.751  0.8034  2.2473  0.2740
 4212TIP3    H212601   0.297   6.381   4.621 -1.0035  2.8229 -0.6889
 4213TIP3   OH212602   1.327   6.309   0.306  0.0639 -0.3832 -0.4888
 4213TIP3    H112603   1.235   6.300   0.329 -0.1629  1.0294 -0.7414
 4213TIP3    H212604   1.360   6.220   0.301 -1.3767 -0.9160 -0.7482
 4214TIP3   OH212605   6.845   3.387   5.104  0.0220 -0.0866  0.0252
 4214TIP3    H112606   6.811   3.448   5.039  1.1571  1.1880  0.5909
 4214TIP3    H212607   6.899   3.326   5.053  0.4412  0.5529 -0.3101
 4215TIP3   OH212608   5.623   6.577   3.153 -0.1723  0.1574  0.4107
 4215TIP3    H112609   5.560   6.644   3.126 -0.5412 -1.1963 -2.4611
 4215TIP3    H212610   5.662   6.546   3.072 -0.1156 -3.1814  1.5292
 4216TIP3   OH212611   6.023   3.180   4.503  0.3814 -0.1305  0.6247
 4216TIP3    H112612   6.008   3.269   4.533  1.1936  0.5576 -0.8955
 4216TIP3    H212613   5.940   3.153   4.463  0.4678  0.3788  0.0865
 4217TIP3   OH212614   5.021   3.277   2.765 -0.3553 -0.3454  0.2417
 4217TIP3    H112615   4.982   3.308   2.846 -0.7559 -0.1995 -0.0073
 4217TIP3    H212616   5.110   3.312   2.767 -0.2168 -0.7124  0.8259
 4218TIP3   OH212617   2.622   6.386   0.114  0.6637  0.2250  0.0336
 4218TIP3    H112618   2.627   6.466   0.166  0.9995 -0.2850  0.8002
 4218TIP3    H212619   2.551   6.403   0.051  0.2784  0.8652  0.6270
 4219TIP3   OH212620   2.031   3.161   2.306 -0.3118  0.0270 -0.4470
 4219TIP3    H112621   1.942   3.173   2.273 -0.8182  1.4083  1.2448
 4219TIP3    H212622   2.023   3.177   2.400  1.5078 -1.1406 -0.0516
 4220TIP3   OH212623   3.700   5.476   3.793 -0.1079  0.2111 -0.0874
 4220TIP3    H112624   3.678   5.420   3.867  2.3223  0.8638  1.2330
 4220TIP3    H212625   3.775   5.434   3.752  0.3084  1.2791 -0.4728
 4221TIP3   OH212626   3.822   4.369   4.064  0.1998 -0.1562  0.4770
 4221TIP3    H112627   3.758   4.300   4.047 -0.0101  0.1696 -0.0756
 4221TIP3    H212628   3.770   4.442   4.098 -0.0193  0.7792 -1.7025
 4222TIP3   OH212629   1.168   4.499   1.714 -0.8901 -0.1051 -0.0367
 4222TIP3    H112630   1.114   4.436   1.762  0.0636 -0.3149  0.7736
 4222TIP3    H212631   1.227   4.445   1.661  1.1016  0.0089  1.9347
 4223TIP3   OH212632   3.452   0.147   2.002 -0.7409 -0.5232  0.1826
 4223TIP3    H112633   3.514   0.212   2.033 -0.4044  0.4992 -2.3992
 4223TIP3    H212634   3.506   0.080   1.960 -1.2498 -0.5924 -0.3870
 4224TIP3   OH212635   2.414   0.939   4.439 -0.2173  0.3580  0.4198
 4224TIP3    H112636   2.416   0.867   4.376 -1.5693  1.1493 -0.5779
 4224TIP3    H212637   2.451   0.901   4.519  1.2971 -0.7479 -0.7404
 4225TIP3   OH212638   7.070   0.080   0.499 -0.2953 -0.6694  0.1242
 4225TIP3    H112639   7.155   0.100   0.459 -1.6453  3.1976 -1.3328
 4225TIP3    H212640   7.041   0.000   0.456  0.8640  0.1709 -2.4199
 4226TIP3   OH212641   0.640   4.999   5.470 -0.6972 -0.2297  0.0461
 4226TIP3    H112642   0.662   4.957   5.553 -0.1883 -0.9728 -0.4530
 4226TIP3    H212643   0.691   5.081   5.471 -0.2033 -0.5346  0.1942
 4227TIP3   OH212644   3.572   5.368   0.884  0.1478 -0.2973 -0.2924
 4227TIP3    H112645   3.541   5.447   0.926 -2.7375  0.0860 -2.8223
 4227TIP3    H212646   3.664   5.361   0.911  0.1262  3.1022  1.1343
 4228TIP3   OH212647   6.084   3.830   4.237  0.2463 -0.0860 -0.1178
 4228TIP3    H112648   6.163   3.792   4.199  0.4886 -1.3437  1.5387
 4228TIP3    H212649   6.088   3.923   4.213  2.7290  0.0805  0.6939
 4229TIP3   OH212650   4.007   2.953   5.894 -0.4352  0.8052  0.1534
 4229TIP3    H112651   3.988   2.957   5.800 -0.7172 -1.0109  0.1071
 4229TIP3    H212652   4.090   2.905   5.900 -0.7269  0.3704  0.8493
 4230TIP3   OH212653   2.553   0.420   1.053  0.0742 -0.3788  0.6289
 4230TIP3    H112654   2.516   0.488   1.108 -1.0483 -0.6302  0.2084
 4230TIP3    H212655   2.504   0.425   0.971  1.2513 -0.4614 -0.1100
 4231TIP3   OH212656   5.790   4.462   1.726  0.1925  0.1148  0.4276
 4231TIP3    H112657   5.852   4.516   1.775  0.6382  0.3630 -0.3820
 4231TIP3    H212658   5.771   4.513   1.647 -0.7071 -0.1607  0.4614
 4232TIP3   OH212659   2.182   1.759   1.719  0.1987  0.1864 -0.0175
 4232TIP3    H112660   2.147   1.677   1.685  0.1709 -1.6951  4.0027
 4232TIP3    H212661   2.276   1.755   1.699 -0.0154 -0.1182 -1.0259
 4233TIP3   OH212662   2.436   5.227   5.573 -0.0096 -0.0210 -0.2647
 4233TIP3    H112663   2.392   5.250   5.655  0.2288  2.8683 -0.8572
 4233TIP3    H212664   2.464   5.136   5.585 -0.9925 -0.0387  2.3815
 4234TIP3   OH212665   6.440   3.685   4.767  0.6350  0.1369  0.0331
 4234TIP3    H112666   6.418   3.640   4.849 -3.8747  1.8651  0.0526
 4234TIP3    H212667   6.364   3.673   4.711  1.2594  3.4633 -1.8432
 4235TIP3   OH212668   1.420   5.417   4.673  0.1573  0.4750  0.8345
 4235TIP3    H112669   1.329   5.414   4.702 -0.4113  1.0914 -0.7649
 4235TIP3    H212670   1.441   5.327   4.650 -0.3047  0.4556  0.4840
 4236TIP3   OH212671   0.523   2.411   3.299 -0.3994  0.0528 -0.3832
 4236TIP3    H112672   0.457   2.359   3.254  0.7118  0.4267 -2.5626
 4236TIP3    H212673   0.557   2.354   3.368 -1.2240 -1.0375 -0.8641
 4237TIP3   OH212674   4.029   3.284   3.075 -0.2524 -0.0344 -0.7505
 4237TIP3    H112675   3.956   3.228   3.048  0.1952 -0.8489 -0.3066
 4237TIP3    H212676   4.016   3.366   3.026 -1.2668 -0.2916 -0.9299
 4238TIP3   OH212677   3.902   3.294   3.528  0.2942 -0.2283  0.2109
 4238TIP3    H112678   3.992   3.264   3.520  0.2384 -0.1169 -1.0671
 4238TIP3    H212679   3.897   3.371   3.472  0.2082  1.7497  2.7343
 4239TIP3   OH212680   0.804   0.211   4.434  0.2286 -0.2386 -0.3423
 4239TIP3    H112681   0.880   0.170   4.476  1.1654 -0.7240 -2.3841
 4239TIP3    H212682   0.796   0.295   4.479  1.9869 -0.1660 -0.0566
 4240TIP3   OH212683   2.197   6.043   3.578  0.0729  0.0729 -0.0037
 4240TIP3    H112684   2.263   5.993   3.529  1.1299  2.8962 -1.6489
 4240TIP3    H212685   2.228   6.042   3.669 -1.3669 -4.3444  0.7042
 4241TIP3   OH212686   1.252   6.418   5.187 -0.1565 -0.0965 -0.0486
 4241TIP3    H112687   1.285   6.358   5.119 -0.1904  0.1864 -0.3161
 4241TIP3    H212688   1.308   6.495   5.180 -0.1650 -0.0625  0.2450
 4242TIP3   OH212689   6.052   6.320   5.646  0.1824 -0.1120  0.5726
 4242TIP3    H112690   5.994   6.389   5.677  0.0773  0.0910 -0.0684
 4242TIP3    H212691   6.109   6.301   5.721  1.2553  1.7470  0.2882
 4243TIP3   OH212692   0.324   0.096   5.621  0.0426  0.3561 -0.0619
 4243TIP3    H112693   0.346   0.040   5.696  0.9157  0.2187 -0.4071
 4243TIP3    H212694   0.390   0.166   5.623 -2.6879  3.1923  2.1311
 4244TIP3   OH212695   2.335   2.425   0.260  0.3768  0.1699 -0.4237
 4244TIP3    H112696   2.248   2.450   0.227  1.0264  2.1989 -0.7724
 4244TIP3    H212697   2.391   2.424   0.182  1.1920  1.5777  0.0851
 4245TIP3   OH212698   0.085   2.287   2.361 -0.4333  0.1176  0.4026
 4245TIP3    H112699   0.158   2.263   2.418  0.2453 -0.7449 -0.7746
 4245TIP3    H212700   0.040   2.204   2.343  0.3122  0.0754 -1.5307
 4246TIP3   OH212701   1.896   1.243   3.106 -0.0368  0.0873  0.6305
 4246TIP3    H112702   1.859   1.328   3.082 -0.7951  0.1075  1.8042
 4246TIP3    H212703   1.965   1.264   3.170  1.5533 -0.0116 -0.9591
 4247TIP3   OH212704   1.962   4.237   5.908 -0.3930  0.0402 -0.1526
 4247TIP3    H112705   1.946   4.254   5.816 -0.3478  0.5841 -0.0667
 4247TIP3    H212706   2.025   4.305   5.934 -2.1078  1.3447  0.8130
 4248TIP3   OH212707   1.803   6.059   4.213 -0.5764 -0.0148 -0.1186
 4248TIP3    H112708   1.825   6.115   4.138  0.3749  2.4078  1.7906
 4248TIP3    H212709   1.879   6.067   4.271 -2.4948  0.8346  2.4808
 4249TIP3   OH212710   6.174   2.898   4.249  0.2504 -0.3052  0.7084
 4249TIP3    H112711   6.207   2.812   4.223 -0.9133 -0.5886  0.1072
 4249TIP3    H212712   6.194   2.903   4.343  0.6654 -1.0707  0.6735
 4250TIP3   OH212713   3.683   4.190   2.147  0.2559 -0.4293  0.0142
 4250TIP3    H112714   3.608   4.146   2.188 -0.2743 -0.2771 -0.7486
 4250TIP3    H212715   3.754   4.127   2.152 -0.2802 -1.0754 -0.3563
 4251TIP3   OH212716   4.392   4.984   4.292  0.2505 -0.0992  0.2953
 4251TIP3    H112717   4.383   5.044   4.367 -1.8736 -0.3709  0.3167
 4251TIP3    H212718   4.465   5.020   4.242  0.4914  1.1992  1.4927
 4252TIP3   OH212719   1.104   0.098   2.467 -0.8022 -0.2300  0.4002
 4252TIP3    H112720   1.157   0.165   2.509  0.1692  0.3510 -1.6631
 4252TIP3    H212721   1.143   0.015   2.496  1.1940  0.1770 -0.9246
 4253TIP3   OH212722   2.116   5.129   5.309  0.2684 -0.1068 -0.7247
 4253TIP3    H112723   2.201   5.168   5.288 -0.7134  2.3548 -0.4724
 4253TIP3    H212724   2.132   5.081   5.391  1.1390  1.5001  0.1013
 4254TIP3   OH212725   5.792   3.727   1.120  0.0319  0.5771  0.2516
 4254TIP3    H112726   5.730   3.675   1.069 -0.1833  0.9143  0.1652
 4254TIP3    H212727   5.751   3.813   1.128  0.1472  0.5850  0.8406
 4255TIP3   OH212728   5.934   4.183   5.179  0.2568 -0.3094 -0.5759
 4255TIP3    H112729   5.923   4.239   5.256  0.4721 -0.1617 -0.6534
 4255TIP3    H212730   6.016   4.212   5.139  1.7541 -2.3569  0.8107
 4256TIP3   OH212731   1.585   1.716   4.617  0.2382  0.2261 -0.1578
 4256TIP3    H112732   1.537   1.653   4.671 -0.2257 -0.0467 -0.8688
 4256TIP3    H212733   1.671   1.721   4.658  1.0586 -2.5598 -1.2906
 4257TIP3   OH212734   4.355   4.023   3.299 -0.3872  0.3509  0.2370
 4257TIP3    H112735   4.287   4.057   3.241  0.0142 -0.3644 -0.6685
 4257TIP3    H212736   4.423   3.989   3.241  0.0989 -0.2451  1.1184
 4258TIP3   OH212737   2.747   4.696   2.311  0.0672  0.1879  0.3502
 4258TIP3    H112738   2.752   4.636   2.237  0.9532 -1.1358  1.4219
 4258TIP3    H212739   2.653   4.714   2.321  0.0208  1.5140 -1.8960
 4259TIP3   OH212740   6.515   1.422   3.603  0.1960  0.2000 -0.0719
 4259TIP3    H112741   6.602   1.400   3.570  0.5387  2.2535 -0.6824
 4259TIP3    H212742   6.512   1.384   3.691  0.5360 -2.4946 -1.1535
 4260TIP3   OH212743   1.835   6.354   2.138  0.0751  0.5368  0.5332
 4260TIP3    H112744   1.853   6.262   2.118 -0.0466  0.7470 -0.6643
 4260TIP3    H212745   1.812   6.392   2.053  0.3102  1.7150  0.9799
 4261TIP3   OH212746   3.949   1.391   4.033 -0.4785  0.1606  0.0846
 4261TIP3    H112747   3.932   1.399   4.126  1.7381  1.5081  0.4572
 4261TIP3    H212748   4.041   1.363   4.028 -0.6555 -0.2145 -1.6963
 4262TIP3   OH212749   2.281   1.285   1.617 -0.7674  0.0591  0.5219
 4262TIP3    H112750   2.337   1.255   1.546 -0.6170 -0.8609  1.0112
 4262TIP3    H212751   2.217   1.215   1.628  1.1654 -1.4850  3.4525
 4263TIP3   OH212752   2.558   3.933   5.634 -0.0789 -1.1221 -0.1611
 4263TIP3    H112753   2.533   3.871   5.565  0.3991 -0.9151 -0.5305
 4263TIP3    H212754   2.617   3.883   5.691 -0.0996 -1.1567 -0.1700
 4264TIP3   OH212755   1.814   1.686   0.339  0.3282  0.3595  0.1208
 4264TIP3    H112756   1.900   1.672   0.299 -0.6973 -1.6230 -1.5748
 4264TIP3    H212757   1.807   1.619   0.407 -0.6266 -0.8930 -1.1515
 4265TIP3   OH212758   3.441   4.916   2.791  0.9008  0.1557 -0.0830
 4265TIP3    H112759   3.497   4.951   2.722  1.2744 -1.5198 -0.6882
 4265TIP3    H212760   3.400   4.839   2.751 -1.6169  1.1345  0.4426
 4266TIP3   OH212761   6.375   5.931   1.804  0.5426 -0.1980  0.0821
 4266TIP3    H112762   6.359   5.857   1.745  1.3142 -1.1191  1.0003
 4266TIP3    H212763   6.346   6.008   1.754 -1.2991 -1.1997 -0.4826
 4267TIP3   OH212764   1.316   6.119   2.799 -0.1796  0.4817 -0.1951
 4267TIP3    H112765   1.312   6.112   2.704 -0.4244  1.1379 -0.2360
 4267TIP3    H212766   1.348   6.207   2.816 -1.6064  0.9236  0.3414
 4268TIP3   OH212767   2.487   5.874   0.877  0.7554  0.5510 -0.2733
 4268TIP3    H112768   2.403   5.902   0.914 -0.0808  0.3073 -1.9059
 4268TIP3    H212769   2.553   5.914   0.934 -0.4474  1.7661  0.3098
 4269TIP3   OH212770   5.294   0.438   3.073  0.6165  0.4680 -0.0565
 4269TIP3    H112771   5.324   0.521   3.035 -1.2434  1.2210  0.0282
 4269TIP3    H212772   5.343   0.430   3.155  1.7887  0.7992 -0.7076
 4270TIP3   OH212773   6.409   4.424   4.620 -0.0409  0.1604  0.2440
 4270TIP3    H112774   6.323   4.382   4.631  0.7226 -1.5821 -0.0702
 4270TIP3    H212775   6.472   4.352   4.628  1.1893  0.4851 -4.1249
 4271TIP3   OH212776   0.768   1.321   4.628  0.0890 -0.1023 -0.3248
 4271TIP3    H112777   0.764   1.331   4.723 -0.3953 -0.9370 -0.2475
 4271TIP3    H212778   0.847   1.270   4.613 -0.3778 -0.8565 -0.2787
 4272TIP3   OH212779   6.047   0.846   3.315 -0.2567 -0.0234  0.1154
 4272TIP3    H112780   5.973   0.800   3.356  0.5855 -1.1819  0.3820
 4272TIP3    H212781   6.121   0.786   3.325  0.4922  0.6665 -1.0783
 4273TIP3   OH212782   7.149   0.668   2.615  0.4881  0.8551 -0.2192
 4273TIP3    H112783   7.237   0.630   2.612  0.4191  0.7389 -1.1442
 4273TIP3    H212784   7.095   0.605   2.566 -0.1045  0.9446  0.3061
 4274TIP3   OH212785   4.211   1.123   2.151  0.4528 -0.3501  0.1233
 4274TIP3    H112786   4.275   1.161   2.211  1.4572 -0.3308 -0.9268
 4274TIP3    H212787   4.127   1.158   2.181  0.9835  0.0811  1.1734
 4275TIP3   OH212788   1.954   0.449   0.609 -0.4665 -0.0122  0.5090
 4275TIP3    H112789   2.036   0.452   0.558 -0.0654  0.4346  1.1694
 4275TIP3    H212790   1.897   0.392   0.558 -0.0589  0.3934 -0.4248
 4276TIP3   OH212791   0.669   2.221   3.496  0.2967  0.1965 -0.1717
 4276TIP3    H112792   0.668   2.130   3.524 -1.1149  0.5321  0.9978
 4276TIP3    H212793   0.762   2.242   3.483  0.6582 -1.2743 -0.0639
 4277TIP3   OH212794   1.499   2.293   2.049  0.0027  0.2028  0.1616
 4277TIP3    H112795   1.519   2.208   2.087  1.8371 -0.4388 -2.0210
 4277TIP3    H212796   1.404   2.301   2.057 -0.5639 -3.0982 -1.5556
 4278TIP3   OH212797   4.916   2.492   4.326  0.3259  0.0459  0.4441
 4278TIP3    H112798   4.843   2.472   4.267  0.7315  0.6064 -0.2647
 4278TIP3    H212799   4.931   2.411   4.374  0.0387 -0.4458 -0.2787
 4279TIP3   OH212800   0.792   0.463   4.195 -0.3714  0.3910  0.6592
 4279TIP3    H112801   0.833   0.535   4.147  1.1463  0.1209  1.4947
 4279TIP3    H212802   0.860   0.396   4.200 -2.0675 -1.6136 -1.0482
 4280TIP3   OH212803   6.659   5.012   5.526 -0.0603 -0.3690 -0.7864
 4280TIP3    H112804   6.656   5.107   5.516 -2.1867 -0.3592 -0.6257
 4280TIP3    H212805   6.707   4.981   5.449  1.7554  0.8678 -0.2100
 4281TIP3   OH212806   2.377   5.322   3.735 -0.5949  0.2869 -0.2459
 4281TIP3    H112807   2.317   5.252   3.760 -0.6177 -0.5098 -2.3936
 4281TIP3    H212808   2.423   5.344   3.817 -1.1723 -1.6382  0.6612
 4282TIP3   OH212809   3.963   0.599   1.525  0.2649  0.0587  0.2366
 4282TIP3    H112810   4.006   0.533   1.471  1.0910  1.5706 -1.0328
 4282TIP3    H212811   4.019   0.607   1.602  0.1793 -0.6848  0.3790
 4283TIP3   OH212812   6.347   0.882   4.074 -0.2366  0.1049 -0.4341
 4283TIP3    H112813   6.379   0.825   4.144  0.6088  1.4191  0.2889
 4283TIP3    H212814   6.254   0.892   4.092 -0.1815 -0.1994  0.0496
 4284TIP3   OH212815   6.554   2.703   3.327 -0.1449  0.2337  0.6464
 4284TIP3    H112816   6.587   2.697   3.237 -0.8310  1.9792  0.2606
 4284TIP3    H212817   6.546   2.611   3.355  1.8341 -0.3307 -0.3911
 4285TIP3   OH212818   5.220   1.186   1.741 -0.6743  0.1941 -0.2252
 4285TIP3    H112819   5.149   1.251   1.735 -0.8750 -0.1398 -3.4057
 4285TIP3    H212820   5.184   1.115   1.794 -1.3113  1.6016  1.3153
 4286TIP3   OH212821   3.158   4.335   3.904 -0.1620  0.2555  0.1669
 4286TIP3    H112822   3.167   4.426   3.933  1.1023 -0.1131  1.0237
 4286TIP3    H212823   3.187   4.336   3.813 -0.6405  0.7918  0.0152
 4287TIP3   OH212824   4.819   0.029   4.064  0.0527 -0.0515 -0.3719
 4287TIP3    H112825   4.826   0.117   4.025  0.8297 -0.0931 -0.3399
 4287TIP3    H212826   4.725   0.014   4.072 -0.1357  1.6759  1.6497
 4288TIP3   OH212827   1.356   4.940   1.746 -0.2665  0.5625  0.1169
 4288TIP3    H112828   1.359   4.991   1.826  2.4438 -0.5569  0.8339
 4288TIP3    H212829   1.383   4.852   1.772  1.3030  0.3038 -2.0838
 4289TIP3   OH212830   1.615   2.403   1.696 -0.0461  0.4440 -1.0575
 4289TIP3    H112831   1.666   2.417   1.775 -0.1006  2.1042 -1.2826
 4289TIP3    H212832   1.533   2.448   1.712 -1.9565 -2.9421 -0.3321
 4290TIP3   OH212833   6.197   1.847   3.166 -0.4952  0.3824 -0.4585
 4290TIP3    H112834   6.209   1.784   3.238 -0.9972  1.8997  1.0275
 4290TIP3    H212835   6.108   1.881   3.179 -0.8500  0.2138 -2.2372
 4291TIP3   OH212836   4.183   2.051   4.666 -0.3492  0.2750 -0.1969
 4291TIP3    H112837   4.150   1.999   4.593 -1.2647 -2.9093  2.2271
 4291TIP3    H212838   4.277   2.038   4.665 -0.6165 -2.5345  0.9132
 4292TIP3   OH212839   5.615   3.432   1.638 -0.0999 -0.3019  0.3045
 4292TIP3    H112840   5.674   3.427   1.563 -1.0383  0.3295 -0.5042
 4292TIP3    H212841   5.669   3.405   1.713  0.1347 -3.8235 -0.9333
 4293TIP3   OH212842   2.747   2.798   0.122 -0.3630 -0.0248 -0.6986
 4293TIP3    H112843   2.684   2.728   0.100  0.4394 -1.3194  0.8789
 4293TIP3    H212844   2.811   2.795   0.051 -0.6084 -0.5746 -0.9093
 4294TIP3   OH212845   3.185   6.607   4.047  0.2105 -0.5791  0.0397
 4294TIP3    H112846   3.170   6.668   3.976 -0.6303 -0.5061  0.2722
 4294TIP3    H212847   3.261   6.642   4.094 -0.5205  0.5381  0.4349
 4295TIP3   OH212848   3.843   3.251   2.576  0.2657  0.2823  0.0923
 4295TIP3    H112849   3.754   3.252   2.542  0.1813 -1.5061  0.2076
 4295TIP3    H212850   3.887   3.181   2.529  0.9771 -0.3056  1.5579
 4296TIP3   OH212851   4.933   2.112   0.136 -0.3388 -0.4699  0.3588
 4296TIP3    H112852   5.025   2.123   0.113 -0.6822  0.9896 -0.4361
 4296TIP3    H212853   4.934   2.097   0.231  0.6262  1.3590  0.6833
 4297TIP3   OH212854   0.882   0.835   5.067 -0.2723  0.5029 -0.4026
 4297TIP3    H112855   0.827   0.913   5.076 -0.0969  0.5254  0.5569
 4297TIP3    H212856   0.949   0.859   5.003 -1.4986  0.3982 -1.7704
 4298TIP3   OH212857   6.402   5.482   4.558 -0.8863 -0.1981  0.0178
 4298TIP3    H112858   6.419   5.561   4.507  0.4323 -1.2791 -1.3200
 4298TIP3    H212859   6.328   5.504   4.614 -1.1441  1.6624 -0.9989
 4299TIP3   OH212860   1.993   6.547   1.343  0.1614  0.8454  0.5084
 4299TIP3    H112861   1.953   6.533   1.257 -0.0773  0.0022  0.7470
 4299TIP3    H212862   2.043   6.467   1.359 -2.4223 -0.5411  2.5809
 4300TIP3   OH212863   1.997   3.588   2.859  0.3161 -0.1075 -0.0039
 4300TIP3    H112864   1.943   3.513   2.884  2.1111 -1.1513  0.9484
 4300TIP3    H212865   1.937   3.662   2.862 -1.0836 -1.2092  0.9542
 4301TIP3   OH212866   1.911   0.668   1.751  0.0508  0.5331  0.7006
 4301TIP3    H112867   1.892   0.639   1.841 -1.9510 -0.7305 -0.0483
 4301TIP3    H212868   1.877   0.758   1.747 -2.3882 -0.3068  0.5511
 4302TIP3   OH212869   0.336   6.050   5.115  0.0113 -0.0020 -0.3142
 4302TIP3    H112870   0.387   6.053   5.034  0.5817  0.2370  0.0500
 4302TIP3    H212871   0.326   5.957   5.134  2.6012 -0.0768  1.0231
 4303TIP3   OH212872   6.981   1.277   5.719 -0.8133 -0.1512 -0.2337
 4303TIP3    H112873   6.960   1.196   5.674  1.6847  0.4740 -2.7532
 4303TIP3    H212874   7.073   1.294   5.698 -0.8804  2.6869  1.2426
 4304TIP3   OH212875   5.830   4.171   0.127 -0.0419  0.3482  0.1859
 4304TIP3    H112876   5.891   4.177   0.054 -0.4285  1.1873 -0.0699
 4304TIP3    H212877   5.801   4.079   0.127 -0.0362  0.3443 -0.7068
 4305TIP3   OH212878   0.767   5.277   1.139  0.3065 -0.0797  0.1848
 4305TIP3    H112879   0.821   5.346   1.100  0.2213 -0.0509  0.1152
 4305TIP3    H212880   0.829   5.219   1.182  0.3289  0.4056  0.8241
 4306TIP3   OH212881   6.003   4.759   3.778  0.0515 -0.0499 -0.6268
 4306TIP3    H112882   6.020   4.853   3.767  0.5281 -0.0938 -0.2961
 4306TIP3    H212883   6.064   4.717   3.717  0.1816 -0.1609 -0.4202
 4307TIP3   OH212884   6.244   0.336   4.357 -0.2007 -0.5254 -0.3304
 4307TIP3    H112885   6.227   0.392   4.432 -1.2068 -2.6545  1.1125
 4307TIP3    H212886   6.268   0.397   4.287  0.9888  1.5257  1.7155
 4308TIP3   OH212887   4.677   4.367   3.624  0.0644 -0.0234  0.3849
 4308TIP3    H112888   4.670   4.391   3.531 -2.1964  0.5667  0.6263
 4308TIP3    H212889   4.748   4.421   3.657  1.2965 -0.6625 -1.1066
 4309TIP3   OH212890   6.245   3.196   5.728 -0.3536  0.3009 -0.4384
 4309TIP3    H112891   6.228   3.244   5.647  0.5875 -1.4697 -1.7685
 4309TIP3    H212892   6.220   3.105   5.708  1.9064 -0.6167  0.4944
 4310TIP3   OH212893   0.435   0.076   1.148 -0.1425  0.3111 -0.1724
 4310TIP3    H112894   0.459   0.112   1.234  0.8835  3.4014 -1.6238
 4310TIP3    H212895   0.393   0.149   1.103 -2.0620 -1.6911 -1.8182
 4311TIP3   OH212896   4.129   4.337   4.975  0.0971 -0.3460 -0.0397
 4311TIP3    H112897   4.124   4.287   4.893 -2.5224 -0.9647  0.4133
 4311TIP3    H212898   4.056   4.305   5.027 -1.2676  3.3688  0.6198
 4312TIP3   OH212899   6.251   0.824   4.540  0.0531 -0.1270 -0.3572
 4312TIP3    H112900   6.173   0.781   4.574 -0.9390  1.9396  0.1167
 4312TIP3    H212901   6.324   0.781   4.585 -0.8869 -1.1967  0.1865
 4313TIP3   OH212902   5.401   3.775   3.029  0.2801 -0.6701 -0.1614
 4313TIP3    H112903   5.383   3.704   2.968  1.5566 -0.2589 -1.0601
 4313TIP3    H212904   5.339   3.844   3.003  1.0022 -0.3867 -1.2248
 4314TIP3   OH212905   4.296   1.283   1.147  0.5591  0.2586 -0.2603
 4314TIP3    H112906   4.380   1.261   1.105  1.2653  0.7983  0.8174
 4314TIP3    H212907   4.248   1.330   1.079  1.3754  0.4511 -0.7244
 4315TIP3   OH212908   5.128   6.457   3.216  0.1056  0.2371 -0.1991
 4315TIP3    H112909   5.179   6.460   3.136  0.1489  0.0151 -0.1809
 4315TIP3    H212910   5.134   6.546   3.252 -1.1806  0.7738 -1.2195
 4316TIP3   OH212911   5.918   2.392   4.795  0.2594  0.1056  0.1307
 4316TIP3    H112912   5.957   2.348   4.719  0.2690  1.7443 -0.8707
 4316TIP3    H212913   5.843   2.338   4.818  0.3175 -0.4903 -0.9800
 4317TIP3   OH212914   6.727   2.705   5.149  0.3686  0.2882  0.0402
 4317TIP3    H112915   6.717   2.787   5.100  4.6269  0.2688 -1.2190
 4317TIP3    H212916   6.681   2.720   5.232 -1.7887  2.6182 -1.4367
 4318TIP3   OH212917   1.421   3.923   2.640  0.7569 -0.1357 -0.1239
 4318TIP3    H112918   1.451   3.992   2.581 -0.8100 -0.5354 -1.4862
 4318TIP3    H212919   1.485   3.853   2.630  0.5026 -0.2122 -1.4440
 4319TIP3   OH212920   6.802   0.862   5.227  0.7238 -0.3190 -0.1132
 4319TIP3    H112921   6.796   0.957   5.233 -0.4410 -0.3508 -0.4987
 4319TIP3    H212922   6.875   0.846   5.168 -0.5318  0.4271 -1.9659
 4320TIP3   OH212923   6.971   0.174   5.622 -0.0850 -0.6962 -0.2567
 4320TIP3    H112924   6.896   0.187   5.565  0.9253  0.3097 -1.3984
 4320TIP3    H212925   6.977   0.254   5.673 -0.3364 -1.1590  0.5181
 4321TIP3   OH212926   4.840   2.472   1.898 -0.3091 -0.1156 -0.1496
 4321TIP3    H112927   4.901   2.436   1.963  1.0787 -0.2514 -1.4677
 4321TIP3    H212928   4.808   2.553   1.937  1.5524  0.5144  0.1734
 4322TIP3   OH212929   3.537   5.784   4.847  0.0291 -0.3447  0.3374
 4322TIP3    H112930   3.622   5.756   4.882  0.9235  0.5980 -0.9978
 4322TIP3    H212931   3.489   5.703   4.833  0.8592 -0.9195  0.7377
 4323TIP3   OH212932   7.128   0.543   0.224 -0.3009  0.0731  0.0013
 4323TIP3    H112933   7.217   0.552   0.191 -0.4264 -0.6685 -0.5628
 4323TIP3    H212934   7.135   0.481   0.297 -0.3422  0.0703  0.0033
 4324TIP3   OH212935   2.837   5.726   0.256 -0.6474 -0.0018 -0.1139
 4324TIP3    H112936   2.846   5.664   0.183  0.3653  1.0826 -0.9606
 4324TIP3    H212937   2.756   5.774   0.237  0.3192  1.2368 -1.3520
 4325TIP3   OH212938   1.924   4.539   5.779  0.0546  0.5188  0.3355
 4325TIP3    H112939   2.002   4.534   5.834  1.6810 -1.2994 -1.9024
 4325TIP3    H212940   1.948   4.601   5.710 -0.4858  0.0006 -0.3282
 4326TIP3   OH212941   2.357   5.675   3.831  0.0388 -0.0708 -0.1652
 4326TIP3    H112942   2.277   5.708   3.872 -0.6685 -1.0981 -0.6827
 4326TIP3    H212943   2.403   5.630   3.901  0.1857  0.5373  0.1390
 4327TIP3   OH212944   1.632   6.132   2.307  0.6261 -0.3123 -0.0410
 4327TIP3    H112945   1.552   6.082   2.297 -0.7028  1.4902  0.9823
 4327TIP3    H212946   1.612   6.218   2.271  1.3769  0.8144  2.0396
 4328TIP3   OH212947   4.825   0.665   5.330  0.2390  0.2143  0.6676
 4328TIP3    H112948   4.879   0.599   5.373  2.0965  1.8854  1.0377
 4328TIP3    H212949   4.875   0.690   5.252 -0.4783  1.0999  0.4675
 4329TIP3   OH212950   0.641   0.865   1.732 -0.4743 -0.0244  0.0226
 4329TIP3    H112951   0.711   0.800   1.738 -1.2091 -1.0610 -1.8157
 4329TIP3    H212952   0.584   0.846   1.806  0.8805  0.5167  1.2572
 4330TIP3   OH212953   2.558   4.799   4.635  0.4914 -0.4636  0.4703
 4330TIP3    H112954   2.645   4.789   4.674  1.5269  3.4920 -0.3346
 4330TIP3    H212955   2.574   4.795   4.541 -0.2537 -0.0686  0.3261
 4331TIP3   OH212956   2.459   4.309   2.724 -0.2331 -0.2019 -0.6568
 4331TIP3    H112957   2.368   4.319   2.753 -0.2686 -1.0487 -0.4347
 4331TIP3    H212958   2.505   4.278   2.802  0.3513  0.6912 -0.6393
 4332TIP3   OH212959   5.072   5.737   1.924  0.0187 -0.1454 -0.1211
 4332TIP3    H112960   5.153   5.688   1.931  0.5016  0.5200 -0.8367
 4332TIP3    H212961   5.010   5.690   1.979  0.6510 -1.1611 -0.2590
 4333TIP3   OH212962   5.436   4.546   0.342  0.9141  0.7886 -0.5612
 4333TIP3    H112963   5.445   4.640   0.360 -0.6705  1.0885 -1.1191
 4333TIP3    H212964   5.409   4.542   0.250 -1.6511 -0.0001  0.1422
 4334TIP3   OH212965   1.167   0.078   4.833 -0.0973 -0.7320  0.2202
 4334TIP3    H112966   1.157   0.106   4.924  1.0147 -1.0405  0.4540
 4334TIP3    H212967   1.238   0.132   4.798 -1.3515  0.2800 -0.8712
 4335TIP3   OH212968   3.419   0.883   1.599  0.0387 -0.8253  0.0576
 4335TIP3    H112969   3.425   0.979   1.605 -1.7270 -0.7153  0.6943
 4335TIP3    H212970   3.415   0.854   1.690 -0.3202 -1.4304 -0.1476
 4336TIP3   OH212971   5.387   0.214   2.956 -0.0273 -0.0808 -0.3499
 4336TIP3    H112972   5.393   0.162   3.037 -2.2751 -0.5038 -0.3985
 4336TIP3    H212973   5.354   0.299   2.985 -0.5013 -0.1187 -0.7780
 4337TIP3   OH212974   3.705   5.156   3.257 -0.2330 -0.2203  0.5518
 4337TIP3    H112975   3.753   5.105   3.191 -1.4784 -0.4666 -0.1995
 4337TIP3    H212976   3.773   5.207   3.302  0.7507 -0.7056 -0.3358
 4338TIP3   OH212977   3.942   6.516   3.095 -0.1617 -0.0940 -0.1529
 4338TIP3    H112978   3.927   6.431   3.054  1.6204  0.2064 -1.5802
 4338TIP3    H212979   4.013   6.500   3.158 -0.3917  0.1929  0.1866
 4339TIP3   OH212980   3.773   1.175   3.423  0.2552 -0.5686 -0.2012
 4339TIP3    H112981   3.711   1.169   3.496 -0.5831 -3.1685 -1.0340
 4339TIP3    H212982   3.752   1.258   3.380 -1.7905 -0.7692  0.3259
 4340TIP3   OH212983   2.790   3.761   4.391 -0.0329  0.0442  0.9134
 4340TIP3    H112984   2.879   3.731   4.370 -0.7011 -0.7239 -1.1089
 4340TIP3    H212985   2.801   3.821   4.464  2.0828 -0.4954  1.0947
 4341TIP3   OH212986   2.360   6.273   4.789  0.6372 -0.6482  0.2198
 4341TIP3    H112987   2.296   6.342   4.807 -0.3563 -0.8679 -2.1074
 4341TIP3    H212988   2.308   6.193   4.787  1.4268 -1.1880  0.6859
 4342TIP3   OH212989   2.021   2.610   0.835 -0.1635  0.1089  0.3046
 4342TIP3    H112990   2.012   2.539   0.898  1.1639  0.1630  0.5795
 4342TIP3    H212991   2.084   2.578   0.771 -0.7569  0.4353 -0.4626
 4343TIP3   OH212992   4.153   0.187   0.683  0.5988  0.2279 -0.1859
 4343TIP3    H112993   4.213   0.113   0.689  0.6594  0.3078  0.1966
 4343TIP3    H212994   4.067   0.151   0.701  0.7310  0.3957  0.8525
 4344TIP3   OH212995   4.203   1.763   2.711 -0.1339 -0.4224  0.3655
 4344TIP3    H112996   4.236   1.768   2.621  1.6847 -0.0781  1.0287
 4344TIP3    H212997   4.211   1.670   2.734  2.1544 -0.0853  1.1297
 4345TIP3   OH212998   5.030   0.234   0.035 -0.1139 -0.0122 -0.1792
 4345TIP3    H112999   5.110   0.258   0.081  1.1998 -1.6578 -1.5362
 4345TIP3    H213000   4.990   0.318   0.012  0.6968  0.8307  1.3497
 4346TIP3   OH213001   5.125   2.164   0.914 -0.2992  0.1165 -0.2292
 4346TIP3    H113002   5.066   2.223   0.868 -0.4591 -1.4662 -2.2322
 4346TIP3    H213003   5.204   2.216   0.929 -1.2948  1.5393  0.3547
 4347TIP3   OH213004   4.472   5.435   1.590  0.4772  0.3678 -0.7529
 4347TIP3    H113005   4.503   5.345   1.603  2.2038  0.9628 -0.4022
 4347TIP3    H213006   4.518   5.485   1.657 -0.0716  1.5888 -1.2768
 4348TIP3   OH213007   1.325   4.701   3.555  0.1855 -0.2851  0.0549
 4348TIP3    H113008   1.419   4.714   3.569 -0.0671  1.6905  0.1981
 4348TIP3    H213009   1.317   4.681   3.462  0.7346 -0.3506  0.0199
 4349TIP3   OH213010   2.115   1.411   2.405 -0.0175 -0.4388 -0.1729
 4349TIP3    H113011   2.129   1.499   2.370 -3.4280  0.7283  0.9922
 4349TIP3    H213012   2.145   1.415   2.495 -2.0530  0.2490  0.5187
 4350TIP3   OH213013   6.531   4.851   0.475  0.2031 -0.6633  0.2925
 4350TIP3    H113014   6.489   4.892   0.400  1.7670 -0.1944 -0.3745
 4350TIP3    H213015   6.496   4.762   0.476 -0.2965 -0.4900 -0.6334
 4351TIP3   OH213016   3.940   2.012   5.413 -0.1034 -0.2357  0.0891
 4351TIP3    H113017   3.983   2.075   5.355  0.0470  0.0853  0.5442
 4351TIP3    H213018   4.011   1.978   5.468  0.0268 -1.6034 -0.8405
 4352TIP3   OH213019   6.324   6.130   0.494  0.4209 -0.3917 -0.7237
 4352TIP3    H113020   6.300   6.151   0.584 -0.2401 -0.6678 -0.8277
 4352TIP3    H213021   6.399   6.186   0.475 -0.3818  0.7969 -0.5183
 4353TIP3   OH213022   4.087   3.575   3.710 -0.2546  0.3852  0.5350
 4353TIP3    H113023   4.044   3.596   3.627 -0.4169 -0.0929  0.4962
 4353TIP3    H213024   4.095   3.659   3.755 -1.4723  0.4489  0.6562
 4354TIP3   OH213025   4.123   5.031   0.973 -0.2948 -0.5666 -0.0457
 4354TIP3    H113026   4.215   5.020   0.949 -0.3431 -0.3563 -0.3263
 4354TIP3    H213027   4.106   5.125   0.967 -0.3879 -0.5394  0.5310
 4355TIP3   OH213028   2.571   0.698   3.322  0.6256  0.6039 -0.2996
 4355TIP3    H113029   2.638   0.753   3.363 -0.3590  1.2710  0.4828
 4355TIP3    H213030   2.488   0.733   3.356 -0.0793 -0.7043 -0.6075
 4356TIP3   OH213031   5.041   0.111   2.828 -0.4939  0.1385 -0.3929
 4356TIP3    H113032   5.069   0.086   2.740 -1.9411 -2.9598 -0.1017
 4356TIP3    H213033   4.945   0.108   2.825 -0.5678 -1.0298  1.5078
 4357TIP3   OH213034   2.398   6.601   1.648  0.7160  0.0179  0.7007
 4357TIP3    H113035   2.438   6.628   1.565 -2.3325  1.2223 -0.5476
 4357TIP3    H213036   2.417   6.508   1.655  1.1842 -0.0785 -1.2731
 4358TIP3   OH213037   4.153   4.222   5.479 -0.1295 -0.1240  0.3767
 4358TIP3    H113038   4.101   4.266   5.413 -2.4617 -1.4701  1.1922
 4358TIP3    H213039   4.204   4.157   5.430  0.3720  0.8017 -0.3685
 4359TIP3   OH213040   6.478   5.512   2.641 -0.0599 -0.3898  0.2843
 4359TIP3    H113041   6.498   5.435   2.695 -1.7788 -1.1226 -0.0409
 4359TIP3    H213042   6.563   5.555   2.628  0.7861 -1.6340  1.3639
 4360TIP3   OH213043   3.985   2.492   1.356  0.7144  0.2066  0.5203
 4360TIP3    H113044   4.067   2.447   1.376  1.4362  1.7618  1.2856
 4360TIP3    H213045   3.954   2.523   1.441 -1.6409 -1.8307  0.5178
 4361TIP3   OH213046   6.275   0.858   4.953 -0.2637  0.2850 -0.2637
 4361TIP3    H113047   6.329   0.902   5.018 -0.1473  0.7019 -0.6382
 4361TIP3    H213048   6.285   0.764   4.972 -1.5107  0.4378  1.3292
 4362TIP3   OH213049   5.166   4.729   5.735  0.2490  0.1532  0.3041
 4362TIP3    H113050   5.145   4.665   5.803  1.4008  0.7198  1.2264
 4362TIP3    H213051   5.252   4.700   5.701 -0.6509 -0.5853 -1.5001
 4363TIP3   OH213052   3.832   6.172   2.196 -0.1831  0.5097 -0.0171
 4363TIP3    H113053   3.768   6.105   2.171  0.5274  0.0235 -0.5659
 4363TIP3    H213054   3.914   6.124   2.209 -0.4774  0.6576  3.4552
 4364TIP3   OH213055   2.939   3.978   1.541  0.2512  0.4000 -0.6521
 4364TIP3    H113056   2.887   3.929   1.477  1.2712 -2.3485  0.4749
 4364TIP3    H213057   2.881   3.989   1.616 -0.5592  2.6162 -1.5120
 4365TIP3   OH213058   6.602   2.792   2.517  0.3155 -0.2596 -0.2976
 4365TIP3    H113059   6.611   2.754   2.430  0.2292  0.3781 -0.5894
 4365TIP3    H213060   6.568   2.880   2.502 -3.8938 -1.5363  0.5712
 4366TIP3   OH213061   6.764   2.610   3.771 -0.4650 -0.3520  0.1785
 4366TIP3    H113062   6.669   2.615   3.782 -0.5497 -0.0589 -0.6692
 4366TIP3    H213063   6.797   2.691   3.809 -0.4129 -1.1027  1.8210
 4367TIP3   OH213064   4.393   6.458   3.045 -0.0945 -0.2078 -0.0465
 4367TIP3    H113065   4.336   6.484   2.973 -0.0216  1.6219  0.5130
 4367TIP3    H213066   4.343   6.479   3.124 -0.4047 -2.7059  0.4947
 4368TIP3   OH213067   2.816   1.484   2.298 -0.0752  0.1146  0.0876
 4368TIP3    H113068   2.781   1.464   2.385  0.3545  0.6921  0.4056
 4368TIP3    H213069   2.743   1.525   2.251 -0.0923  0.4924  0.4385
 4369TIP3   OH213070   2.549   4.956   2.602 -0.2042 -0.2866  0.3375
 4369TIP3    H113071   2.633   4.967   2.557 -0.4032  1.4199  0.2894
 4369TIP3    H213072   2.502   5.038   2.585 -2.1761 -1.4686 -0.2193
 4370TIP3   OH213073   5.649   2.704   4.553  0.4756  0.3256 -0.7838
 4370TIP3    H113074   5.691   2.782   4.589  0.3600 -0.2490  0.6528
 4370TIP3    H213075   5.585   2.678   4.619  0.3979 -0.8875 -1.3064
 4371TIP3   OH213076   7.194   0.736   1.725  0.0649 -0.0444 -0.7076
 4371TIP3    H113077   7.163   0.750   1.636 -0.3959 -0.1592 -0.5672
 4371TIP3    H213078   7.230   0.821   1.752  2.2451 -0.5590 -1.7776
 4372TIP3   OH213079   1.114   5.105   2.091  0.2694 -0.5770 -0.0261
 4372TIP3    H113080   1.082   5.045   2.023  0.4806  2.4795 -3.0786
 4372TIP3    H213081   1.208   5.088   2.096  0.3200 -0.5414 -0.8179
 4373TIP3   OH213082   0.189   0.197   5.379 -0.5789  0.2194  0.2249
 4373TIP3    H113083   0.256   0.186   5.446 -0.3264  1.4373  0.1855
 4373TIP3    H213084   0.197   0.288   5.351 -0.8946 -0.1814 -1.2450
 4374TIP3   OH213085   6.053   4.251   3.223 -0.0793 -0.6412  0.0777
 4374TIP3    H113086   5.999   4.296   3.159  0.9649 -0.7212 -0.8885
 4374TIP3    H213087   6.070   4.317   3.290  1.7245  0.5858 -1.4923
 4375TIP3   OH213088   6.342   6.655   2.999  0.1041 -0.0218 -0.1254
 4375TIP3    H113089   6.341   6.632   2.906  2.2901 -0.4784 -0.0859
 4375TIP3    H213090   6.348   6.571   3.045 -0.5896  0.2220  0.4297
 4376TIP3   OH213091   4.655   2.816   0.562 -0.5872 -0.2071  0.1418
 4376TIP3    H113092   4.626   2.888   0.618 -1.8379 -1.0132  0.5877
 4376TIP3    H213093   4.723   2.854   0.507 -1.7309  1.5300 -0.1738
 4377TIP3   OH213094   1.980   5.945   1.107  0.3024 -0.4222  0.1506
 4377TIP3    H113095   2.033   5.969   1.182  0.7926 -1.4690  0.1587
 4377TIP3    H213096   2.011   6.000   1.035 -0.9107  1.3841  0.9346
 4378TIP3   OH213097   4.222   4.840   5.162 -0.3898  0.0827 -0.2436
 4378TIP3    H113098   4.253   4.757   5.199 -1.6282  0.0915  0.8820
 4378TIP3    H213099   4.301   4.881   5.127  0.4158 -1.0993  0.1123
 4379TIP3   OH213100   0.981   2.854   5.285  0.0216  0.9178  0.6624
 4379TIP3    H113101   1.061   2.825   5.242 -0.0393 -0.1415  1.2183
 4379TIP3    H213102   1.009   2.880   5.373 -0.4721 -1.4906  1.6335
 4380TIP3   OH213103   1.140   0.217   5.063  0.8928  0.2203  0.7094
 4380TIP3    H113104   1.229   0.252   5.068  0.4828  1.6089 -1.0742
 4380TIP3    H213105   1.083   0.293   5.069 -0.0667 -0.2156 -1.6622
 4381TIP3   OH213106   1.664   1.823   2.904 -0.3821  0.4453 -0.6354
 4381TIP3    H113107   1.680   1.804   2.997  0.6577  3.8440  0.0007
 4381TIP3    H213108   1.569   1.811   2.894 -0.4128 -0.6663  0.6312
 4382TIP3   OH213109   6.340   4.816   0.100 -0.2676  0.2046  0.4961
 4382TIP3    H113110   6.421   4.766   0.104  0.2046  0.9844  0.8088
 4382TIP3    H213111   6.345   4.876   0.174 -1.4625 -0.2298  0.9480
 4383TIP3   OH213112   3.858   5.196   4.528  0.0557 -0.0523 -0.1026
 4383TIP3    H113113   3.870   5.108   4.566  1.5396 -0.0114 -0.4014
 4383TIP3    H213114   3.859   5.255   4.603 -1.0441 -0.2770  0.1081
 4384TIP3   OH213115   6.806   4.766   5.360 -0.2776 -0.6517  0.2028
 4384TIP3    H113116   6.851   4.697   5.311 -0.4029 -1.1835  0.8376
 4384TIP3    H213117   6.835   4.756   5.450  0.7900  1.0046  0.0932
 4385TIP3   OH213118   4.689   3.706   4.886  0.1016 -0.5245 -0.3429
 4385TIP3    H113119   4.666   3.776   4.825 -2.7296 -0.2697  0.8539
 4385TIP3    H213120   4.753   3.652   4.838 -0.8928  0.4478 -2.9555
 4386TIP3   OH213121   1.453   6.037   0.316 -0.0426  0.1536  0.1095
 4386TIP3    H113122   1.537   6.052   0.360  0.5606  0.4052 -1.0732
 4386TIP3    H213123   1.437   5.944   0.327  0.3198  0.1301  0.4769
 4387TIP3   OH213124   6.221   0.165   2.893 -0.0066 -0.2398  0.1960
 4387TIP3    H113125   6.195   0.106   2.964 -1.4598  0.9208  0.6877
 4387TIP3    H213126   6.296   0.212   2.927 -1.8126  1.6715  1.8275
 4388TIP3   OH213127   3.337   0.025   2.243 -0.3372  0.1987  0.3136
 4388TIP3    H113128   3.357   0.060   2.156 -1.3017 -0.0246 -0.0153
 4388TIP3    H213129   3.323   0.103   2.297  3.4686  0.4797  1.1603
 4389TIP3   OH213130   4.668   6.446   1.101  0.2874  0.6721  0.5464
 4389TIP3    H113131   4.657   6.412   1.190 -0.9919  0.2912  0.2723
 4389TIP3    H213132   4.668   6.541   1.111  1.3751  0.6281  1.0675
 4390TIP3   OH213133   2.798   1.968   3.484  0.0890 -0.1534 -0.1523
 4390TIP3    H113134   2.839   1.902   3.540 -0.6137 -0.4178  0.0603
 4390TIP3    H213135   2.817   1.938   3.395 -0.0317 -0.5237 -0.0569
 4391TIP3   OH213136   6.330   2.038   4.108  0.0391  0.2373  0.2644
 4391TIP3    H113137   6.393   2.093   4.155 -0.2940  0.7939  0.0689
 4391TIP3    H213138   6.372   1.952   4.105  0.0816  0.1828  1.5639
 4392TIP3   OH213139   2.133   2.975   5.434  0.0678 -0.2428 -0.3758
 4392TIP3    H113140   2.077   2.900   5.453  0.4300 -0.0331  1.6990
 4392TIP3    H213141   2.127   3.030   5.512  1.1308  1.0854 -1.1763
 4393TIP3   OH213142   5.005   5.920   5.387  0.2436 -0.1889 -0.3070
 4393TIP3    H113143   5.076   5.862   5.416 -1.7891 -1.3508  2.8901
 4393TIP3    H213144   4.977   5.884   5.303  2.0998 -0.8786 -0.6909
 4394TIP3   OH213145   5.123   6.195   4.778  0.0157  0.4608  0.1031
 4394TIP3    H113146   5.179   6.267   4.807 -0.2013  1.2489 -1.3304
 4394TIP3    H213147   5.169   6.156   4.705 -0.1168 -0.5538  0.5476
 4395TIP3   OH213148   1.849   2.652   2.311  0.2726 -0.4470  0.3327
 4395TIP3    H113149   1.757   2.676   2.303  0.1742 -0.7347  0.5602
 4395TIP3    H213150   1.849   2.556   2.311  0.5859 -0.4499  0.1880
 4396TIP3   OH213151   5.123   5.757   0.716  0.2576 -0.1278 -0.2371
 4396TIP3    H113152   5.198   5.814   0.701  0.5229 -0.3703  0.1585
 4396TIP3    H213153   5.047   5.809   0.688  0.2316  1.3200  2.2155
 4397TIP3   OH213154   4.773   3.218   0.936  0.9558  0.3937  0.0203
 4397TIP3    H113155   4.787   3.300   0.984 -0.4557 -0.2610  1.6752
 4397TIP3    H213156   4.678   3.215   0.921  1.0233 -0.8004 -0.2476
 4398TIP3   OH213157   4.290   3.117   4.895 -0.0953 -0.0236  0.1339
 4398TIP3    H113158   4.227   3.110   4.824  0.8620 -1.3700 -0.6310
 4398TIP3    H213159   4.376   3.112   4.852  0.5435  1.0778  1.2060
 4399TIP3   OH213160   2.763   0.828   1.701  0.5816 -0.4058  0.0562
 4399TIP3    H113161   2.838   0.777   1.669  0.5733  0.2345 -1.0090
 4399TIP3    H213162   2.802   0.892   1.761  0.8280 -0.3820 -0.1288
 4400TIP3   OH213163   1.372   3.668   0.956 -0.4555  0.4808 -0.1917
 4400TIP3    H113164   1.320   3.686   1.035 -0.8196  0.0494 -0.3298
 4400TIP3    H213165   1.324   3.599   0.911 -0.0968  0.5258 -0.6506
 4401TIP3   OH213166   2.169   6.639   5.071 -0.4252  0.3957  0.2902
 4401TIP3    H113167   2.192   6.727   5.043 -0.7254  0.4830  0.3087
 4401TIP3    H213168   2.090   6.651   5.124 -0.2016  0.1682  0.6826
 4402TIP3   OH213169   4.932   0.305   5.711  0.4864 -0.2653  0.4344
 4402TIP3    H113170   4.892   0.319   5.625 -0.5225  1.0348  1.0803
 4402TIP3    H213171   4.977   0.221   5.703  0.9131  0.0957 -1.5358
 4403TIP3   OH213172   5.178   4.300   1.917 -0.5658 -0.4639 -0.4707
 4403TIP3    H113173   5.178   4.383   1.868 -0.4117  0.5203  1.1262
 4403TIP3    H213174   5.268   4.270   1.913  0.4350  1.7064  2.4852
 4404TIP3   OH213175   4.941   4.790   4.367  0.1194 -0.0485  0.1350
 4404TIP3    H113176   4.931   4.833   4.452 -0.2714  0.8737 -0.3543
 4404TIP3    H213177   5.035   4.774   4.359  0.6594  2.8101 -0.5931
 4405TIP3   OH213178   3.154   4.930   4.778  0.2541  1.2401 -0.3150
 4405TIP3    H113179   3.232   4.921   4.833 -1.4038  0.4151  2.0882
 4405TIP3    H213180   3.107   5.004   4.817 -1.7308 -0.3500  0.4790
 4406TIP3   OH213181   2.125   0.422   0.843  0.2907  0.1682 -0.0071
 4406TIP3    H113182   2.070   0.416   0.921  0.2385  1.0106  0.0219
 4406TIP3    H213183   2.069   0.391   0.772  0.4620 -0.9778  0.3283
 4407TIP3   OH213184  -0.003   3.548   2.880 -0.1075 -0.1969 -0.5146
 4407TIP3    H113185  -0.065   3.611   2.843  0.9041  0.1787 -1.6450
 4407TIP3    H213186   0.080   3.596   2.883  0.3583 -1.0196  0.0014
 4408TIP3   OH213187   2.150   1.900   3.199 -0.1811 -0.1415  0.2605
 4408TIP3    H113188   2.214   1.842   3.239 -0.5476 -0.5369  0.2853
 4408TIP3    H213189   2.108   1.846   3.132 -1.3988 -0.3021  1.1185
 4409TIP3   OH213190   4.020   3.290   1.183 -0.4662 -0.6231  0.6231
 4409TIP3    H113191   4.039   3.313   1.274 -0.4837 -2.3278  1.0892
 4409TIP3    H213192   3.925   3.286   1.178 -0.4845  0.0438  0.3689
 4410TIP3   OH213193   0.206   1.033   0.908 -0.1540  0.4427  0.1959
 4410TIP3    H113194   0.123   1.060   0.948 -0.4901  0.0481 -0.2189
 4410TIP3    H213195   0.182   0.963   0.847  0.1982  1.6247 -1.3800
 4411TIP3   OH213196   0.357   4.157   4.454 -0.1579 -0.3926  1.0008
 4411TIP3    H113197   0.423   4.114   4.508  0.6163  0.2641  0.6047
 4411TIP3    H213198   0.319   4.224   4.511 -0.7431 -0.9838  1.3339
 4412TIP3   OH213199   6.043   6.622   4.805 -0.1937  0.3073 -0.1463
 4412TIP3    H113200   6.111   6.602   4.869  1.0458 -0.3489 -1.5922
 4412TIP3    H213201   6.018   6.713   4.824  1.1060  0.5663  0.4174
 4413TIP3   OH213202   3.694   2.122   1.749  0.3945 -0.0742 -0.1945
 4413TIP3    H113203   3.631   2.081   1.808  0.5561  0.5536  0.4217
 4413TIP3    H213204   3.671   2.088   1.662 -0.1472 -0.6316  0.1576
 4414TIP3   OH213205   0.062   6.433   4.187 -0.3800 -0.3456  0.4614
 4414TIP3    H113206   0.069   6.444   4.092 -0.2128  1.8190  0.6731
 4414TIP3    H213207   0.129   6.491   4.222 -0.7242 -0.8058  1.9383
 4415TIP3   OH213208   0.030   0.111   1.654  0.8106 -0.4394  0.4907
 4415TIP3    H113209   0.115   0.075   1.627  0.3752 -2.0038  1.0961
 4415TIP3    H213210   0.029   0.101   1.749 -0.2121 -0.7918  0.4495
 4416TIP3   OH213211   1.839   5.124   2.712  0.4947 -0.0521 -1.1627
 4416TIP3    H113212   1.842   5.128   2.616 -0.2963  0.0865 -1.1876
 4416TIP3    H213213   1.786   5.200   2.737 -0.2064 -0.6905 -0.6750
 4417TIP3   OH213214   0.705   5.857   5.171  1.0190  0.5522  0.1285
 4417TIP3    H113215   0.748   5.938   5.199 -1.5565  1.7700  0.8976
 4417TIP3    H213216   0.640   5.839   5.239  0.4598 -1.3160 -0.8057
 4418TIP3   OH213217   6.853   3.981   0.398 -0.0238 -0.0955 -0.3511
 4418TIP3    H113218   6.911   4.057   0.395 -0.6108  0.3838  0.1940
 4418TIP3    H213219   6.791   4.001   0.468 -1.4057 -0.2018 -1.5155
 4419TIP3   OH213220   3.934   4.867   3.537 -0.0398  0.4679 -0.3727
 4419TIP3    H113221   3.997   4.808   3.495  0.5427  0.8921 -0.0999
 4419TIP3    H213222   3.849   4.835   3.506  0.1728 -1.1988  0.6147
 4420TIP3   OH213223   3.423   6.780   0.518  0.6194  0.2153 -0.1032
 4420TIP3    H113224   3.369   6.712   0.477 -0.0756  0.4392  0.4460
 4420TIP3    H213225   3.481   6.731   0.577 -1.2313  0.2125  1.8297
 4421TIP3   OH213226   3.350   5.876   1.901 -0.4569  0.3854  0.2455
 4421TIP3    H113227   3.435   5.885   1.858 -0.2963  0.4756  0.5781
 4421TIP3    H213228   3.371   5.861   1.993 -0.7449 -1.8526 -0.0127
 4422TIP3   OH213229   1.078   1.612   5.414 -0.2031  0.1364  0.5626
 4422TIP3    H113230   1.153   1.664   5.383  0.6641 -1.2840  0.2137
 4422TIP3    H213231   1.052   1.558   5.340 -1.0210 -0.0298  0.9535
 4423TIP3   OH213232   0.548   0.228   1.758 -0.0625  0.2646 -0.3663
 4423TIP3    H113233   0.511   0.182   1.834 -0.2171  1.6494  0.4382
 4423TIP3    H213234   0.636   0.192   1.749 -0.3806 -0.5978 -0.1373
 4424TIP3   OH213235   5.307   4.419   3.897  0.1096  0.2556  0.0701
 4424TIP3    H113236   5.318   4.437   3.803 -0.3012  0.0697 -0.0174
 4424TIP3    H213237   5.295   4.505   3.937  0.4425  0.3477 -0.0255
 4425TIP3   OH213238   2.898   2.672   2.967  0.5119  0.6149 -0.4579
 4425TIP3    H113239   2.826   2.642   2.911  0.0932  0.3576  0.1965
 4425TIP3    H213240   2.869   2.650   3.056  1.8960 -0.5245 -0.2589
 4426TIP3   OH213241   6.495   2.077   2.631  0.0128  0.0600 -0.1313
 4426TIP3    H113242   6.472   2.029   2.710 -1.4115 -1.4029 -1.3544
 4426TIP3    H213243   6.428   2.146   2.625  1.4365  1.6081  1.0676
 4427TIP3   OH213244  -0.016   4.564   3.318  0.4664 -0.2901 -0.0821
 4427TIP3    H113245   0.020   4.625   3.253  2.1844  1.4696  2.3165
 4427TIP3    H213246   0.057   4.507   3.341 -0.3494 -1.4349 -0.2381
 4428TIP3   OH213247   0.579   1.084   2.784  0.0246 -0.0582 -0.2269
 4428TIP3    H113248   0.540   1.086   2.871  0.3707 -2.7710  0.0762
 4428TIP3    H213249   0.673   1.076   2.800  0.0829 -0.6942 -0.8381
 4429TIP3   OH213250   1.248   2.687   3.825  0.1656 -1.0967 -0.5253
 4429TIP3    H113251   1.289   2.636   3.895  0.1839 -1.0957 -0.5351
 4429TIP3    H213252   1.187   2.746   3.869  2.9368  1.7165 -0.0966
 4430TIP3   OH213253   2.486   4.070   0.436  0.2023  0.0020 -0.2688
 4430TIP3    H113254   2.449   3.986   0.407  0.2686 -0.0328 -0.2544
 4430TIP3    H213255   2.437   4.136   0.387 -0.1612 -0.0224  0.0610
 4431TIP3   OH213256   1.524   4.637   2.995  0.8966 -0.2814 -0.0203
 4431TIP3    H113257   1.470   4.699   2.946  1.5073  1.2242  1.1437
 4431TIP3    H213258   1.609   4.679   3.002  1.2240 -1.0910  1.0905
 4432TIP3   OH213259   6.628   5.038   2.704  0.4517  0.1877 -0.5329
 4432TIP3    H113260   6.604   4.978   2.775 -2.1992  2.0644  0.3040
 4432TIP3    H213261   6.580   5.004   2.627 -0.3079  0.6715 -0.2841
 4433TIP3   OH213262   4.770   6.315   1.676 -0.1336  0.4965  0.4289
 4433TIP3    H113263   4.809   6.283   1.757 -0.3000  0.0859  0.3462
 4433TIP3    H213264   4.841   6.309   1.612  0.0726  1.0567  0.5966
 4434TIP3   OH213265   3.707   5.147   1.054 -0.4787  0.0831  0.0837
 4434TIP3    H113266   3.784   5.183   1.009 -0.6968  1.0011  0.4224
 4434TIP3    H213267   3.679   5.216   1.113 -0.7121 -0.7922  1.0255
 4435TIP3   OH213268   6.919   3.236   3.680 -0.2909 -0.3180 -0.0724
 4435TIP3    H113269   6.959   3.306   3.628 -0.3854  0.2761  0.6390
 4435TIP3    H213270   6.949   3.155   3.638  0.2722  0.1396 -0.5762
 4436TIP3   OH213271   1.061   6.552   3.616  0.2961  0.3371 -0.3697
 4436TIP3    H113272   1.093   6.510   3.536  0.8051  0.3178 -0.1653
 4436TIP3    H213273   1.055   6.481   3.680  1.5207  0.6143  0.0824
 4437TIP3   OH213274   4.966   5.994   4.867  0.0501  0.1192 -0.2112
 4437TIP3    H113275   5.035   6.054   4.839  0.1998  0.0486 -0.0014
 4437TIP3    H213276   4.889   6.020   4.817 -0.0650  0.9273  0.3717
 4438TIP3   OH213277   2.012   3.604   0.239  0.0882 -0.3610 -0.1214
 4438TIP3    H113278   2.102   3.625   0.264  0.2371 -0.3748 -0.6359
 4438TIP3    H213279   1.973   3.688   0.216  0.3200 -0.4862 -1.0087
 4439TIP3   OH213280   7.227   4.210   1.787  0.3579 -0.1850 -0.6567
 4439TIP3    H113281   7.164   4.175   1.724  0.6238 -2.2252  0.1360
 4439TIP3    H213282   7.195   4.181   1.872  1.1269  0.7520 -0.0253
 4440TIP3   OH213283   6.269   1.980   1.645 -0.5196 -0.0413  0.9919
 4440TIP3    H113284   6.186   1.973   1.597 -1.4366 -1.9044  2.6390
 4440TIP3    H213285   6.334   2.000   1.579 -1.8952 -1.2200 -0.8264
 4441TIP3   OH213286   6.721   1.282   0.505  0.1430 -0.0966 -0.6913
 4441TIP3    H113287   6.712   1.326   0.420 -0.7089  0.0203 -0.5426
 4441TIP3    H213288   6.798   1.225   0.494 -0.1928 -0.3812 -1.6711
 4442TIP3   OH213289   2.249   5.908   2.582 -0.5685 -0.0820 -0.2683
 4442TIP3    H113290   2.336   5.928   2.616  0.2357  0.3139 -2.3833
 4442TIP3    H213291   2.210   5.994   2.564 -1.4175 -0.2573  0.6821
 4443TIP3   OH213292   5.600   3.540   0.573 -0.2438 -0.0300 -0.2050
 4443TIP3    H113293   5.578   3.630   0.596  1.3279  0.1037  0.9450
 4443TIP3    H213294   5.645   3.546   0.489 -1.0060  0.1265 -0.6103
 4444TIP3   OH213295   4.805   4.517   0.036  0.5302  0.3106 -0.0573
 4444TIP3    H113296   4.739   4.511  -0.032  0.0570  1.3793  0.2878
 4444TIP3    H213297   4.765   4.477   0.113  0.3245  0.8391  0.1152
 4445TIP3   OH213298   4.666   1.831   5.093 -0.4690  0.2145 -0.1172
 4445TIP3    H113299   4.708   1.816   5.008  0.0106 -2.1632  0.4608
 4445TIP3    H213300   4.739   1.839   5.154 -0.8244  1.2775  0.1929
 4446TIP3   OH213301   4.159   4.434   5.775 -0.0208  0.0517  0.1568
 4446TIP3    H113302   4.232   4.448   5.835 -0.9685  2.3229  0.8761
 4446TIP3    H213303   4.187   4.360   5.720  1.9995 -0.3406  1.6056
 4447TIP3   OH213304   4.433   3.230   4.529 -0.2080 -0.2363  0.6372
 4447TIP3    H113305   4.524   3.246   4.554 -0.5522  0.7763  1.2776
 4447TIP3    H213306   4.388   3.312   4.546 -0.9050 -0.1507 -1.3526
 4448TIP3   OH213307   5.565   4.150   3.028 -0.4809 -0.5141 -0.0909
 4448TIP3    H113308   5.506   4.225   3.031  0.0350 -0.0208 -1.4910
 4448TIP3    H213309   5.521   4.087   2.971  0.0237 -0.4070 -0.6152
 4449TIP3   OH213310   6.178   2.934   5.582  0.3052 -0.5126 -0.3210
 4449TIP3    H113311   6.107   2.912   5.523 -0.7012  0.2545  0.5696
 4449TIP3    H213312   6.174   2.867   5.651 -0.6924  0.4914  0.6490
 4450TIP3   OH213313   6.074   0.929   4.792  0.2378 -0.1688  0.5139
 4450TIP3    H113314   6.054   0.846   4.748 -2.9406 -0.6355  2.4606
 4450TIP3    H213315   6.156   0.913   4.837  2.1041 -0.6005 -2.7351
 4451TIP3   OH213316   6.462   3.555   5.874  0.1715  0.4150  0.1005
 4451TIP3    H113317   6.387   3.518   5.920  0.5108 -0.3410  0.0645
 4451TIP3    H213318   6.424   3.614   5.809 -0.4857 -1.1094 -0.9514
 4452TIP3   OH213319   7.053   6.127   5.480  0.4845  0.0183  0.3201
 4452TIP3    H113320   6.989   6.121   5.550  1.0899  1.1990  1.0114
 4452TIP3    H213321   7.106   6.048   5.489 -0.2387 -0.4579  0.3858
 4453TIP3   OH213322   3.587   0.861   0.835  0.3831  0.0142 -0.3755
 4453TIP3    H113323   3.651   0.912   0.885  1.7038 -0.8693 -1.1232
 4453TIP3    H213324   3.539   0.811   0.902  0.2327  0.9160  0.2138
 4454TIP3   OH213325   3.112   5.487   2.711 -0.2313  0.3201 -0.7458
 4454TIP3    H113326   3.189   5.449   2.755 -0.3122  1.0073  0.0023
 4454TIP3    H213327   3.087   5.421   2.646  1.1031  0.1666 -1.1354
 4455TIP3   OH213328   3.318   2.058   0.085  0.3459 -0.3513 -0.0771
 4455TIP3    H113329   3.225   2.071   0.103  0.4870  2.6588 -1.0208
 4455TIP3    H213330   3.362   2.085   0.166  0.4806  2.5239 -0.9785
 4456TIP3   OH213331   6.608   5.191   0.131 -0.1133  0.6481 -0.3802
 4456TIP3    H113332   6.664   5.265   0.110 -0.6156  1.4738  1.0260
 4456TIP3    H213333   6.551   5.223   0.201 -0.7535 -0.8829 -0.1488
 4457TIP3   OH213334   3.862   0.312   1.425 -0.1877  0.1788  0.0836
 4457TIP3    H113335   3.862   0.217   1.439  0.0719  0.1622 -0.0214
 4457TIP3    H213336   3.772   0.332   1.399 -0.3207  0.0062  0.4037
 4458TIP3   OH213337   3.592   1.318   5.196  0.4791 -0.0373  0.5755
 4458TIP3    H113338   3.629   1.277   5.118 -0.7381 -0.1550  0.0306
 4458TIP3    H213339   3.656   1.384   5.222  0.6894  0.3105 -0.7971
 4459TIP3   OH213340   2.086   6.425   4.391  0.4187 -0.1796  0.2998
 4459TIP3    H113341   2.097   6.373   4.470 -0.0086 -0.2237  0.3310
 4459TIP3    H213342   1.992   6.425   4.374  0.2980  1.2719  0.7782
 4460TIP3   OH213343   4.413   1.749   3.898 -0.1725 -0.2818 -0.0799
 4460TIP3    H113344   4.357   1.672   3.905  0.4176 -0.6870  0.3118
 4460TIP3    H213345   4.458   1.739   3.814 -0.0016 -0.4392  0.0276
 4461TIP3   OH213346   0.411   0.090   4.402  0.3416 -0.3070 -0.1901
 4461TIP3    H113347   0.390   0.171   4.354 -1.4363 -0.3528  0.4374
 4461TIP3    H213348   0.345   0.085   4.471 -0.2276 -2.7982 -0.8118
 4462TIP3   OH213349   4.448   1.626   4.636 -0.1275 -0.1848  0.7059
 4462TIP3    H113350   4.457   1.560   4.567  1.9739  2.1954 -1.4888
 4462TIP3    H213351   4.354   1.643   4.641 -0.4947 -1.7342 -0.2323
 4463TIP3   OH213352   1.129   4.886   5.830 -0.3957  0.3119  0.6145
 4463TIP3    H113353   1.180   4.862   5.753 -0.4780  1.4965  0.1783
 4463TIP3    H213354   1.184   4.861   5.904  0.8548  1.5996  0.1535
 4464TIP3   OH213355   5.573   0.975   5.562 -0.0482 -0.1848  0.1247
 4464TIP3    H113356   5.560   0.919   5.638  1.6885  2.0182  2.1714
 4464TIP3    H213357   5.513   1.049   5.575  0.0790  0.0987 -0.7888
 4465TIP3   OH213358   4.457   1.628   3.396 -0.1137  0.6127  0.1594
 4465TIP3    H113359   4.454   1.651   3.304 -0.3960 -0.3962 -0.0938
 4465TIP3    H213360   4.530   1.566   3.403 -1.2849 -0.8211  0.2414
 4466TIP3   OH213361   3.087   3.592   5.533  0.1294  0.3694  0.1460
 4466TIP3    H113362   3.065   3.504   5.501  0.4338  0.5453 -0.5730
 4466TIP3    H213363   3.018   3.612   5.596  0.3980 -0.6335  0.7882
 4467TIP3   OH213364   5.010   4.793   1.243  0.1737  0.2556 -0.0355
 4467TIP3    H113365   5.064   4.785   1.164  0.6882  1.2591  0.1982
 4467TIP3    H213366   5.050   4.733   1.305 -0.6421 -1.0535 -0.7409
 4468TIP3   OH213367   5.949   1.926   3.271  0.0348 -0.5626 -0.1993
 4468TIP3    H113368   5.977   1.898   3.359 -0.9849 -0.4997  0.1556
 4468TIP3    H213369   5.897   2.004   3.286  0.3175 -0.2213 -0.9279
 4469TIP3   OH213370   3.039   0.464   0.089  0.1892 -0.4579 -0.1091
 4469TIP3    H113371   3.045   0.544   0.142 -0.1057  1.0997 -2.2434
 4469TIP3    H213372   2.945   0.450   0.078  0.2050  0.3215 -1.6076
 4470TIP3   OH213373   6.605   2.423   5.758 -0.0035 -0.0639  0.0787
 4470TIP3    H113374   6.584   2.516   5.768  0.4104 -0.0317  0.6810
 4470TIP3    H213375   6.684   2.410   5.810  0.3784 -0.5966 -0.6079
 4471TIP3   OH213376   6.502   4.131   3.650 -0.5965 -0.5056  0.3588
 4471TIP3    H113377   6.541   4.163   3.731  0.3060  0.5724 -0.4628
 4471TIP3    H213378   6.576   4.103   3.597 -0.9645  0.8580 -0.9409
 4472TIP3   OH213379   3.539   0.365   4.500 -0.1942 -0.0408 -0.5164
 4472TIP3    H113380   3.555   0.361   4.405  2.4566 -2.0776 -0.1012
 4472TIP3    H213381   3.498   0.281   4.521  0.4159 -0.1439  0.3001
 4473TIP3   OH213382   1.142   1.495   3.052  0.7092  0.1104  0.0719
 4473TIP3    H113383   1.121   1.432   2.983  0.5096  0.4055 -0.1438
 4473TIP3    H213384   1.069   1.490   3.113  0.0110  1.0936 -0.6478
 4474TIP3   OH213385   2.791   0.591   4.640 -0.2065 -0.4613 -0.3058
 4474TIP3    H113386   2.861   0.638   4.596  0.8314 -1.6727 -0.0009
 4474TIP3    H213387   2.831   0.509   4.669 -1.9317 -1.5407 -0.7999
 4475TIP3   OH213388   5.211   1.930   5.241  0.2801  0.1831  0.6356
 4475TIP3    H113389   5.160   2.011   5.235  0.2674  0.2417  1.4398
 4475TIP3    H213390   5.302   1.960   5.244  0.4060  0.0681 -1.0717
 4476TIP3   OH213391   5.652   1.074   4.525 -0.4672 -0.0962 -0.2029
 4476TIP3    H113392   5.568   1.028   4.515 -0.0962 -0.5796 -1.2811
 4476TIP3    H213393   5.708   1.013   4.572  0.4427 -1.3812 -2.7747
 4477TIP3   OH213394   4.578   4.806   0.745 -0.4863 -0.1750 -0.2100
 4477TIP3    H113395   4.655   4.852   0.711 -0.6204 -0.1165 -0.4420
 4477TIP3    H213396   4.613   4.723   0.779  0.0349  0.8733  1.9668
 4478TIP3   OH213397   1.873   4.643   0.818 -0.8611  0.1714  0.7553
 4478TIP3    H113398   1.879   4.640   0.914 -1.2905  0.0583  0.7825
 4478TIP3    H213399   1.963   4.630   0.788 -1.0333 -2.4066  1.1129
 4479TIP3   OH213400   4.918   0.830   3.470  0.7463 -0.1702  0.3543
 4479TIP3    H113401   4.980   0.760   3.490  1.4526  0.2876 -0.1483
 4479TIP3    H213402   4.872   0.847   3.552  1.4750 -0.3466  0.8039
 4480TIP3   OH213403   2.817   4.037   5.765  0.0098  0.5704 -0.1848
 4480TIP3    H113404   2.777   4.097   5.702  0.8192 -0.3072 -1.5912
 4480TIP3    H213405   2.911   4.052   5.756  0.1440  0.2933  0.6806
 4481TIP3   OH213406   3.385   6.080   0.518  0.1257  0.3600  0.2518
 4481TIP3    H113407   3.298   6.064   0.481 -0.7087 -1.0399  2.5782
 4481TIP3    H213408   3.370   6.144   0.587  0.6711 -0.7548  1.4544
 4482TIP3   OH213409   4.672   5.848   4.836  0.6173 -0.2152  0.0265
 4482TIP3    H113410   4.624   5.842   4.753  1.4216 -0.8677 -0.3984
 4482TIP3    H213411   4.616   5.802   4.899 -0.3705  0.9537  0.0354
 4483TIP3   OH213412   5.802   1.713   1.494  0.0946  0.1441  0.0312
 4483TIP3    H113413   5.722   1.661   1.481  0.2119  0.2864 -1.4689
 4483TIP3    H213414   5.771   1.803   1.502  0.0163  0.0501  0.8118
 4484TIP3   OH213415   3.848   3.566   1.075 -0.3856  0.6286 -0.6002
 4484TIP3    H113416   3.827   3.506   1.004 -2.3817 -0.9680  1.1931
 4484TIP3    H213417   3.762   3.592   1.111  0.4910 -0.2285  2.4236
 4485TIP3   OH213418   1.230   1.639   2.471 -0.3995 -0.4885  0.3637
 4485TIP3    H113419   1.297   1.700   2.500  0.7268 -1.8105  0.5863
 4485TIP3    H213420   1.262   1.607   2.386 -1.3712 -0.2101 -0.1303
 4486TIP3   OH213421   2.685   3.580   1.106  0.1206  0.4461 -0.2996
 4486TIP3    H113422   2.718   3.670   1.099  0.8902  0.3421  1.4818
 4486TIP3    H213423   2.704   3.541   1.020  1.0085  1.5782 -0.6461
 4487TIP3   OH213424   2.598   2.720   1.558  0.4165  0.3228  0.4202
 4487TIP3    H113425   2.596   2.811   1.526  2.0318  0.1975 -0.1165
 4487TIP3    H213426   2.576   2.668   1.481 -1.3209  0.2589  0.9177
 4488TIP3   OH213427   3.119   4.148   1.636  0.0996 -0.2501  0.5843
 4488TIP3    H113428   3.053   4.092   1.596 -0.7942  2.6074 -2.2643
 4488TIP3    H213429   3.200   4.126   1.589  0.1988 -0.4914  0.8598
 4489TIP3   OH213430   0.678   3.662   0.926  0.1145  0.2487 -0.1254
 4489TIP3    H113431   0.650   3.677   1.016 -0.1375  0.8777 -0.3053
 4489TIP3    H213432   0.720   3.576   0.928  0.1332  0.2710  0.5950
 4490TIP3   OH213433   4.189   3.293   2.786 -0.5970  0.9568 -0.1073
 4490TIP3    H113434   4.142   3.355   2.731 -2.4568 -0.5163 -0.2602
 4490TIP3    H213435   4.159   3.311   2.874 -0.6486  0.6931 -0.0715
 4491TIP3   OH213436   3.565   2.169   4.979  0.4870  1.0439 -0.3972
 4491TIP3    H113437   3.492   2.179   5.041  0.0089  1.1776 -0.9642
 4491TIP3    H213438   3.628   2.236   5.004  1.9687 -1.1280  2.1563
 4492TIP3   OH213439   0.349   3.693   4.260  0.2417 -0.3447 -0.4011
 4492TIP3    H113440   0.315   3.605   4.248 -1.9911  0.3512  0.2630
 4492TIP3    H213441   0.362   3.702   4.355  1.1025 -0.1655 -0.5256
 4493TIP3   OH213442   3.005   3.832   3.814  0.7263  0.3882  0.8989
 4493TIP3    H113443   3.055   3.812   3.735  1.8530  0.8357  1.4897
 4493TIP3    H213444   2.975   3.922   3.802 -1.0971 -0.2709 -0.0298
 4494TIP3   OH213445   2.194   0.551   4.574 -0.5765 -0.1381 -0.6066
 4494TIP3    H113446   2.283   0.515   4.568 -0.7642 -0.7212 -0.0755
 4494TIP3    H213447   2.137   0.475   4.559 -0.9839  0.2707 -1.1322
 4495TIP3   OH213448   5.230   2.239   2.843  0.3112 -0.1975  0.1890
 4495TIP3    H113449   5.241   2.300   2.916  1.1280  0.2589 -0.3033
 4495TIP3    H213450   5.219   2.294   2.766  3.1035 -0.5772 -0.5913
 4496TIP3   OH213451   2.714   4.750   4.014 -0.2812 -0.3186  0.6942
 4496TIP3    H113452   2.768   4.679   3.980 -0.1489 -0.1748  0.6045
 4496TIP3    H213453   2.776   4.813   4.049 -0.3796 -0.0437  0.3790
 4497TIP3   OH213454   4.842   4.903   5.280  0.3676  0.2520  0.3912
 4497TIP3    H113455   4.784   4.979   5.289  1.3986  0.9915  1.1572
 4497TIP3    H213456   4.841   4.862   5.366  0.5579 -0.0358  0.2571
 4498TIP3   OH213457   4.008   0.913   4.831  0.2567  0.0856 -0.3370
 4498TIP3    H113458   3.937   0.859   4.796  0.0716  0.3501 -0.3822
 4498TIP3    H213459   3.986   1.002   4.800  0.4866  0.2022 -0.1605
 4499TIP3   OH213460   6.226   1.036   3.626 -0.1583 -0.1687 -0.2870
 4499TIP3    H113461   6.167   0.962   3.609 -1.3820 -0.0404  2.8443
 4499TIP3    H213462   6.294   1.000   3.684  0.1206  0.8038  0.0139
 4500TIP3   OH213463   5.405   0.371   1.631  0.4751 -0.4565  0.0920
 4500TIP3    H113464   5.314   0.355   1.658  0.7390  0.3316  1.5022
 4500TIP3    H213465   5.457   0.321   1.693  1.1373  2.2509  1.8518
 4501TIP3   OH213466   6.545   6.739   0.189 -0.6174  0.5240 -0.4758
 4501TIP3    H113467   6.628   6.712   0.149 -1.0218  0.6760 -1.4653
 4501TIP3    H213468   6.482   6.733   0.117 -1.0827  2.3387 -0.2610
 4502TIP3   OH213469   5.541   1.125   1.134 -0.2996  0.4361 -0.5288
 4502TIP3    H113470   5.515   1.095   1.221  0.1162  1.6229  0.0270
 4502TIP3    H213471   5.462   1.162   1.097  0.0541  2.2392  0.3806
 4503TIP3   OH213472   3.574   3.513   5.740  0.1412  0.8359  0.5536
 4503TIP3    H113473   3.618   3.459   5.674 -2.2681  1.6303 -1.9095
 4503TIP3    H213474   3.509   3.456   5.779 -0.1816  1.0552  0.3406
 4504TIP3   OH213475   7.107   2.026   3.072 -0.0026 -0.1906  0.1284
 4504TIP3    H113476   7.198   1.998   3.080  0.3153  1.1267  1.4861
 4504TIP3    H213477   7.104   2.112   3.114 -0.9987  1.7340 -3.4700
 4505TIP3   OH213478   1.647   2.430   4.490 -0.2493  0.3044  0.2644
 4505TIP3    H113479   1.714   2.417   4.557 -2.2719  0.4488  2.4398
 4505TIP3    H213480   1.666   2.516   4.453  1.0336  0.1352  0.4798
 4506TIP3   OH213481   0.198   5.911   2.130  0.0695 -0.2908  0.2098
 4506TIP3    H113482   0.270   5.849   2.125  1.2650  0.8478  2.1442
 4506TIP3    H213483   0.235   5.988   2.172 -1.6671  1.3142 -1.0338
 4507TIP3   OH213484   4.989   1.702   5.063 -0.3745 -0.5675 -0.2335
 4507TIP3    H113485   4.923   1.661   5.119 -0.2171 -1.2884 -0.5726
 4507TIP3    H213486   5.029   1.769   5.120 -0.2109 -1.2901  0.5200
 4508TIP3   OH213487   5.357   2.119   1.980  0.0865  0.0313  0.2480
 4508TIP3    H113488   5.296   2.058   2.022  1.6865 -2.5051 -0.8854
 4508TIP3    H213489   5.325   2.206   2.005 -2.9734 -1.2025  1.0420
 4509TIP3   OH213490   4.943   2.288   4.508 -0.7507 -0.0562 -0.5119
 4509TIP3    H113491   4.978   2.199   4.511  1.0629  0.6339 -0.5176
 4509TIP3    H213492   4.947   2.319   4.598  2.3934  1.3697 -1.0113
 4510TIP3   OH213493   6.071   3.884   5.676  0.1053 -0.5264 -0.1689
 4510TIP3    H113494   6.096   3.893   5.584  0.5157  0.9657  0.0563
 4510TIP3    H213495   5.975   3.884   5.675  0.0769  0.8400 -0.5315
 4511TIP3   OH213496   3.585   0.189   4.825  0.2392 -0.4805 -0.3629
 4511TIP3    H113497   3.670   0.220   4.857  0.4220 -0.6134 -0.7153
 4511TIP3    H213498   3.552   0.134   4.895 -0.0822  0.4903  0.2697
 4512TIP3   OH213499   2.513   0.840   1.564  0.5171  0.1590  0.0620
 4512TIP3    H113500   2.445   0.841   1.632 -0.2106  2.4035 -0.6014
 4512TIP3    H213501   2.594   0.821   1.611  0.0856  1.9313  1.6650
 4513TIP3   OH213502   0.060   3.770   5.686  0.2408  0.2560 -0.3167
 4513TIP3    H113503   0.022   3.707   5.625 -0.0934 -0.3101  0.4533
 4513TIP3    H213504   0.002   3.846   5.683 -0.5630 -0.3181  0.3126
 4514TIP3   OH213505   1.214   4.725   1.893 -0.5335 -0.2998  0.1966
 4514TIP3    H113506   1.185   4.661   1.828 -0.4552  1.3729 -1.5669
 4514TIP3    H213507   1.308   4.709   1.901 -0.4786 -0.2965 -0.3726
 4515TIP3   OH213508   4.509   6.685   4.651  0.2813  0.0534  0.0346
 4515TIP3    H113509   4.533   6.740   4.726  0.2166  0.6848 -0.4132
 4515TIP3    H213510   4.576   6.703   4.585  0.5575 -0.7879  0.0699
 4516TIP3   OH213511   4.386   2.747   3.415 -0.0677  0.3053 -0.7998
 4516TIP3    H113512   4.395   2.653   3.427  0.4406  0.3236 -0.9988
 4516TIP3    H213513   4.300   2.758   3.375 -0.5951  0.0217  0.2423
 4517TIP3   OH213514   0.353   1.481   2.488 -0.0897  0.4360 -0.5381
 4517TIP3    H113515   0.350   1.396   2.445  0.5699 -0.6624  1.4494
 4517TIP3    H213516   0.264   1.493   2.523  0.5124 -0.9150  1.7058
 4518TIP3   OH213517   3.564   0.532   2.715 -0.3071  1.1780 -0.5869
 4518TIP3    H113518   3.563   0.615   2.666 -0.5532  1.7783  0.4154
 4518TIP3    H213519   3.484   0.534   2.766  1.1022  1.7390  1.7420
 4519TIP3   OH213520   5.058   3.198   2.512 -0.0053  0.8207 -0.1816
 4519TIP3    H113521   4.989   3.136   2.487  0.6608  0.4828 -1.2580
 4519TIP3    H213522   5.031   3.231   2.597  0.1485 -1.7443  0.9538
 4520TIP3   OH213523   3.965   1.362   3.576 -0.1607  0.5503 -0.1699
 4520TIP3    H113524   3.970   1.273   3.541  0.6696  0.2948  0.5731
 4520TIP3    H213525   4.013   1.415   3.513 -0.2194  0.3907 -0.3500
 4521TIP3   OH213526   5.994   6.128   2.788 -0.5526 -0.4190 -0.5855
 4521TIP3    H113527   5.996   6.224   2.790 -2.5024 -0.3274 -0.7151
 4521TIP3    H213528   5.973   6.107   2.697  0.0117 -0.9761 -0.5889
 4522TIP3   OH213529   4.150   3.163   1.739  0.3146 -0.3487 -0.1183
 4522TIP3    H113530   4.205   3.207   1.803  2.4723  0.0926 -2.1516
 4522TIP3    H213531   4.198   3.085   1.714 -0.7407 -0.8110 -0.8087
 4523TIP3   OH213532   6.812   1.297   3.993  0.6491  0.0335  0.3511
 4523TIP3    H113533   6.783   1.233   3.928  1.2145 -2.0995  2.0633
 4523TIP3    H213534   6.816   1.380   3.946 -0.1491 -1.1791 -1.9833
 4524TIP3   OH213535   5.632   4.565   5.644  0.3274 -0.6369  0.2440
 4524TIP3    H113536   5.605   4.652   5.674  0.6337 -0.5766  0.3557
 4524TIP3    H213537   5.562   4.507   5.672 -0.0298 -0.3797 -0.1065
 4525TIP3   OH213538   5.667   4.608   1.167 -0.4514  0.0960 -0.1547
 4525TIP3    H113539   5.756   4.602   1.133  1.0342  1.7852  2.9921
 4525TIP3    H213540   5.661   4.537   1.231 -1.7483 -0.5536 -0.9467
 4526TIP3   OH213541   4.006   6.218   0.624  0.4741  0.0691 -0.4722
 4526TIP3    H113542   3.935   6.168   0.664  2.0943  0.1745  2.8930
 4526TIP3    H213543   3.973   6.243   0.538 -2.7937 -1.4359  0.2094
 4527TIP3   OH213544   6.217   6.726   5.238  0.0927  0.3672  0.1407
 4527TIP3    H113545   6.264   6.802   5.203  3.2807 -1.3719  0.2913
 4527TIP3    H213546   6.246   6.721   5.329  1.5898 -2.0713 -0.3781
 4528TIP3   OH213547   6.908   1.107   0.970  0.1603 -0.0951 -0.2976
 4528TIP3    H113548   6.878   1.099   1.060  0.3117 -0.7430 -0.2952
 4528TIP3    H213549   7.004   1.107   0.976  0.1955  1.6654 -0.3270
 4529TIP3   OH213550   4.216   4.910   5.594 -0.2768 -0.4279  0.0271
 4529TIP3    H113551   4.204   4.844   5.662 -1.3971 -0.4422 -0.1652
 4529TIP3    H213552   4.131   4.916   5.550  0.1534  0.2636 -0.7577
 4530TIP3   OH213553   2.366   3.804   2.598  0.3617 -0.0994  0.2969
 4530TIP3    H113554   2.437   3.762   2.551  0.6527 -2.2418  2.4904
 4530TIP3    H213555   2.301   3.735   2.612 -0.2933  0.7726  1.8888
 4531TIP3   OH213556   4.956   0.022   0.461 -0.9330 -0.2272  0.3004
 4531TIP3    H113557   4.866   0.009   0.431 -1.3021  0.4049  1.0842
 4531TIP3    H213558   4.968   0.117   0.459  0.2520 -0.3769 -1.2812
 4532TIP3   OH213559   4.558   4.943   5.140 -0.2921 -0.0195 -0.7140
 4532TIP3    H113560   4.532   4.969   5.228  0.9854 -0.3747 -0.1981
 4532TIP3    H213561   4.583   5.025   5.097  1.7252 -0.0855  0.2106
 4533TIP3   OH213562   3.676   4.034   4.374 -0.8802 -0.0846 -0.1756
 4533TIP3    H113563   3.667   3.976   4.298  0.3234 -2.1718  1.1753
 4533TIP3    H213564   3.770   4.048   4.382 -0.7756 -1.5862  2.0516
 4534TIP3   OH213565   6.744   0.348   2.740  0.2733  0.3649 -0.3114
 4534TIP3    H113566   6.800   0.270   2.746  0.9487  0.9358  1.9568
 4534TIP3    H213567   6.657   0.317   2.766  0.3301  0.1771 -0.3467
 4535TIP3   OH213568   3.555   1.156   1.593 -0.2566  0.3253 -0.5491
 4535TIP3    H113569   3.533   1.233   1.647  0.1192 -0.5590  0.9196
 4535TIP3    H213570   3.587   1.193   1.511  0.4398  1.7677  0.3233
 4536TIP3   OH213571   1.727   1.690   4.165 -0.4789 -0.5901  0.8122
 4536TIP3    H113572   1.784   1.621   4.132  0.3287 -0.2196  1.4027
 4536TIP3    H213573   1.687   1.653   4.243 -0.0179 -0.3897  1.1493
 4537TIP3   OH213574   5.703   1.765   2.229  0.2929  0.6704 -1.2160
 4537TIP3    H113575   5.783   1.727   2.192  1.1616 -0.8180  1.8933
 4537TIP3    H213576   5.715   1.759   2.324 -3.0533  1.4199 -0.6324
 4538TIP3   OH213577   6.548   6.138   3.006 -0.2281  0.2154  0.1434
 4538TIP3    H113578   6.550   6.155   3.100  0.5276  0.3138  0.1179
 4538TIP3    H213579   6.640   6.127   2.982 -0.4380 -0.1334 -0.5269
 4539TIP3   OH213580   5.179   0.522   0.794  0.5414  0.0553 -0.1385
 4539TIP3    H113581   5.141   0.584   0.731 -1.7472 -1.6551 -0.6073
 4539TIP3    H213582   5.189   0.441   0.743  1.5409 -0.5284  0.9593
 4540TIP3   OH213583   5.293   1.719   3.305 -0.2329 -0.1874  0.0525
 4540TIP3    H113584   5.354   1.776   3.351 -1.5388  1.5758 -0.2672
 4540TIP3    H213585   5.310   1.632   3.339  0.9257  0.6029  1.5850
 4541TIP3   OH213586   4.072   6.479   2.285  0.1853 -0.5752  0.2763
 4541TIP3    H113587   4.095   6.413   2.351  2.5081  0.0668  0.1912
 4541TIP3    H213588   4.129   6.553   2.305 -1.1147  0.7444 -0.7297
 4542TIP3   OH213589   1.918   2.834   3.014  0.1581 -0.9424  0.4831
 4542TIP3    H113590   1.954   2.922   3.020 -1.2111 -0.3360  0.0381
 4542TIP3    H213591   1.980   2.787   2.957 -0.6295  0.5686 -1.7248
 4543TIP3   OH213592   5.091   1.537   3.025  0.0131  0.4415 -0.5488
 4543TIP3    H113593   5.047   1.457   3.054  1.4622 -0.1029  0.2742
 4543TIP3    H213594   5.068   1.602   3.092 -1.6684  0.9256 -1.5447
 4544TIP3   OH213595   1.506   0.819   0.472 -0.0496 -0.0789 -0.1246
 4544TIP3    H113596   1.429   0.817   0.529  0.6850  1.6435  1.0041
 4544TIP3    H213597   1.475   0.785   0.388 -2.2256  1.2338  0.0869
 4545TIP3   OH213598   1.745   3.542   2.472  0.6137  0.2857  0.1292
 4545TIP3    H113599   1.685   3.469   2.490 -2.3674  1.9086 -2.2758
 4545TIP3    H213600   1.706   3.617   2.516  1.3344  1.2407 -0.7920
 4546TIP3   OH213601   5.578   4.018   4.131 -0.2726  0.9077  0.3591
 4546TIP3    H113602   5.583   3.928   4.097 -1.9808  1.3108 -1.1223
 4546TIP3    H213603   5.623   4.071   4.065 -2.6600  1.5659 -0.8474
 4547TIP3   OH213604   6.720   2.948   4.109  0.2684  0.1419 -0.1021
 4547TIP3    H113605   6.764   2.895   4.043 -0.9352 -1.2307  0.1514
 4547TIP3    H213606   6.693   2.886   4.177  0.2666  1.3223  1.0238
 4548TIP3   OH213607   4.409   6.703   3.527  0.2401  0.3698 -0.6012
 4548TIP3    H113608   4.406   6.641   3.454 -0.6226  0.3327 -0.5479
 4548TIP3    H213609   4.487   6.679   3.576  0.7404  0.2886 -1.4180
 4549TIP3   OH213610   1.400   2.633   1.680  0.1194 -0.1259 -0.3923
 4549TIP3    H113611   1.390   2.664   1.770 -2.5428  1.2229 -1.0433
 4549TIP3    H213612   1.480   2.674   1.649  0.2333  0.6761  0.8612
 4550TIP3   OH213613   5.150   4.340   4.211  0.3234  0.1263  0.7806
 4550TIP3    H113614   5.190   4.308   4.130  4.0618  0.2214  2.3792
 4550TIP3    H213615   5.129   4.432   4.192 -1.7237 -0.6211 -0.9286
 4551TIP3   OH213616   4.231   4.340   3.413 -0.5046  0.1844  0.0146
 4551TIP3    H113617   4.207   4.265   3.358 -2.7110  0.1655  0.9104
 4551TIP3    H213618   4.284   4.396   3.355 -0.5711 -1.0511 -1.3054
 4552TIP3   OH213619   0.759   2.678   5.363 -0.3732  0.4397 -0.4509
 4552TIP3    H113620   0.763   2.683   5.459  0.8896 -0.3183 -0.4475
 4552TIP3    H213621   0.797   2.760   5.333  3.3952 -1.0579 -0.2832
 4553TIP3   OH213622   5.395   5.752   1.032 -0.3430  0.4142  0.7823
 4553TIP3    H113623   5.439   5.686   0.978 -3.3792 -1.1871  0.0220
 4553TIP3    H213624   5.388   5.829   0.975 -0.4997 -0.0808  0.1276
 4554TIP3   OH213625   4.045   6.666   0.245 -0.4075 -0.3146 -0.2515
 4554TIP3    H113626   4.079   6.745   0.204  0.0038 -0.2050  0.2813
 4554TIP3    H213627   3.950   6.679   0.248 -0.3025  0.4153  0.3298
 4555TIP3   OH213628   3.825   4.812   5.550 -0.3628 -0.5670 -0.1557
 4555TIP3    H113629   3.833   4.841   5.459 -0.7305  0.9093  0.2566
 4555TIP3    H213630   3.857   4.885   5.601 -0.8078 -1.1127  0.9326
 4556TIP3   OH213631   5.832   1.479   5.322 -0.4947  0.4895  0.1194
 4556TIP3    H113632   5.871   1.393   5.339  2.1454  1.6234  0.2543
 4556TIP3    H213633   5.829   1.485   5.226  0.1351  0.5615  0.0988
 4557TIP3   OH213634   4.824   3.459   2.114  0.1157  0.3850 -0.3739
 4557TIP3    H113635   4.833   3.363   2.115  0.0273  0.3747  0.1112
 4557TIP3    H213636   4.806   3.481   2.206  4.2460  1.2668  0.4493
 4558TIP3   OH213637   2.962   6.041   1.591 -0.4747 -0.6545  0.0858
 4558TIP3    H113638   2.961   6.047   1.686 -1.1120  1.6110  0.0056
 4558TIP3    H213639   3.035   5.982   1.571  1.4436  0.9520  1.9118
 4559TIP3   OH213640   4.686   0.620   0.076  0.0865 -0.0697  0.4710
 4559TIP3    H113641   4.721   0.532   0.087  1.0647  0.4004  1.3162
 4559TIP3    H213642   4.683   0.633  -0.019  1.7520 -0.3320  0.3453
 4560TIP3   OH213643   2.223   1.874   5.366 -0.0231  0.0084 -0.3997
 4560TIP3    H113644   2.247   1.858   5.457 -1.0247 -0.0744 -0.1353
 4560TIP3    H213645   2.174   1.956   5.368  1.0815  0.7065 -1.0666
 4561TIP3   OH213646   4.131   2.881   2.353  0.2977 -0.1230  0.7774
 4561TIP3    H113647   4.082   2.819   2.407  1.5925 -0.4032  1.6620
 4561TIP3    H213648   4.146   2.835   2.271  1.4624 -1.1265  1.5144
 4562TIP3   OH213649   2.038   6.711   2.001  0.0142  0.3499 -0.6289
 4562TIP3    H113650   1.994   6.788   1.964  1.9743  2.2113  0.6447
 4562TIP3    H213651   2.128   6.717   1.969  0.8353  0.0074  1.4496
 4563TIP3   OH213652   0.661   0.550   2.003 -0.0622 -1.1458  0.5498
 4563TIP3    H113653   0.729   0.513   1.947  0.1232  1.1004 -0.8426
 4563TIP3    H213654   0.699   0.550   2.091  1.3567 -0.8531 -0.0411
 4564TIP3   OH213655   5.299   1.185   3.255  0.2391  0.2067  1.0033
 4564TIP3    H113656   5.229   1.229   3.208 -0.1969 -1.3650  0.0968
 4564TIP3    H213657   5.255   1.127   3.316  0.7195 -0.7976  0.4252
 4565TIP3   OH213658   0.358   5.917   0.301 -0.0424 -0.7861  0.7009
 4565TIP3    H113659   0.325   5.947   0.385  0.6382 -1.1946  1.1198
 4565TIP3    H213660   0.416   5.844   0.322  1.3248  0.0466  0.0145
 4566TIP3   OH213661   5.857   0.705   2.767  0.8069 -0.7128  0.2088
 4566TIP3    H113662   5.806   0.763   2.824  1.8542  0.3810  0.0495
 4566TIP3    H213663   5.810   0.621   2.771 -1.3170  0.3792 -0.3427
 4567TIP3   OH213664   1.828   0.782   1.208  0.0785 -0.5195 -0.3406
 4567TIP3    H113665   1.872   0.785   1.123  0.6110 -0.5953 -0.0681
 4567TIP3    H213666   1.875   0.845   1.262 -0.6379 -0.0240 -0.2719
 4568TIP3   OH213667   3.663   4.832   3.835  0.1903  0.1522 -0.1470
 4568TIP3    H113668   3.727   4.884   3.884  0.6816 -1.3757  0.9305
 4568TIP3    H213669   3.704   4.819   3.749  1.1901 -0.4706  0.3969
 4569TIP3   OH213670   6.696   5.908   3.736  0.4772  0.1479 -0.0826
 4569TIP3    H113671   6.621   5.852   3.757  2.3513 -3.0037 -1.0558
 4569TIP3    H213672   6.736   5.926   3.821  0.5960 -1.1992  0.1684
 4570TIP3   OH213673   2.762   3.496   0.858 -0.2228  0.5164  0.5095
 4570TIP3    H113674   2.766   3.414   0.810 -2.1883  0.3997  0.4607
 4570TIP3    H213675   2.846   3.539   0.841  0.4899 -1.0822 -0.1453
 4571TIP3   OH213676   2.697   6.387   4.172 -0.1311  0.2622 -0.2593
 4571TIP3    H113677   2.760   6.451   4.204 -0.7353  0.4443  0.6126
 4571TIP3    H213678   2.613   6.433   4.173 -0.0233  0.7975 -3.6585
 4572TIP3   OH213679   5.168   2.969   3.348 -0.1941  0.0443  0.1469
 4572TIP3    H113680   5.219   2.955   3.428 -1.1845  0.4258  0.8692
 4572TIP3    H213681   5.096   2.906   3.354  0.1880 -0.5263 -0.8842
 4573TIP3   OH213682   2.753   3.014   1.725  0.2115  0.2166  0.1649
 4573TIP3    H113683   2.737   2.944   1.662 -0.4347  1.4450 -1.0671
 4573TIP3    H213684   2.749   2.970   1.810 -0.8363 -1.1237 -0.5458
 4574TIP3   OH213685   5.311   0.570   4.479 -0.2518 -0.2478 -0.1156
 4574TIP3    H113686   5.231   0.622   4.482 -0.3727 -0.4136  2.5665
 4574TIP3    H213687   5.280   0.479   4.479 -0.1206 -0.3162  1.3256
 4575TIP3   OH213688   5.819   0.717   1.802  0.0955  0.0243  0.3124
 4575TIP3    H113689   5.803   0.800   1.756  1.4333  0.7474  1.0820
 4575TIP3    H213690   5.864   0.662   1.738 -0.3172  0.0838 -0.0334
 4576TIP3   OH213691   4.883   5.495   3.232  0.2937 -0.2250  0.0531
 4576TIP3    H113692   4.874   5.584   3.265 -0.3734 -0.8565  1.6924
 4576TIP3    H213693   4.844   5.497   3.145  0.8670  1.2205 -0.1904
 4577TIP3   OH213694   0.347   2.961   0.340  0.1634 -0.2715  0.0711
 4577TIP3    H113695   0.329   2.878   0.385 -1.1607  0.3483  0.7543
 4577TIP3    H213696   0.300   3.026   0.391 -0.1664  0.6827 -1.3867
 4578TIP3   OH213697   4.444   0.943   3.881 -0.3463  0.4622  0.1391
 4578TIP3    H113698   4.456   0.937   3.786 -1.2730 -1.0069  0.0845
 4578TIP3    H213699   4.349   0.941   3.894 -0.2207 -0.2203  1.1242
 4579TIP3   OH213700   4.984   6.223   3.284  0.4558  0.4204  0.0567
 4579TIP3    H113701   4.959   6.268   3.365  0.4653  2.4005 -0.9894
 4579TIP3    H213702   5.048   6.281   3.243 -1.2506  0.6589 -2.4884
 4580TIP3   OH213703   5.205   1.236   5.306  0.7636 -0.0518 -0.1839
 4580TIP3    H113704   5.113   1.260   5.295  0.8700  0.2560 -0.4080
 4580TIP3    H213705   5.249   1.271   5.229  1.4296  1.6980  0.9306
 4581TIP3   OH213706   1.153   6.117   1.049  0.4146  0.3571 -0.3476
 4581TIP3    H113707   1.067   6.082   1.025  1.2571 -2.4814  0.4143
 4581TIP3    H213708   1.133   6.183   1.116 -1.1597 -0.5664  0.1643
 4582TIP3   OH213709   5.343   4.820   0.595  0.0245 -0.4076 -0.2151
 4582TIP3    H113710   5.260   4.850   0.559  0.8685  2.9778  0.3087
 4582TIP3    H213711   5.408   4.838   0.527  0.7585  0.0809  0.5821
 4583TIP3   OH213712   0.956   1.884   0.615  0.2861  0.0818  0.1568
 4583TIP3    H113713   0.963   1.946   0.688  1.2147  1.5754 -1.1319
 4583TIP3    H213714   1.017   1.813   0.638  0.6017  0.5546  0.8101
 4584TIP3   OH213715   3.313   4.204   2.581  0.0885  0.3419  0.1098
 4584TIP3    H113716   3.280   4.119   2.608  1.7209 -0.0222  1.1267
 4584TIP3    H213717   3.298   4.207   2.486 -0.2774 -0.9381  0.1160
 4585TIP3   OH213718   0.628   2.686   3.976  0.2025  0.0716  0.0838
 4585TIP3    H113719   0.720   2.668   3.995  0.5501  0.2517 -1.3342
 4585TIP3    H213720   0.584   2.602   3.990  0.3078  0.3320  2.2137
 4586TIP3   OH213721   6.490   2.223   0.929  0.1767 -0.5525 -0.7250
 4586TIP3    H113722   6.573   2.267   0.946 -0.1635 -0.4297  0.7511
 4586TIP3    H213723   6.426   2.294   0.923 -0.1390 -0.7566  0.1718
 4587TIP3   OH213724   2.495   5.786   4.364  0.0715 -0.0133  0.0653
 4587TIP3    H113725   2.581   5.826   4.360  0.8093 -1.4285  0.8102
 4587TIP3    H213726   2.437   5.856   4.395  1.4176  0.3393  1.9725
 4588TIP3   OH213727   5.979   5.202   3.103 -0.5033 -0.0196 -0.3344
 4588TIP3    H113728   5.991   5.240   3.016 -0.7590 -1.8996 -1.2419
 4588TIP3    H213729   6.051   5.138   3.111 -1.3839 -0.9706  0.1765
 4589TIP3   OH213730   6.511   6.262   2.748  0.4635  0.2101  0.8380
 4589TIP3    H113731   6.492   6.205   2.822 -1.0556  0.2101  0.4770
 4589TIP3    H213732   6.605   6.279   2.755  0.6296 -0.9596  1.9150
 4590TIP3   OH213733   4.942   4.294   5.378 -0.1445 -0.0382 -0.0927
 4590TIP3    H113734   4.883   4.218   5.381  1.5869 -1.4321  2.1651
 4590TIP3    H213735   4.902   4.357   5.438 -0.5667  0.0215 -0.4328
 4591TIP3   OH213736   2.295   5.372   1.281  0.1680 -0.1755  0.0721
 4591TIP3    H113737   2.325   5.461   1.263 -0.7124 -0.0999 -1.1530
 4591TIP3    H213738   2.229   5.382   1.349  1.3378 -0.1136  1.2347
 4592TIP3   OH213739   2.604   2.612   5.535 -0.4160 -0.2043 -0.4285
 4592TIP3    H113740   2.654   2.640   5.612  0.5705  0.5738 -1.3190
 4592TIP3    H213741   2.596   2.690   5.481 -1.3807 -0.6597 -0.9847
 4593TIP3   OH213742   0.428   3.923   4.152  0.2047 -0.2610  0.4790
 4593TIP3    H113743   0.419   3.831   4.176  1.4725 -0.4129  0.4537
 4593TIP3    H213744   0.511   3.928   4.104  0.1967  0.9010  0.5346
 4594TIP3   OH213745   0.226   1.797   2.601 -0.0037  0.2647  0.3146
 4594TIP3    H113746   0.280   1.780   2.524  0.4170  0.2996  0.5983
 4594TIP3    H213747   0.149   1.741   2.590 -0.1674  0.6142 -0.3555
 4595TIP3   OH213748   0.289   0.676   1.720  0.6140 -0.4249  0.5358
 4595TIP3    H113749   0.287   0.601   1.780  0.4376 -1.4423 -0.7116
 4595TIP3    H213750   0.198   0.686   1.692  0.4992  0.7568  1.2807
 4596TIP3   OH213751   6.903   2.301   4.252  0.4421  0.1488  0.5391
 4596TIP3    H113752   6.893   2.383   4.202  0.2843  0.3619  0.9136
 4596TIP3    H213753   6.831   2.303   4.315 -1.9021 -2.0509 -1.8136
 4597TIP3   OH213754   1.223   4.753   0.539 -0.0124  0.1128 -0.0605
 4597TIP3    H113755   1.255   4.838   0.570 -0.2608  0.3172 -0.3515
 4597TIP3    H213756   1.194   4.708   0.618 -0.1608  0.4200  0.0638
 4598TIP3   OH213757   0.515   4.922   2.028  0.8226  0.6762  0.2271
 4598TIP3    H113758   0.466   4.840   2.034  0.8076  0.6005 -0.8502
 4598TIP3    H213759   0.565   4.916   1.947  0.8732  1.7148  0.1576
 4599TIP3   OH213760   2.829   4.865   1.180 -0.0703 -0.0526 -0.4508
 4599TIP3    H113761   2.916   4.867   1.220  0.2972 -3.4361 -0.8082
 4599TIP3    H213762   2.845   4.868   1.086 -0.3917  0.1935 -0.4990
 4600TIP3   OH213763   0.263   6.062   1.776  0.1694 -0.3985  0.2108
 4600TIP3    H113764   0.175   6.076   1.742  0.1317  0.3202  0.5881
 4600TIP3    H213765   0.296   6.150   1.796  1.0978 -0.6316 -0.2393
 4601TIP3   OH213766   2.896   4.840   2.116  0.0647 -0.5495 -0.3437
 4601TIP3    H113767   2.876   4.795   2.034  0.3887 -0.0034 -0.7251
 4601TIP3    H213768   2.852   4.787   2.183  1.0352 -1.8463 -0.6901
 4602TIP3   OH213769   3.056   4.837   5.678 -0.1558 -0.3467  0.3209
 4602TIP3    H113770   2.962   4.818   5.678 -0.3300  0.4724  0.0475
 4602TIP3    H213771   3.074   4.866   5.589  0.3750 -0.5413  0.3632
 4603TIP3   OH213772   3.553   4.401   2.049  0.2619 -0.1770  0.2962
 4603TIP3    H113773   3.581   4.470   2.108  0.1569 -0.7254  0.9973
 4603TIP3    H213774   3.595   4.321   2.082  2.7072 -0.0442 -2.1377
 4604TIP3   OH213775   4.327   3.039   2.239 -0.3856  0.4251  0.5844
 4604TIP3    H113776   4.416   3.065   2.262 -0.2865  2.3387 -1.5663
 4604TIP3    H213777   4.298   2.985   2.313  3.1205 -1.7571  0.6087
 4605TIP3   OH213778   2.086   5.885   3.304 -0.0547 -0.0625  0.0396
 4605TIP3    H113779   2.094   5.798   3.267  1.3012  0.0819 -0.0507
 4605TIP3    H213780   2.016   5.927   3.253  2.3399  0.4530 -3.1036
 4606TIP3   OH213781   5.716   2.592   2.660 -0.0943  0.3788 -0.4469
 4606TIP3    H113782   5.661   2.621   2.732  2.3486  2.9113  0.5841
 4606TIP3    H213783   5.711   2.497   2.663 -1.2242  0.4369  2.1048
 4607TIP3   OH213784   6.985   0.809   0.710 -0.2516  0.1701 -0.2788
 4607TIP3    H113785   7.038   0.888   0.697  0.2736 -0.5058 -2.9039
 4607TIP3    H213786   7.019   0.747   0.645 -2.3192 -1.3407 -0.0066
 4608TIP3   OH213787   5.284   3.491   4.293 -0.9552 -0.3963  0.3286
 4608TIP3    H113788   5.269   3.480   4.199 -0.3664 -1.4127  0.3317
 4608TIP3    H213789   5.291   3.585   4.306 -1.9713 -0.1931 -0.4961
 4609TIP3   OH213790   5.017   2.835   3.975 -0.0608  0.0797 -0.2209
 4609TIP3    H113791   4.959   2.805   3.905  1.2880 -1.7825 -0.6347
 4609TIP3    H213792   4.976   2.803   4.056 -0.6937  0.6516 -0.3102
 4610TIP3   OH213793   6.691   0.490   5.370  0.4129 -1.0374  0.8183
 4610TIP3    H113794   6.647   0.407   5.351  1.5188 -1.3495 -0.5558
 4610TIP3    H213795   6.625   0.556   5.349  0.1898 -1.5219 -0.0932
 4611TIP3   OH213796   2.424   3.244   5.359  0.1091 -0.4986 -0.0021
 4611TIP3    H113797   2.479   3.218   5.433 -0.9027  0.6051  1.1902
 4611TIP3    H213798   2.379   3.165   5.333  1.0768 -1.0762  0.0169
 4612TIP3   OH213799   1.765   4.707   4.258 -0.3548 -0.2590 -0.1345
 4612TIP3    H113800   1.768   4.709   4.353 -3.0027 -0.5481  0.0435
 4612TIP3    H213801   1.820   4.633   4.233  0.0621 -0.4095  1.1967
 4613TIP3   OH213802   4.016   4.432   2.030  0.2056 -0.2749 -0.1049
 4613TIP3    H113803   4.057   4.368   1.972 -1.5548 -1.0008 -0.6010
 4613TIP3    H213804   4.064   4.513   2.013 -0.2257 -0.4523 -2.5816
 4614TIP3   OH213805   5.036   1.241   3.902 -0.5669  0.1196  0.2098
 4614TIP3    H113806   5.045   1.225   3.996 -2.6473 -1.2070  0.2338
 4614TIP3    H213807   5.072   1.162   3.860  0.0395  0.5583 -0.1177
 4615TIP3   OH213808   7.036   4.399   1.660 -0.0781  0.9299 -0.2083
 4615TIP3    H113809   7.099   4.471   1.665  1.2832 -0.1604 -0.8627
 4615TIP3    H213810   7.005   4.402   1.569  1.7145 -0.6292 -0.9549
 4616TIP3   OH213811   6.614   0.222   3.863  0.7790  0.1999  0.0713
 4616TIP3    H113812   6.529   0.228   3.819  1.4850 -2.0533 -1.8228
 4616TIP3    H213813   6.675   0.266   3.804  1.1543  0.6637  0.7850
 4617TIP3   OH213814   6.966   3.389   1.588 -0.3952  0.3540  0.2445
 4617TIP3    H113815   6.956   3.299   1.620 -3.0481 -0.9591 -3.5516
 4617TIP3    H213816   6.904   3.440   1.641 -0.9451 -0.6254  0.5809
 4618TIP3   OH213817   0.581   3.571   5.307 -0.0253  0.1737 -0.3170
 4618TIP3    H113818   0.577   3.666   5.291  0.8070 -0.0824 -2.3378
 4618TIP3    H213819   0.624   3.563   5.393  1.2940  1.6053 -0.7979
 4619TIP3   OH213820   1.322   3.244   2.873 -0.2848 -0.3924 -0.0083
 4619TIP3    H113821   1.375   3.262   2.950  0.3343  0.1818 -0.5606
 4619TIP3    H213822   1.232   3.241   2.905  0.1134 -2.3326  1.1204
 4620TIP3   OH213823   6.872   3.918   0.124 -0.4459 -0.0244 -0.0188
 4620TIP3    H113824   6.850   3.938   0.215  0.5373 -1.5006  0.5846
 4620TIP3    H213825   6.791   3.881   0.087 -0.7764  0.3507  0.3284
 4621TIP3   OH213826   4.883   3.664   1.712 -0.1154  0.1341 -0.4292
 4621TIP3    H113827   4.977   3.677   1.726 -0.0632  1.0594 -1.4675
 4621TIP3    H213828   4.854   3.745   1.670 -1.0771 -0.7167 -1.4860
 4622TIP3   OH213829   1.985   3.908   1.963 -0.3866 -0.2402 -0.3559
 4622TIP3    H113830   2.072   3.886   1.930 -0.3870  0.5993 -0.9337
 4622TIP3    H213831   2.001   3.963   2.040 -0.3964 -1.5991  0.6498
 4623TIP3   OH213832   3.867   4.713   4.320 -0.3472 -0.0799  0.1947
 4623TIP3    H113833   3.827   4.775   4.382  0.5084  0.9321 -0.2310
 4623TIP3    H213834   3.953   4.695   4.357 -0.2012 -0.2291 -0.2144
 4624TIP3   OH213835   3.540   4.655   4.456 -0.6952  0.6442 -0.1345
 4624TIP3    H113836   3.517   4.748   4.453 -0.5213  0.8483  2.4516
 4624TIP3    H213837   3.567   4.634   4.367  0.8696  3.5080 -0.4550
 4625TIP3   OH213838   0.874   1.714   3.080 -0.2887  0.8607  0.0288
 4625TIP3    H113839   0.922   1.711   2.997 -0.8030  1.8115 -0.3182
 4625TIP3    H213840   0.871   1.623   3.109 -0.5931  0.4268 -1.2871
 4626TIP3   OH213841   2.371   4.555   0.334 -0.3816 -0.2335  0.0367
 4626TIP3    H113842   2.408   4.571   0.247  2.0696  0.5649  1.1509
 4626TIP3    H213843   2.392   4.633   0.384  0.3661 -1.6118  2.0030
 4627TIP3   OH213844   4.181   0.613   2.581 -0.2493  0.0805  0.0051
 4627TIP3    H113845   4.217   0.584   2.664  0.0981 -1.3621 -0.6164
 4627TIP3    H213846   4.169   0.708   2.591 -1.5200 -0.2450  2.1607
 4628TIP3   OH213847   4.567   6.655   4.972 -0.4095 -0.0663  0.5910
 4628TIP3    H113848   4.599   6.579   5.021 -0.3311 -1.1353 -1.0483
 4628TIP3    H213849   4.644   6.710   4.960 -0.3121 -0.0742  1.1261
 4629TIP3   OH213850   5.175   6.375   2.008  0.1451  0.6651  1.0466
 4629TIP3    H113851   5.186   6.461   2.048  1.7427 -0.0550  2.2777
 4629TIP3    H213852   5.183   6.314   2.081 -1.8155 -0.5346  0.3436
 4630TIP3   OH213853   6.815   1.420   1.925  0.0277  0.2108  0.0766
 4630TIP3    H113854   6.741   1.365   1.951 -0.4489  0.2457 -1.1226
 4630TIP3    H213855   6.793   1.507   1.956 -0.3082  0.1639 -0.0272
 4631TIP3   OH213856   6.211   0.789   2.479 -0.5053 -0.5085  0.4031
 4631TIP3    H113857   6.149   0.857   2.507 -0.3407  0.9041 -2.3224
 4631TIP3    H213858   6.291   0.837   2.458 -0.6262 -1.3671 -2.3033
 4632TIP3   OH213859   1.317   3.900   1.551  0.6076 -0.0435  0.1848
 4632TIP3    H113860   1.269   3.967   1.503 -0.3713 -0.6751  0.2568
 4632TIP3    H213861   1.403   3.939   1.567  0.3041  0.9028 -0.4116
 4633TIP3   OH213862   3.362   3.735   2.149  0.2586  0.7308 -0.0191
 4633TIP3    H113863   3.335   3.666   2.088 -0.9231  0.6458  0.5715
 4633TIP3    H213864   3.422   3.790   2.098  0.0563  0.1200 -0.9484
 4634TIP3   OH213865   0.779   1.960   1.102  0.2898  0.3667  0.6467
 4634TIP3    H113866   0.695   1.937   1.142 -0.4313  1.4402 -0.2080
 4634TIP3    H213867   0.843   1.909   1.152 -0.7031  0.6561  2.3100
 4635TIP3   OH213868   5.564   3.792   0.703 -0.6238  0.4560  0.6983
 4635TIP3    H113869   5.602   3.792   0.790 -1.2483 -0.3501  0.9768
 4635TIP3    H213870   5.509   3.871   0.701  0.1889  1.0420  0.6576
 4636TIP3   OH213871   3.648   6.201   0.939  0.4204  0.1973 -0.1868
 4636TIP3    H113872   3.703   6.190   0.862 -1.2401 -2.0375 -1.1743
 4636TIP3    H213873   3.560   6.217   0.903 -0.2095  0.1522  1.2597
 4637TIP3   OH213874   1.002   3.234   2.611 -0.2781  0.0990 -0.1180
 4637TIP3    H113875   0.938   3.304   2.625 -2.5928 -1.0338 -3.5710
 4637TIP3    H213876   1.067   3.274   2.553  0.7769  0.5145  1.3134
 4638TIP3   OH213877   6.184   2.863   1.361  0.1096  0.2820  0.3520
 4638TIP3    H113878   6.257   2.845   1.420 -1.0656 -1.5861  1.3399
 4638TIP3    H213879   6.122   2.914   1.414 -1.3374 -2.1328  1.1318
 4639TIP3   OH213880   1.129   5.994   4.573  0.3865 -0.1414 -0.0461
 4639TIP3    H113881   1.124   6.034   4.659 -0.7455 -1.1800  0.4009
 4639TIP3    H213882   1.108   5.902   4.588 -0.7427 -0.1676 -1.5380
 4640TIP3   OH213883   1.802   3.116   4.474  0.1465 -0.2576  0.1906
 4640TIP3    H113884   1.720   3.166   4.474  0.3819  0.1903 -1.5153
 4640TIP3    H213885   1.864   3.171   4.522 -0.2197 -0.0125  0.3862
 4641TIP3   OH213886   6.108   5.358   2.844 -0.0705 -0.2041 -0.1954
 4641TIP3    H113887   6.148   5.417   2.907 -0.9867 -1.2642  1.4483
 4641TIP3    H213888   6.181   5.326   2.791  0.8515  0.0512  0.8907
 4642TIP3   OH213889   6.174   1.418   3.403 -0.5077  0.1058  0.2617
 4642TIP3    H113890   6.180   1.381   3.491 -0.5177 -0.4127  0.0486
 4642TIP3    H213891   6.228   1.360   3.349  1.6671  1.8800  0.3858
 4643TIP3   OH213892   3.661   2.677   4.511  0.1900  0.4663 -0.2626
 4643TIP3    H113893   3.604   2.631   4.449 -2.3470  0.6966  1.7225
 4643TIP3    H213894   3.724   2.610   4.540 -0.8731 -0.6462 -0.4461
 4644TIP3   OH213895   0.503   4.417   0.158  0.2545 -0.5432  0.0943
 4644TIP3    H113896   0.498   4.502   0.201  0.1211 -0.1817 -0.6276
 4644TIP3    H213897   0.429   4.368   0.193 -0.3326  0.0326 -0.3371
 4645TIP3   OH213898   6.558   4.944   0.734 -0.1282  0.1434 -0.1868
 4645TIP3    H113899   6.607   4.871   0.771 -1.5880 -0.5405  0.4595
 4645TIP3    H213900   6.515   4.908   0.657  0.5470  0.7965 -0.8831
 4646TIP3   OH213901   6.859   4.667   1.440  0.0841 -0.1575 -0.3650
 4646TIP3    H113902   6.884   4.576   1.423 -1.3948 -0.5977 -0.2669
 4646TIP3    H213903   6.777   4.661   1.489  0.3639  1.2249  0.3166
 4647TIP3   OH213904   3.897   1.001   4.027  1.0011 -0.1785 -0.7733
 4647TIP3    H113905   3.880   0.938   3.957 -1.7564 -0.9708  0.4587
 4647TIP3    H213906   3.884   0.951   4.108  2.1320  1.1810  0.3038
 4648TIP3   OH213907   1.269   1.105   5.262 -0.2780 -0.1288 -0.1120
 4648TIP3    H113908   1.236   1.015   5.257  1.5259 -0.7902 -0.8495
 4648TIP3    H213909   1.314   1.110   5.346  1.0730 -0.4607 -0.7976
 4649TIP3   OH213910   6.223   2.432   1.636  0.3440 -0.3744 -0.2380
 4649TIP3    H113911   6.170   2.367   1.590 -0.0168 -0.3154  0.0974
 4649TIP3    H213912   6.160   2.489   1.680  0.6912 -1.8119  2.2823
 4650TIP3   OH213913   3.715   4.273   0.791  0.2163 -0.2985 -0.6255
 4650TIP3    H113914   3.638   4.324   0.767  1.1913  0.8233 -1.5112
 4650TIP3    H213915   3.789   4.320   0.751  1.5833 -0.2874  1.6911
 4651TIP3   OH213916   3.248   2.776   1.460  0.2895  0.4484 -0.2680
 4651TIP3    H113917   3.304   2.715   1.509 -0.3433  0.9606  1.1583
 4651TIP3    H213918   3.282   2.862   1.482 -0.6005  0.7287  0.0395
 4652TIP3   OH213919   2.117   6.771   5.460  0.0345 -0.1129 -0.0831
 4652TIP3    H113920   2.109   6.866   5.447  0.3968 -0.0399  0.1966
 4652TIP3    H213921   2.208   6.752   5.437 -0.7113 -0.8346 -2.7325
 4653TIP3   OH213922   2.230   3.561   5.117  0.2042  0.0218  0.2741
 4653TIP3    H113923   2.151   3.511   5.137  0.4184  0.0186  1.1768
 4653TIP3    H213924   2.199   3.650   5.100 -0.1767 -0.3881 -1.3069
 4654TIP3   OH213925   4.370   5.838   5.748 -0.1484  0.7518  0.1181
 4654TIP3    H113926   4.291   5.822   5.800  0.1618 -0.9776  0.1107
 4654TIP3    H213927   4.414   5.911   5.792 -1.6022  1.5634  0.2664
 4655TIP3   OH213928   7.029   0.341   1.420 -0.8043  0.0746 -0.4840
 4655TIP3    H113929   7.027   0.245   1.418 -0.9180  0.0861 -1.0381
 4655TIP3    H213930   7.009   0.363   1.511 -1.6226 -0.4148 -0.5314
 4656TIP3   OH213931   2.828   3.749   0.735 -0.1480 -0.1661  0.2381
 4656TIP3    H113932   2.775   3.704   0.668  1.6968  0.8564 -2.0642
 4656TIP3    H213933   2.856   3.830   0.692  2.0004  0.0513  1.8801
 4657TIP3   OH213934   2.326   0.035   2.511  0.3469  0.1402 -0.0703
 4657TIP3    H113935   2.274  -0.044   2.500 -1.5178  1.3457 -0.4777
 4657TIP3    H213936   2.347   0.038   2.604 -2.3056  0.7269  0.5866
 4658TIP3   OH213937   0.005   1.026   1.723  0.3440  0.1412  0.0230
 4658TIP3    H113938   0.019   1.116   1.695  1.7527  0.0680  0.4029
 4658TIP3    H213939   0.054   1.018   1.805  0.7170 -1.1110 -0.2929
 4659TIP3   OH213940   3.462   6.408   1.727  0.1474  0.4414 -0.3086
 4659TIP3    H113941   3.391   6.404   1.662  0.4441  2.9415 -0.8807
 4659TIP3    H213942   3.448   6.331   1.782 -1.8552 -0.1794 -1.5754
 4660TIP3   OH213943   1.073   6.067   2.420  0.6684 -0.5969  0.0823
 4660TIP3    H113944   1.032   5.998   2.368 -0.0363 -0.4423  0.4265
 4660TIP3    H213945   1.103   6.023   2.500  0.5853 -0.5822  0.1216
 4661TIP3   OH213946   5.042   5.584   0.288  0.4788  0.3210 -0.0732
 4661TIP3    H113947   5.130   5.614   0.308  0.9430 -0.7883 -0.3840
 4661TIP3    H213948   5.049   5.489   0.281 -0.3438  0.3451 -1.9475
 4662TIP3   OH213949   1.287   0.241   4.223 -0.0813 -0.2257 -0.5060
 4662TIP3    H113950   1.355   0.173   4.216 -0.3497 -0.6930  0.9546
 4662TIP3    H213951   1.329   0.320   4.189  1.5862 -0.2654  1.2784
 4663TIP3   OH213952   4.098   4.536   3.737  0.1982 -0.5402 -0.0645
 4663TIP3    H113953   4.094   4.612   3.679 -0.6957  1.4879  2.4476
 4663TIP3    H213954   4.172   4.485   3.704  0.9429  1.4917 -1.7871
 4664TIP3   OH213955   4.001   4.631   5.879 -0.2278  0.3903 -0.1998
 4664TIP3    H113956   4.040   4.563   5.824 -1.5923  0.3376 -1.1325
 4664TIP3    H213957   4.037   4.713   5.843  1.4624  0.2219  0.9616
 4665TIP3   OH213958   0.704   2.360   2.874 -0.0861 -0.3674  0.2824
 4665TIP3    H113959   0.736   2.448   2.892 -0.9523  0.1898 -0.7475
 4665TIP3    H213960   0.752   2.332   2.796 -2.2509  0.6412 -1.5252
 4666TIP3   OH213961   5.050   6.003   1.995 -0.0159 -0.1202  0.4075
 4666TIP3    H113962   5.142   6.024   1.976 -0.3336 -0.2909 -1.4961
 4666TIP3    H213963   5.042   5.911   1.970 -0.9025  0.1330 -0.2689
 4667TIP3   OH213964   6.898   0.261   3.355  0.0045  0.3594 -0.5242
 4667TIP3    H113965   6.926   0.170   3.358  0.4919  0.5248  0.7093
 4667TIP3    H213966   6.944   0.298   3.280  3.0242  0.5517  1.2524
 4668TIP3   OH213967   5.878   5.772   5.707 -0.0988 -0.2992  0.2498
 4668TIP3    H113968   5.973   5.780   5.704  0.0767 -2.0660 -2.4090
 4668TIP3    H213969   5.853   5.754   5.616 -2.9210 -0.4689  0.9836
 4669TIP3   OH213970   4.452   1.676   3.139  0.2836 -0.6344  0.1118
 4669TIP3    H113971   4.533   1.645   3.098  0.3173  0.0141 -0.3201
 4669TIP3    H213972   4.428   1.754   3.089 -0.9139 -1.1272 -0.1209
 4670TIP3   OH213973   5.900   2.701   3.771  0.3853 -0.3052  0.2177
 4670TIP3    H113974   5.869   2.678   3.858  2.6753 -2.9790  0.4712
 4670TIP3    H213975   5.905   2.618   3.724 -1.0472  1.0900 -2.6465
 4671TIP3   OH213976   4.801   3.201   3.523 -0.2289 -0.0168 -0.1663
 4671TIP3    H113977   4.848   3.282   3.542 -2.0697  1.8456 -2.7478
 4671TIP3    H213978   4.721   3.206   3.576  0.5956 -1.2971  1.2975
 4672TIP3   OH213979   0.215   4.354   0.461 -0.0841  0.0884 -0.0337
 4672TIP3    H113980   0.194   4.307   0.380  2.3537 -0.6839 -0.3125
 4672TIP3    H213981   0.130   4.374   0.500 -1.2861 -1.6258 -1.5840
 4673TIP3   OH213982   0.905   3.706   0.214  0.0751 -0.0521  0.2936
 4673TIP3    H113983   0.810   3.722   0.217 -0.2562 -1.8995  2.1329
 4673TIP3    H213984   0.940   3.752   0.290  0.7620  1.0105 -0.6386
 4674TIP3   OH213985   1.616   0.566   1.423  0.6926 -0.0455  0.3532
 4674TIP3    H113986   1.542   0.533   1.474 -1.5624  3.1800 -0.5290
 4674TIP3    H213987   1.599   0.538   1.333  0.4137  0.7978  0.1273
 4675TIP3   OH213988   1.238   6.486   1.629 -0.4034  0.2206 -0.7853
 4675TIP3    H113989   1.156   6.535   1.634  0.3199  1.3181  1.7166
 4675TIP3    H213990   1.211   6.395   1.614 -1.9516  0.7764 -1.6146
 4676TIP3   OH213991   0.481   4.003   3.329  0.1737 -0.1473 -0.1716
 4676TIP3    H113992   0.547   3.945   3.366 -0.5066 -1.0529 -0.3528
 4676TIP3    H213993   0.402   3.985   3.379 -0.2769 -0.0254 -0.8271
 4677TIP3   OH213994   2.865   3.657   0.375 -0.0959 -0.3236  0.1470
 4677TIP3    H113995   2.794   3.712   0.341  0.1794 -0.1687 -0.1839
 4677TIP3    H213996   2.898   3.705   0.451 -1.0835 -0.9427  0.9908
 4678TIP3   OH213997   6.093   0.263   4.743 -0.1932 -0.1133 -0.3286
 4678TIP3    H113998   6.124   0.300   4.825 -1.6995 -0.3919  0.3966
 4678TIP3    H213999   6.060   0.176   4.767 -0.3759 -0.3151 -1.2769
 4679TIP3   OH214000   1.424   6.161   5.329  0.4437  0.2806  0.2270
 4679TIP3    H114001   1.471   6.108   5.265 -1.3455  0.4699 -1.3266
 4679TIP3    H214002   1.443   6.252   5.303  0.0490  0.3648  0.2330
 4680TIP3   OH214003   1.258   2.619   0.144 -0.5458 -0.1207 -0.2990
 4680TIP3    H114004   1.344   2.650   0.115 -0.0131 -0.6743  0.6354
 4680TIP3    H214005   1.197   2.686   0.114  0.1768  0.1517 -1.2022
 4681TIP3   OH214006   5.838   6.447   1.777 -0.4754 -0.3183 -0.8566
 4681TIP3    H114007   5.865   6.359   1.752 -0.2512 -0.6103  0.3673
 4681TIP3    H214008   5.742   6.447   1.768 -0.7204 -1.3990  1.2280
 4682TIP3   OH214009   3.567   0.743   4.962 -0.0926 -0.2592 -0.3173
 4682TIP3    H114010   3.624   0.723   5.037  1.4354  1.2628 -0.9833
 4682TIP3    H214011   3.628   0.757   4.890 -1.5452 -1.9558 -1.9533
 4683TIP3   OH214012   5.797   3.425   1.862  0.4662 -0.3321 -0.1149
 4683TIP3    H114013   5.888   3.418   1.891  0.5620  3.0334  0.7671
 4683TIP3    H214014   5.749   3.454   1.940 -0.5790  1.8016 -1.4525
 4684TIP3   OH214015   2.586   4.815   3.489  0.0346 -0.3620 -0.4672
 4684TIP3    H114016   2.606   4.818   3.583 -0.4712  0.8486 -0.3748
 4684TIP3    H214017   2.667   4.784   3.449  0.0440 -1.5675  0.4097
 4685TIP3   OH214018   3.346   1.620   0.707  0.1351 -0.2951  0.3728
 4685TIP3    H114019   3.382   1.553   0.766 -0.9812 -0.3859  0.9820
 4685TIP3    H214020   3.310   1.687   0.765 -1.1948 -0.4906 -0.1806
 4686TIP3   OH214021   3.627   5.225   1.573  0.4425 -0.4036 -0.2692
 4686TIP3    H114022   3.546   5.263   1.539  0.6487  0.9773  0.7108
 4686TIP3    H214023   3.606   5.133   1.588 -0.8351 -0.1482 -0.3812
 4687TIP3   OH214024   6.905   2.099   1.032  0.4234 -0.0978  0.7110
 4687TIP3    H114025   6.878   2.007   1.041  0.6296 -0.4645 -1.6707
 4687TIP3    H214026   7.001   2.095   1.032  0.4445  0.2671  1.6515
 4688TIP3   OH214027   4.688   3.258   2.387  0.7201 -0.0673 -0.1059
 4688TIP3    H114028   4.697   3.230   2.296  0.4647  1.2037 -0.5423
 4688TIP3    H214029   4.663   3.179   2.434  0.0080 -0.5753 -1.2863
 4689TIP3   OH214030   2.103   0.853   4.109 -0.2235  0.1921 -0.0956
 4689TIP3    H114031   2.111   0.830   4.202  1.0974 -0.5858 -0.3734
 4689TIP3    H214032   2.191   0.842   4.074 -1.0473 -1.4113 -1.8530
 4690TIP3   OH214033   1.037   5.844   1.561  0.0488  0.2112 -0.5703
 4690TIP3    H114034   1.052   5.825   1.469  0.8359 -0.6884 -0.2806
 4690TIP3    H214035   1.109   5.902   1.586  1.1788 -1.3492 -0.0083
 4691TIP3   OH214036   1.887   0.658   5.092  0.4289 -0.2932  0.2753
 4691TIP3    H114037   1.867   0.630   5.182 -0.4002 -0.5333  0.0259
 4691TIP3    H214038   1.962   0.604   5.067  0.2430 -0.7094  0.5936
 4692TIP3   OH214039   3.834   4.431   1.481 -0.4977  0.3115  0.1062
 4692TIP3    H114040   3.892   4.444   1.406 -0.1153  1.0144  0.5079
 4692TIP3    H214041   3.884   4.465   1.556 -1.1263  0.2171  0.5754
 4693TIP3   OH214042   2.785   2.334   2.361 -0.0516  0.3524  0.2983
 4693TIP3    H114043   2.799   2.259   2.303 -2.2056 -0.6808  1.0224
 4693TIP3    H214044   2.716   2.384   2.318 -0.8629  0.1895  1.4042
 4694TIP3   OH214045   4.911   1.207   1.598 -0.3663 -0.6273 -0.8455
 4694TIP3    H114046   4.892   1.114   1.615 -0.9329 -0.6061 -1.3214
 4694TIP3    H214047   4.825   1.249   1.601  0.0123  0.1022  0.6205
 4695TIP3   OH214048   4.191   1.080   2.834 -0.0041 -0.3357  0.4366
 4695TIP3    H114049   4.136   1.157   2.821 -0.1625 -0.2348  1.5965
 4695TIP3    H214050   4.278   1.107   2.804 -0.0945  0.2332  0.6753
 4696TIP3   OH214051   6.491   4.904   1.624  0.1055 -0.5781 -0.2303
 4696TIP3    H114052   6.428   4.976   1.625 -0.0158 -0.6282  2.2272
 4696TIP3    H214053   6.527   4.903   1.712 -0.2182 -3.8024 -0.0134
 4697TIP3   OH214054   5.303   2.893   2.676  0.0227 -0.4380  0.2733
 4697TIP3    H114055   5.343   2.811   2.704  0.0078  0.2374  2.4408
 4697TIP3    H214056   5.243   2.868   2.605  0.8639 -2.1037  0.1125
 4698TIP3   OH214057   3.087   1.000   5.392 -0.4493 -0.1140 -0.0430
 4698TIP3    H114058   2.995   0.974   5.386 -0.7087  0.5150  0.8787
 4698TIP3    H214059   3.094   1.076   5.335 -1.1871  1.4908  1.8616
 4699TIP3   OH214060   0.565   1.389   4.867 -0.3001 -0.2839  0.2987
 4699TIP3    H114061   0.559   1.359   4.776 -1.3441 -1.8311  0.8357
 4699TIP3    H214062   0.486   1.356   4.908 -0.2338  1.0830  1.6042
 4700TIP3   OH214063   4.107   4.925   3.237  0.6697 -0.4095  0.1324
 4700TIP3    H114064   4.161   4.954   3.310  0.8104 -0.5792  0.0956
 4700TIP3    H214065   4.169   4.899   3.169  0.5376  0.6336 -0.4095
 4701TIP3   OH214066  -0.011   1.461   5.267 -0.0913  0.3463 -0.1073
 4701TIP3    H114067  -0.033   1.535   5.212  0.5357 -0.5121 -1.5599
 4701TIP3    H214068   0.051   1.409   5.216  1.4773  0.1211  1.8714
 4702TIP3   OH214069   5.509   5.013   0.251 -0.0163 -0.3143  0.4449
 4702TIP3    H114070   5.532   5.089   0.304 -0.9407  1.1181 -1.1209
 4702TIP3    H214071   5.538   4.938   0.303  0.8149  1.0820  2.0931
 4703TIP3   OH214072   0.303   0.329   0.319  0.4418 -0.8151  0.0454
 4703TIP3    H114073   0.305   0.422   0.296 -1.3647 -0.9074 -0.7225
 4703TIP3    H214074   0.331   0.284   0.239  1.5467 -0.9425  0.4918
 4704TIP3   OH214075   0.927   6.385   1.780  0.0388  0.3032  0.2254
 4704TIP3    H114076   0.860   6.324   1.811  0.8136 -1.4042 -1.2528
 4704TIP3    H214077   0.878   6.454   1.736 -0.8067 -0.3269  0.1522
 4705TIP3   OH214078   4.732   1.298   4.548 -0.4659  0.0832 -0.4051
 4705TIP3    H114079   4.666   1.326   4.484  0.1289  1.0860 -0.6027
 4705TIP3    H214080   4.769   1.380   4.581 -1.4013 -0.3637  1.9310
 4706TIP3   OH214081   5.938   3.860   1.949 -0.1700 -0.0873 -0.3345
 4706TIP3    H114082   6.025   3.821   1.958 -1.0570 -1.9428  0.6251
 4706TIP3    H214083   5.943   3.941   2.000  1.0707  0.0356 -0.6039
 4707TIP3   OH214084   3.321   6.558   3.471  0.3341 -0.3665  0.5128
 4707TIP3    H114085   3.399   6.611   3.455  0.9694 -1.1909  0.8595
 4707TIP3    H214086   3.307   6.564   3.566  0.3856 -0.7899  0.5475
 4708TIP3   OH214087   0.770   6.788   5.257 -1.2061  0.1213 -0.8179
 4708TIP3    H114088   0.707   6.843   5.304 -1.6147 -2.6810  2.3128
 4708TIP3    H214089   0.717   6.731   5.202 -1.2075 -0.4911 -0.1877
 4709TIP3   OH214090   2.455   6.573   0.615  0.4795  0.2891  0.1630
 4709TIP3    H114091   2.523   6.510   0.640  1.5755  2.0346  1.8659
 4709TIP3    H214092   2.501   6.641   0.567 -0.6002  0.0964 -1.2035
 4710TIP3   OH214093   0.640   6.460   5.281  0.0248 -0.0754 -0.4200
 4710TIP3    H114094   0.577   6.513   5.331 -0.1060 -0.6798  0.0620
 4710TIP3    H214095   0.648   6.506   5.198  0.5348  1.1627  0.2770
 4711TIP3   OH214096   0.084   1.069   2.498 -0.3692 -0.4222 -0.1474
 4711TIP3    H114097   0.056   1.160   2.487  0.4424  0.1176  1.7952
 4711TIP3    H214098   0.037   1.040   2.576  0.4334 -1.2186  0.0518
 4712TIP3   OH214099   2.910   1.328   5.447 -0.0911  0.6225  0.1654
 4712TIP3    H114100   2.964   1.387   5.500  0.2875  0.0986  0.3705
 4712TIP3    H214101   2.972   1.267   5.408 -0.5682 -0.2979  0.7960
 4713TIP3   OH214102   4.624   1.817   0.049  0.0897  0.1417 -0.5746
 4713TIP3    H114103   4.700   1.832  -0.007 -0.9265  0.5609 -1.8946
 4713TIP3    H214104   4.639   1.873   0.125  0.4079  1.3672 -1.5112
 4714TIP3   OH214105   6.164   6.499   1.078 -0.5022  0.3626 -0.2992
 4714TIP3    H114106   6.239   6.539   1.123  0.2068 -1.3789  0.1610
 4714TIP3    H214107   6.203   6.455   1.002 -0.7977 -1.7381  0.7001
 4715TIP3   OH214108   2.683   6.360   2.218  0.0923 -0.2611  0.0146
 4715TIP3    H114109   2.669   6.413   2.296 -0.7415 -2.0527  1.1552
 4715TIP3    H214110   2.777   6.342   2.217  0.0150 -0.8144  1.0457
 4716TIP3   OH214111   0.940   2.049   5.379  0.4903  0.4749  0.2025
 4716TIP3    H114112   1.030   2.076   5.360  0.5393  0.5548  0.5494
 4716TIP3    H214113   0.919   1.987   5.309  0.3759  1.3968 -0.6199
 4717TIP3   OH214114   5.763   2.919   5.111 -0.2766 -0.9511 -0.2194
 4717TIP3    H114115   5.747   2.855   5.180 -2.0828  1.4334  1.7747
 4717TIP3    H214116   5.676   2.940   5.077  0.0197  1.4487  0.2756
 4718TIP3   OH214117   4.005   0.691   1.099 -0.2305 -0.0242 -0.3034
 4718TIP3    H114118   3.997   0.616   1.158 -1.1117 -0.3381 -0.7915
 4718TIP3    H214119   3.920   0.695   1.054  0.8107 -0.5266 -2.4283
 4719TIP3   OH214120   4.544   5.846   4.044  0.1234  0.2888 -0.5430
 4719TIP3    H114121   4.489   5.863   3.968 -2.6768  0.2314  1.3274
 4719TIP3    H214122   4.555   5.931   4.086  1.3456  0.2654 -0.7665
 4720TIP3   OH214123   1.044   1.937   3.851  0.9627  0.1348 -0.4195
 4720TIP3    H114124   1.002   1.895   3.776  0.7872 -0.8505  0.2103
 4720TIP3    H214125   0.978   1.998   3.885 -0.0996 -1.5210  0.6666
 4721TIP3   OH214126   5.001   0.736   1.257 -0.5308 -0.1814 -0.2249
 4721TIP3    H114127   5.066   0.715   1.324 -1.3360 -0.0546  0.6152
 4721TIP3    H214128   5.042   0.806   1.205  0.4472 -0.8759 -0.4207
 4722TIP3   OH214129   2.665   0.167   0.996  0.0487 -0.1480 -0.4689
 4722TIP3    H114130   2.654   0.113   1.074  0.1176  0.5486  0.0319
 4722TIP3    H214131   2.653   0.257   1.027  1.9783  0.2943 -0.8765
 4723TIP3   OH214132   4.674   5.251   0.374 -0.1766  0.4384  0.2173
 4723TIP3    H114133   4.760   5.219   0.400 -0.7841  0.3798  2.4299
 4723TIP3    H214134   4.687   5.292   0.289  1.0861 -3.7280 -1.8515
 4724TIP3   OH214135   3.951   5.245   2.818  0.1382 -0.4927 -0.1104
 4724TIP3    H114136   4.023   5.210   2.870  0.1477 -1.2635 -0.6261
 4724TIP3    H214137   3.899   5.297   2.880  0.7342 -0.5216  0.4224
 4725TIP3   OH214138   0.022   2.335   0.692  0.0141 -0.1109 -0.3004
 4725TIP3    H114139   0.021   2.421   0.734 -0.7093 -0.0289 -0.4745
 4725TIP3    H214140  -0.013   2.275   0.758 -1.1083  0.0160 -0.7641
 4726TIP3   OH214141   6.458   1.666   0.246  0.3871 -0.3072 -0.4028
 4726TIP3    H114142   6.383   1.688   0.301  0.3954 -1.9256  0.2847
 4726TIP3    H214143   6.419   1.635   0.164  0.3624  0.8382 -0.8475
 4727TIP3   OH214144   4.031   1.373   0.501  0.2583  0.1639  0.2090
 4727TIP3    H114145   4.095   1.427   0.454  0.7597 -1.6906 -1.3514
 4727TIP3    H214146   3.950   1.382   0.451  0.4145 -0.7039 -0.2161
 4728TIP3   OH214147   2.183   3.891   4.712 -0.1683  0.2170  0.4421
 4728TIP3    H114148   2.277   3.904   4.697  0.6815 -1.2790  3.6763
 4728TIP3    H214149   2.150   3.978   4.735  0.9498  0.3763  1.5404
 4729TIP3   OH214150   1.467   6.615   1.674 -0.2307  0.4461 -0.3944
 4729TIP3    H114151   1.414   6.681   1.719 -1.0176  0.8870 -1.9070
 4729TIP3    H214152   1.404   6.556   1.633  0.4163 -1.9424  1.7254
 4730TIP3   OH214153   5.316   5.671   3.126 -0.2503 -0.0485 -0.7732
 4730TIP3    H114154   5.223   5.692   3.129 -0.3389 -0.4189 -0.9272
 4730TIP3    H214155   5.347   5.708   3.044  0.0958  1.5327  0.0400
 4731TIP3   OH214156   6.077   5.867   1.267  0.4662  0.4451 -0.0562
 4731TIP3    H114157   6.028   5.883   1.348 -1.1536  2.1993 -1.3026
 4731TIP3    H214158   6.168   5.861   1.295  0.0525  1.8898  1.8096
 4732TIP3   OH214159   5.186   4.988   1.384  0.1072 -0.2634  0.2365
 4732TIP3    H114160   5.225   4.914   1.338 -0.5925 -0.4398 -0.0787
 4732TIP3    H214161   5.243   5.002   1.460  0.8960 -0.3862 -0.3262
 4733TIP3   OH214162   1.318   3.596   0.585 -0.0902 -0.0714 -0.2572
 4733TIP3    H114163   1.389   3.659   0.603 -1.8110  1.8500  0.1575
 4733TIP3    H214164   1.360   3.527   0.534  2.5324 -0.0493  1.6418
 4734TIP3   OH214165   3.399   6.038   3.888 -0.4322 -0.3517 -0.0939
 4734TIP3    H114166   3.467   5.970   3.884 -1.1777 -1.1388  0.1409
 4734TIP3    H214167   3.331   5.999   3.943 -0.6873  0.7773  0.4034
 4735TIP3   OH214168   4.554   1.555   4.900 -0.2750  0.0399 -0.5856
 4735TIP3    H114169   4.629   1.603   4.937 -0.2679 -0.4341  0.0276
 4735TIP3    H214170   4.562   1.569   4.806  0.7578 -0.2395 -0.5567
 4736TIP3   OH214171   5.647   0.562   4.084  1.0913 -0.2831 -0.1439
 4736TIP3    H114172   5.704   0.631   4.049 -0.8821  1.1749 -0.6255
 4736TIP3    H214173   5.612   0.598   4.165  0.0429 -0.7127 -0.3934
 4737TIP3   OH214174   5.832   1.283   3.104  0.0132  0.4765  0.0118
 4737TIP3    H114175   5.896   1.231   3.153  0.4164 -2.2493 -3.1408
 4737TIP3    H214176   5.878   1.366   3.087  1.1041  0.1723  1.2515
 4738TIP3   OH214177   0.253   2.988   4.709 -0.0187 -0.4089 -0.8026
 4738TIP3    H114178   0.247   2.977   4.804 -2.0195  1.1893 -0.6610
 4738TIP3    H214179   0.236   3.081   4.695 -0.4601 -0.7433 -2.7767
 4739TIP3   OH214180   1.758   2.105   3.264  0.0853  0.2703 -0.1834
 4739TIP3    H114181   1.716   2.088   3.349  0.5906 -0.1272 -0.0121
 4739TIP3    H214182   1.709   2.051   3.202 -1.2693  1.6802 -0.4296
 4740TIP3   OH214183   4.944   3.949   4.106 -0.0418 -0.2565  0.2849
 4740TIP3    H114184   4.884   3.925   4.036  0.5806 -1.0252 -0.0031
 4740TIP3    H214185   4.924   4.041   4.125 -0.0941  0.0242 -1.0341
 4741TIP3   OH214186   0.542   3.918   1.305 -1.0631  0.2324  0.5790
 4741TIP3    H114187   0.546   3.910   1.401 -2.6655 -3.2109  0.5259
 4741TIP3    H214188   0.514   4.008   1.290  1.8336  1.7754  3.1415
 4742TIP3   OH214189   2.376   3.207   4.552  0.0332 -0.5188  0.9861
 4742TIP3    H114190   2.435   3.281   4.539 -0.4448 -0.2610  0.1753
 4742TIP3    H214191   2.431   3.129   4.541 -0.0767 -0.3287 -1.6978
 4743TIP3   OH214192   2.682   5.909   2.962 -0.2476  0.0981  0.5157
 4743TIP3    H114193   2.665   5.819   2.933 -0.1122  0.3028 -0.2114
 4743TIP3    H214194   2.739   5.899   3.038  2.4049 -0.3635 -1.3896
 4744TIP3   OH214195   6.295   4.012   2.848  0.2102  0.2641 -0.0400
 4744TIP3    H114196   6.244   3.931   2.855 -0.1189  0.3463 -1.2952
 4744TIP3    H214197   6.386   3.983   2.841  0.1854  0.0502  0.4726
 4745TIP3   OH214198   1.746   3.822   2.308  0.5181 -0.2130  0.2003
 4745TIP3    H114199   1.800   3.850   2.382 -1.0745 -0.4034  1.4899
 4745TIP3    H214200   1.785   3.738   2.281  1.8936  0.4752 -0.0526
 4746TIP3   OH214201   1.995   1.479   1.348 -0.1373 -0.3364 -0.0543
 4746TIP3    H114202   2.040   1.463   1.265 -0.1473 -0.6265 -0.0029
 4746TIP3    H214203   1.914   1.523   1.323  0.8842  1.6696 -0.0453
 4747TIP3   OH214204   4.126   6.225   2.829 -0.4523  0.5130  0.4703
 4747TIP3    H114205   4.032   6.209   2.841 -0.4540  0.6212  0.6110
 4747TIP3    H214206   4.169   6.156   2.880 -0.4447 -0.1973 -0.4612
 4748TIP3   OH214207   0.944   0.485   0.302 -0.3844  0.0051 -0.3908
 4748TIP3    H114208   0.952   0.428   0.226  0.1508  0.4928 -0.7082
 4748TIP3    H214209   0.855   0.520   0.296 -1.0516 -1.4626  0.3074
 4749TIP3   OH214210   2.047   1.320   0.438  0.1332 -0.4957 -1.0977
 4749TIP3    H114211   1.992   1.262   0.491 -0.2586 -0.5006 -1.5038
 4749TIP3    H214212   2.136   1.286   0.451  0.4577  1.1189  1.6822
 4750TIP3   OH214213   0.322   6.403   2.753  0.3630  0.0512 -0.3230
 4750TIP3    H114214   0.287   6.480   2.799  0.8872 -0.6299  1.2802
 4750TIP3    H214215   0.416   6.406   2.771  0.7369  0.2359 -2.1267
 4751TIP3   OH214216   1.739   3.477   0.120 -0.2676 -0.5176  0.6128
 4751TIP3    H114217   1.801   3.546   0.097  0.8184 -1.5501  0.4082
 4751TIP3    H214218   1.730   3.484   0.216  1.1022 -1.1383  0.8007
 4752TIP3   OH214219   2.801   6.428   4.763  0.3616 -0.1145  0.0356
 4752TIP3    H114220   2.882   6.377   4.771  0.0915 -0.5068  0.2868
 4752TIP3    H214221   2.734   6.374   4.804 -0.0219  0.2332 -0.1227
 4753TIP3   OH214222   5.527   1.056   3.112 -0.5182 -0.4702 -0.0238
 4753TIP3    H114223   5.546   1.118   3.041  0.2889  0.7946  1.2440
 4753TIP3    H214224   5.440   1.081   3.142 -0.9005 -1.0687 -0.6130
 4754TIP3   OH214225   0.202   0.727   5.487 -0.4608  0.5702  0.3333
 4754TIP3    H114226   0.234   0.720   5.576  1.6026  0.0554 -0.4038
 4754TIP3    H214227   0.275   0.761   5.436 -1.1692 -0.3072 -1.3813
 4755TIP3   OH214228   5.381   1.039   4.997 -0.1006 -0.4932  0.3074
 4755TIP3    H114229   5.302   1.093   5.000 -0.0675 -0.4635  0.8325
 4755TIP3    H214230   5.452   1.097   5.025  0.2368 -0.3156 -0.8932
 4756TIP3   OH214231   2.666   3.288   2.100  0.2126  0.2728 -0.3346
 4756TIP3    H114232   2.615   3.209   2.117  0.0132  0.8566  2.1277
 4756TIP3    H214233   2.648   3.309   2.008  0.7160 -2.8013 -1.2566
 4757TIP3   OH214234   3.327   4.352   1.908  0.1543 -0.4333 -0.1684
 4757TIP3    H114235   3.410   4.352   1.955  0.5943  0.0158 -0.9276
 4757TIP3    H214236   3.351   4.360   1.816 -0.5905 -3.0160 -0.6815
 4758TIP3   OH214237   0.347   2.731   0.501  0.2124  0.0301 -0.8363
 4758TIP3    H114238   0.379   2.641   0.503  0.7854  0.2298 -0.6638
 4758TIP3    H214239   0.277   2.734   0.566 -0.9271 -0.6885 -1.9876
 4759TIP3   OH214240   2.024   1.293   5.196  0.1307  0.0273  0.1477
 4759TIP3    H114241   2.086   1.317   5.127  1.2369 -0.2525  1.0099
 4759TIP3    H214242   1.980   1.375   5.218  0.2015  0.2356 -0.4594
 4760TIP3   OH214243   5.498   2.935   5.128  0.4167 -0.2440  0.3670
 4760TIP3    H114244   5.498   2.997   5.056  1.9717 -0.1898  0.3836
 4760TIP3    H214245   5.444   2.976   5.195  0.4963  0.5737 -0.0591
 4761TIP3   OH214246   3.617   2.137   3.431  0.1141  0.1543  0.2554
 4761TIP3    H114247   3.556   2.181   3.490 -0.3172 -0.8275  0.5683
 4761TIP3    H214248   3.667   2.078   3.488 -0.3118 -0.8138 -0.3315
 4762TIP3   OH214249   0.589   3.833   5.262 -0.3587 -0.5057  0.2531
 4762TIP3    H114250   0.517   3.861   5.206 -1.3924 -1.4263  1.0879
 4762TIP3    H214251   0.637   3.914   5.281 -1.6178  0.2470  0.3090
 4763TIP3   OH214252   5.618   5.278   3.946 -0.7334 -0.3278  0.0597
 4763TIP3    H114253   5.533   5.286   3.903 -0.7907 -1.6652 -0.1304
 4763TIP3    H214254   5.612   5.335   4.023 -1.6644 -0.1075 -0.1661
 4764TIP3   OH214255   2.324   2.478   4.178 -0.6311  0.2616  0.1320
 4764TIP3    H114256   2.300   2.515   4.093  0.3215 -1.3314 -0.8839
 4764TIP3    H214257   2.245   2.435   4.209 -0.6311 -0.2931 -0.6047
 4765TIP3   OH214258   5.008   2.377   2.080  0.3666 -0.4791 -0.3918
 4765TIP3    H114259   4.936   2.315   2.079 -0.4728  0.4521  0.2167
 4765TIP3    H214260   5.053   2.361   2.163  1.5359 -1.7639 -1.2236
 4766TIP3   OH214261   1.808   3.837   0.213 -0.0436 -0.0452 -0.2525
 4766TIP3    H114262   1.728   3.796   0.180 -0.4564 -0.6368  1.4300
 4766TIP3    H214263   1.816   3.917   0.161 -1.5764 -0.0953 -0.6227
 4767TIP3   OH214264   2.012   4.620   3.335  0.1222 -0.0775 -0.6919
 4767TIP3    H114265   1.922   4.593   3.318 -0.0667  0.2763 -0.2911
 4767TIP3    H214266   2.028   4.689   3.271  0.6027 -1.1085 -1.7099
 4768TIP3   OH214267   2.608   1.617   0.706  0.4272  0.0088  0.1170
 4768TIP3    H114268   2.681   1.557   0.715 -0.3638 -0.9783  0.1640
 4768TIP3    H214269   2.610   1.672   0.785  0.2567 -0.9842  0.8212
 4769TIP3   OH214270   1.028   0.460   5.601 -0.4131 -0.4798  0.5578
 4769TIP3    H114271   1.110   0.448   5.648  0.2302 -1.6608 -0.7896
 4769TIP3    H214272   1.027   0.389   5.536 -1.8340  0.3529 -0.3804
 4770TIP3   OH214273   6.041   4.896   2.723  0.0011  0.3972  0.0312
 4770TIP3    H114274   6.135   4.887   2.735 -0.1945 -0.2569  1.1858
 4770TIP3    H214275   6.027   4.876   2.630  1.0310  0.9049 -0.2468
 4771TIP3   OH214276   1.121   0.085   0.408 -0.0117  0.4048  0.1746
 4771TIP3    H114277   1.064   0.158   0.434 -0.9433  0.3501 -1.5487
 4771TIP3    H214278   1.139   0.038   0.490 -0.5949  1.7157  1.0927
 4772TIP3   OH214279   3.233   4.333   5.449  0.2411  0.1499 -0.4053
 4772TIP3    H114280   3.264   4.412   5.494  0.1624  0.3185 -0.6404
 4772TIP3    H214281   3.312   4.290   5.418  0.2379  0.7157 -1.2320
 4773TIP3   OH214282   5.809   5.996   3.631  0.6525 -0.0458 -0.4347
 4773TIP3    H114283   5.752   5.937   3.680 -0.9506  1.2447 -0.6655
 4773TIP3    H214284   5.833   5.946   3.553  0.5568 -0.9210  0.0831
 4774TIP3   OH214285   5.302   4.740   5.081  0.1125  0.0353  0.3689
 4774TIP3    H114286   5.242   4.751   5.154  1.5472 -0.1057  1.6181
 4774TIP3    H214287   5.271   4.661   5.036 -1.9011  1.1537 -0.3497
 4775TIP3   OH214288   2.092   4.826   0.302 -0.1588 -0.2784 -0.1851
 4775TIP3    H114289   2.174   4.809   0.255  0.2774 -0.0662  0.4831
 4775TIP3    H214290   2.120   4.857   0.388 -0.9368 -1.1281  0.3953
 4776TIP3   OH214291   5.211   2.673   1.509 -0.5563  0.0020 -0.8914
 4776TIP3    H114292   5.191   2.667   1.602 -0.0420 -1.9227 -0.8791
 4776TIP3    H214293   5.233   2.766   1.495 -1.0447  0.3992  0.7873
 4777TIP3   OH214294   2.356   6.215   2.764 -0.0603 -0.4962  0.3455
 4777TIP3    H114295   2.428   6.151   2.767 -1.2233 -1.9432 -0.9409
 4777TIP3    H214296   2.386   6.282   2.703  0.6905 -0.4114  0.7882
 4778TIP3   OH214297   3.623   4.986   2.583  0.4041 -0.3641 -0.5722
 4778TIP3    H114298   3.587   4.919   2.524 -0.3015  0.6001 -1.2519
 4778TIP3    H214299   3.693   5.026   2.533  1.1312 -0.8903  0.0109
 4779TIP3   OH214300   6.774   6.360   2.910  0.0131 -0.1680 -0.1960
 4779TIP3    H114301   6.866   6.362   2.933  0.1685  1.9339 -0.8172
 4779TIP3    H214302   6.727   6.380   2.991  0.0370 -1.7208  0.2322
 4780TIP3   OH214303   0.207   3.765   5.140  0.3913  0.5427  0.2110
 4780TIP3    H114304   0.184   3.704   5.070  3.6008 -0.7949  0.1526
 4780TIP3    H214305   0.273   3.822   5.101  0.0638  1.7432  1.3296
 4781TIP3   OH214306   5.562   0.095   2.548 -0.9590  0.0821 -0.2170
 4781TIP3    H114307   5.650   0.101   2.512 -1.8152 -0.2307 -2.5559
 4781TIP3    H214308   5.560   0.160   2.618  1.1902 -0.1173  0.0802
 4782TIP3   OH214309   5.626   2.945   1.300  0.7587 -0.4457  0.6651
 4782TIP3    H114310   5.546   2.946   1.353  0.5728 -0.5690  0.3913
 4782TIP3    H214311   5.612   3.013   1.235  1.6630  0.8223  1.7377
 4783TIP3   OH214312   5.046   5.715   1.646 -0.3793  0.6686  0.2731
 4783TIP3    H114313   5.043   5.702   1.741 -0.1115  0.9566  0.3244
 4783TIP3    H214314   5.107   5.648   1.614 -0.6039  0.4587  0.2822
 4784TIP3   OH214315   2.465   5.189   0.763  0.9789  0.5035  0.1328
 4784TIP3    H114316   2.538   5.182   0.825  0.8663  1.1418  0.3417
 4784TIP3    H214317   2.427   5.275   0.780  0.0933  0.1238  0.1168
 4785TIP3   OH214318   6.026   0.068   1.289  0.0375 -0.3235  0.2175
 4785TIP3    H114319   5.947   0.121   1.283 -1.6861 -2.5256  1.4734
 4785TIP3    H214320   6.077   0.109   1.358 -2.1612 -1.1974  2.5483
 4786TIP3   OH214321   6.171   2.176   2.627 -0.1690  0.2967 -0.3282
 4786TIP3    H114322   6.227   2.251   2.604  1.6813 -1.4194 -1.7830
 4786TIP3    H214323   6.144   2.194   2.717  1.8928  1.7587  0.0934
 4787TIP3   OH214324   5.900   5.626   5.006  0.4295  0.7453  0.3180
 4787TIP3    H114325   5.902   5.531   4.997 -0.8011  0.8075 -1.1881
 4787TIP3    H214326   5.992   5.653   5.007  0.9091 -0.5846  3.2751
 4788TIP3   OH214327   5.877   1.208   5.268  0.6204  0.4134 -0.0467
 4788TIP3    H114328   5.926   1.143   5.218  1.7547  1.5303 -0.4463
 4788TIP3    H214329   5.802   1.160   5.303  1.4057 -1.0955 -0.3405
 4789TIP3   OH214330   3.317   0.322   5.467 -0.1837 -0.0300 -0.2807
 4789TIP3    H114331   3.225   0.324   5.495  0.0709  1.3591  0.5320
 4789TIP3    H214332   3.319   0.376   5.388  0.0911  0.7273  0.2381
 4790TIP3   OH214333   3.828   5.146   0.461 -0.7741  0.1700 -0.2833
 4790TIP3    H114334   3.823   5.073   0.523 -1.4911 -0.5237 -1.1345
 4790TIP3    H214335   3.775   5.118   0.387  1.3350  0.3357 -1.9190
 4791TIP3   OH214336   2.003   4.522   4.345 -0.4723 -0.2172  0.4519
 4791TIP3    H114337   1.922   4.473   4.358  0.4837 -2.1715 -0.5537
 4791TIP3    H214338   2.060   4.495   4.417  0.0556 -0.6304 -0.1040
 4792TIP3   OH214339   2.754   5.872   4.423  0.7181 -0.2591 -0.3254
 4792TIP3    H114340   2.724   5.950   4.377  1.1789  1.1402  1.6650
 4792TIP3    H214341   2.843   5.892   4.451  0.2734 -0.8107  1.6514
 4793TIP3   OH214342   0.770   2.173   2.258  0.1155 -0.1242  0.2111
 4793TIP3    H114343   0.840   2.208   2.313 -0.1762  0.6699  0.0930
 4793TIP3    H214344   0.803   2.182   2.168 -0.4838  1.0859  0.0968
 4794TIP3   OH214345   7.045   0.486   3.426  0.0196 -0.0304  0.3449
 4794TIP3    H114346   7.024   0.400   3.392  0.7437 -0.1139  0.0853
 4794TIP3    H214347   7.071   0.471   3.517 -0.1891 -0.0372  0.4042
 4795TIP3   OH214348   3.939   3.501   2.913  0.5588 -0.0642  0.0608
 4795TIP3    H114349   3.844   3.510   2.912  0.4047 -1.5456  0.1813
 4795TIP3    H214350   3.962   3.473   2.824  0.5408 -2.6218  0.7993
 4796TIP3   OH214351   6.481   0.651   1.129  0.1099  0.6749 -0.3814
 4796TIP3    H114352   6.431   0.606   1.197  1.9591 -1.3909 -0.2609
 4796TIP3    H214353   6.416   0.703   1.082 -1.9542 -1.0225  0.4129
 4797TIP3   OH214354   1.256   1.396   1.268  0.2254  0.2049  0.7575
 4797TIP3    H114355   1.319   1.379   1.338  0.9353 -0.1743  0.0395
 4797TIP3    H214356   1.237   1.310   1.230 -0.7762  0.3042  0.9919
 4798TIP3   OH214357   3.180   5.078   2.781 -0.2913  0.1448 -0.7911
 4798TIP3    H114358   3.176   5.057   2.875 -0.7540 -0.1080 -0.8660
 4798TIP3    H214359   3.254   5.027   2.749  0.6330  1.1585 -0.3318
 4799TIP3   OH214360   7.099   1.640   5.078  0.4886  0.3183  0.1088
 4799TIP3    H114361   7.006   1.654   5.099  0.1270 -0.2589 -1.0268
 4799TIP3    H214362   7.112   1.684   4.995  1.0169 -0.3244 -0.1580
 4800TIP3   OH214363   6.242   1.256   1.684  0.3684 -0.0772  0.1051
 4800TIP3    H114364   6.265   1.163   1.685  1.3571  0.0934  3.1968
 4800TIP3    H214365   6.148   1.258   1.669  0.6383 -1.3832 -2.2755
 4801TIP3   OH214366   2.579   3.367   1.636 -0.5628  0.1594 -0.5569
 4801TIP3    H114367   2.530   3.308   1.578 -0.4930 -0.9731  0.5066
 4801TIP3    H214368   2.523   3.445   1.643 -0.9897 -0.0518 -1.4121
 4802TIP3   OH214369   5.916   5.121   0.439 -0.4005 -0.3771 -0.4327
 4802TIP3    H114370   5.860   5.132   0.361 -0.9408 -0.8548 -0.1222
 4802TIP3    H214371   5.930   5.211   0.470 -0.9469 -0.2416 -0.5530
 4803TIP3   OH214372   6.950   1.284   1.584  0.1594  0.1799  0.4860
 4803TIP3    H114373   6.948   1.345   1.510 -1.5221  0.4256  0.6955
 4803TIP3    H214374   6.999   1.330   1.652  1.3279  0.1336 -0.3018
 4804TIP3   OH214375   2.829   2.241   3.472  0.2598 -0.2604  0.1318
 4804TIP3    H114376   2.883   2.293   3.531  0.0433  0.8595 -0.6126
 4804TIP3    H214377   2.820   2.156   3.515 -0.2618  0.6539  1.9041
 4805TIP3   OH214378   2.038   1.748   2.448  0.2614 -0.0594 -0.0429
 4805TIP3    H114379   2.102   1.760   2.518 -0.5526 -0.9086  0.8887
 4805TIP3    H214380   1.970   1.813   2.466  2.1990  3.0572 -2.8090
 4806TIP3   OH214381   0.789   4.864   3.442  0.5520 -0.1106  0.1170
 4806TIP3    H114382   0.843   4.939   3.417 -0.3118  0.1402 -1.0683
 4806TIP3    H214383   0.849   4.789   3.441  1.2410  0.4171  0.5235
 4807TIP3   OH214384   7.086   2.943   2.465  0.1583  0.2300 -0.0347
 4807TIP3    H114385   7.024   2.959   2.536  0.0596  1.4808 -0.3829
 4807TIP3    H214386   7.041   2.880   2.407 -0.5397  0.6672  0.0245
 4808TIP3   OH214387   3.754   0.945   0.069 -0.0840 -0.2971 -0.4821
 4808TIP3    H114388   3.841   0.970   0.100 -0.3057  0.4515 -0.4538
 4808TIP3    H214389   3.726   0.877   0.130  0.0197  0.2535  0.1845
 4809TIP3   OH214390   3.292   2.375   3.278 -0.0559  0.4797  0.0421
 4809TIP3    H114391   3.205   2.415   3.280 -0.1901  0.2204 -0.4087
 4809TIP3    H214392   3.335   2.415   3.202  0.4647  1.1013  0.6497
 4810TIP3   OH214393   5.511   5.659   2.236  0.1431  0.3329  0.5711
 4810TIP3    H114394   5.472   5.707   2.163  0.8733 -0.2853 -0.2496
 4810TIP3    H214395   5.548   5.580   2.196  3.2270  1.4026  1.0713
 4811TIP3   OH214396   3.916   4.002   5.075 -0.5218  0.3731 -0.3218
 4811TIP3    H114397   3.945   3.927   5.127 -0.9851 -0.7870 -1.6804
 4811TIP3    H214398   3.832   3.975   5.039 -1.4014  2.1105  0.2799
 4812TIP3   OH214399   3.625   2.358   5.721  0.3467 -0.7120  0.1983
 4812TIP3    H114400   3.633   2.309   5.803  2.5931  0.6410  0.9022
 4812TIP3    H214401   3.672   2.440   5.738 -1.5328  0.8460 -1.5612
 4813TIP3   OH214402   0.511   1.897   2.651 -0.7916 -0.1019 -0.0292
 4813TIP3    H114403   0.419   1.904   2.623 -1.3944  0.8011  1.9549
 4813TIP3    H214404   0.506   1.896   2.747  1.2530 -0.5994  0.1049
 4814TIP3   OH214405   1.672   1.133   4.821  0.2120  0.2214 -0.2732
 4814TIP3    H114406   1.622   1.148   4.901  0.1289  2.6223 -0.7017
 4814TIP3    H214407   1.652   1.043   4.797 -0.4814 -0.2670  1.8833
 4815TIP3   OH214408   3.617   3.868   2.443  0.5679 -0.4313  0.8250
 4815TIP3    H114409   3.583   3.787   2.481 -0.3637  0.2509  1.4977
 4815TIP3    H214410   3.567   3.938   2.486  0.6286  0.4568 -0.4821
 4816TIP3   OH214411   3.770   3.043   2.108  0.2002  0.5723  0.2806
 4816TIP3    H114412   3.790   3.119   2.163 -0.9512  1.9127 -1.0697
 4816TIP3    H214413   3.816   3.060   2.026 -0.1124 -0.1718 -0.0582
 4817TIP3   OH214414   6.873   6.185   1.194  0.2213 -0.6537 -0.1143
 4817TIP3    H114415   6.855   6.093   1.175  2.3620 -1.4981  1.5377
 4817TIP3    H214416   6.955   6.204   1.149  1.6227 -0.6531  2.2579
 4818TIP3   OH214417   2.666   1.344   3.430 -0.1166 -1.1203  0.6206
 4818TIP3    H114418   2.717   1.340   3.511  0.4833 -0.4931  0.2790
 4818TIP3    H214419   2.723   1.388   3.368 -1.8166  1.5749  0.7881
 4819TIP3   OH214420   5.663   0.468   0.607  0.2428  0.5608  0.6054
 4819TIP3    H114421   5.573   0.494   0.625  0.5594  0.7535  2.0212
 4819TIP3    H214422   5.687   0.516   0.528 -0.7574  0.8271  0.4554
 4820TIP3   OH214423   2.163   1.418   5.591  0.1515 -0.1447 -0.0936
 4820TIP3    H114424   2.221   1.365   5.536  0.9435 -0.2445  0.8082
 4820TIP3    H214425   2.170   1.378   5.678 -0.9632  0.0976  0.1199
 4821TIP3   OH214426   6.903   3.037   1.324 -0.0747 -0.4562 -0.3468
 4821TIP3    H114427   6.850   3.019   1.402 -0.5330 -0.6749 -0.7093
 4821TIP3    H214428   6.989   3.060   1.359 -0.1038 -1.1485  0.2108
 4822TIP3   OH214429   6.635   4.017   5.347  0.4885 -0.0166  0.1890
 4822TIP3    H114430   6.649   3.922   5.343 -0.7272 -0.1774 -1.0783
 4822TIP3    H214431   6.578   4.029   5.423  0.2482 -0.3731  0.0711
 4823TIP3   OH214432   0.460   5.200   4.776 -0.3716  0.0613  0.5405
 4823TIP3    H114433   0.492   5.275   4.727  0.3688 -1.0424 -0.7357
 4823TIP3    H214434   0.482   5.219   4.867  0.9256  0.8330  0.0865
 4824TIP3   OH214435   5.011   1.921   3.932 -0.4404 -0.0755 -0.5470
 4824TIP3    H114436   4.983   2.012   3.941 -0.5020  0.1430 -2.5845
 4824TIP3    H214437   5.087   1.924   3.874  0.4847 -1.2001  0.5417
 4825TIP3   OH214438   5.917   5.918   0.166 -0.0310  0.5763  0.0345
 4825TIP3    H114439   5.926   5.988   0.100  2.9407 -0.4378 -0.8125
 4825TIP3    H214440   5.855   5.857   0.127  0.4834  0.7612 -1.1257
 4826TIP3   OH214441   6.658   6.203   0.398 -0.0454 -0.6874  0.0999
 4826TIP3    H114442   6.674   6.169   0.310  0.9444  0.2133 -0.0864
 4826TIP3    H214443   6.670   6.298   0.390  0.6761 -0.6517  1.3359
 4827TIP3   OH214444   1.902   1.497   4.079 -0.5225 -0.5332 -0.1428
 4827TIP3    H114445   1.929   1.523   3.991  0.0652  1.7685  0.6349
 4827TIP3    H214446   1.984   1.475   4.123 -0.3530  1.6972  0.7858
 4828TIP3   OH214447   4.046   1.916   4.896  0.4797  0.1007  0.6264
 4828TIP3    H114448   4.088   1.979   4.838 -0.0327 -0.0443  0.0852
 4828TIP3    H214449   3.966   1.891   4.850  1.1589 -1.7200  0.3291
 4829TIP3   OH214450   5.407   0.600   3.869 -0.6196 -0.4607  0.1009
 4829TIP3    H114451   5.489   0.595   3.918 -0.6422  1.2929  0.3824
 4829TIP3    H214452   5.339   0.585   3.934 -0.5761 -0.4660  0.1452
 4830TIP3   OH214453   6.261   0.759   0.671  0.3504 -0.0988  0.8048
 4830TIP3    H114454   6.242   0.701   0.597  1.7199 -0.7008  0.8794
 4830TIP3    H214455   6.249   0.703   0.749 -1.1251  0.5415  1.0686
 4831TIP3   OH214456   1.065   5.862   2.647  0.1637 -0.7234 -0.4387
 4831TIP3    H114457   1.006   5.804   2.598 -0.1473  0.9013 -2.1198
 4831TIP3    H214458   1.057   5.834   2.738 -0.8616 -2.5243 -1.0372
 4832TIP3   OH214459   4.179   1.867   3.684  0.0510  0.1609 -0.0099
 4832TIP3    H114460   4.272   1.845   3.689 -0.1015 -0.9977 -1.5926
 4832TIP3    H214461   4.134   1.782   3.685 -0.8278  0.5514 -1.8729
 4833TIP3   OH214462   5.048   5.594   1.316  0.5143  0.3913  0.4359
 4833TIP3    H114463   5.019   5.562   1.401  1.5323 -0.9273  0.3218
 4833TIP3    H214464   5.008   5.533   1.253  1.1566  0.2981  0.1039
 4834TIP3   OH214465   5.461   4.297   2.353  0.1840  0.2736 -0.1975
 4834TIP3    H114466   5.483   4.288   2.261 -1.4970  1.5054 -0.7891
 4834TIP3    H214467   5.493   4.217   2.394 -0.5282 -1.0943 -2.1673
 4835TIP3   OH214468   1.690   6.524   0.424 -0.5316 -0.0100  1.0362
 4835TIP3    H114469   1.782   6.537   0.402 -0.5388 -1.0318  0.3366
 4835TIP3    H214470   1.685   6.543   0.518  1.0458 -3.0105  1.8531
 4836TIP3   OH214471   5.562   2.683   1.498 -0.5666 -0.0501 -0.0228
 4836TIP3    H114472   5.578   2.776   1.515  2.3794  0.0311 -2.4074
 4836TIP3    H214473   5.505   2.682   1.421  0.9571 -0.0935 -1.2078
 4837TIP3   OH214474   1.097   1.844   4.296  0.2065  0.1193  0.1768
 4837TIP3    H114475   1.075   1.751   4.305 -0.4244  0.2611  0.1198
 4837TIP3    H214476   1.192   1.845   4.291  0.1817 -0.6117 -0.7721
 4838TIP3   OH214477   4.513   5.642   2.296  0.2210  0.1924 -0.2676
 4838TIP3    H114478   4.447   5.670   2.359  0.4800 -0.0334  0.1085
 4838TIP3    H214479   4.558   5.723   2.271 -0.0663  0.3190 -0.3773
 4839TIP3   OH214480   3.338   6.352   0.521 -0.1213 -0.4632 -0.2698
 4839TIP3    H114481   3.384   6.377   0.441 -0.2611 -2.2463 -0.9502
 4839TIP3    H214482   3.380   6.404   0.590 -2.6744  4.4025 -1.8534
 4840TIP3   OH214483   3.259   3.534   1.093 -0.2024  0.2931  0.2378
 4840TIP3    H114484   3.232   3.464   1.034  0.9459  1.6191 -1.9834
 4840TIP3    H214485   3.181   3.590   1.099 -1.4649 -1.4919  2.7947
 4841TIP3   OH214486   1.331   4.378   1.532  0.1656 -0.7851  0.2030
 4841TIP3    H114487   1.346   4.435   1.456 -0.5232 -2.6054 -1.3802
 4841TIP3    H214488   1.419   4.361   1.567  0.6570 -1.0527 -1.0992
 4842TIP3   OH214489   6.120   4.823   4.288  0.1701 -0.0016 -0.0293
 4842TIP3    H114490   6.037   4.777   4.277  0.0556  0.2412 -0.1815
 4842TIP3    H214491   6.157   4.786   4.368  0.6905 -1.2927 -0.8312
 4843TIP3   OH214492   0.828   3.420   1.562 -0.0338  0.5802  0.1694
 4843TIP3    H114493   0.760   3.461   1.509  1.1972  1.7621 -0.5666
 4843TIP3    H214494   0.871   3.358   1.503 -0.4560 -0.1828  0.6392
 4844TIP3   OH214495   4.584   1.045   4.645  0.5853 -0.3525 -0.0130
 4844TIP3    H114496   4.543   1.130   4.629  0.9676 -0.6111 -2.9379
 4844TIP3    H214497   4.653   1.038   4.579  1.0942 -2.5995  0.6492
 4845TIP3   OH214498   5.937   5.750   3.185  0.1694  0.2156 -0.2093
 4845TIP3    H114499   5.913   5.659   3.203 -2.7524  1.2089  1.5998
 4845TIP3    H214500   5.967   5.749   3.094  1.2000 -2.6697  0.0491
 4846TIP3   OH214501   6.275   5.175   2.103  0.4181 -0.6049  0.1801
 4846TIP3    H114502   6.253   5.206   2.192 -0.8787 -1.4437  0.1811
 4846TIP3    H214503   6.205   5.114   2.082  0.1927  0.2838 -1.8110
 4847TIP3   OH214504   6.272   6.344   2.437 -0.4262  0.2260 -0.0342
 4847TIP3    H114505   6.309   6.367   2.352 -0.1239 -0.4131 -0.0830
 4847TIP3    H214506   6.289   6.420   2.492 -0.0717  0.3957 -0.3741
 4848TIP3   OH214507   1.162   2.119   4.302  0.2220  0.3079  0.0023
 4848TIP3    H114508   1.116   2.036   4.299  2.0031 -0.7044 -0.7425
 4848TIP3    H214509   1.164   2.149   4.210  1.4757  0.0548 -0.0715
 4849TIP3   OH214510   3.831   3.912   1.596  0.2125  0.7375 -0.2158
 4849TIP3    H114511   3.744   3.871   1.595 -0.5515  2.1715  1.5214
 4849TIP3    H214512   3.815   4.002   1.569  0.7320  1.6565  2.2824
 4850TIP3   OH214513   2.985   6.063   3.439  0.3581  0.9065  0.0954
 4850TIP3    H114514   2.989   6.153   3.406 -0.1537  1.8355  2.3609
 4850TIP3    H214515   2.893   6.039   3.431  0.9505 -0.8083 -3.6582
 4851TIP3   OH214516   1.973   2.050   5.147  0.8018 -0.4537  0.1188
 4851TIP3    H114517   1.965   2.144   5.131 -0.8596 -0.2888  1.5659
 4851TIP3    H214518   2.003   2.043   5.238  0.3501 -1.3104  0.2189
 4852TIP3   OH214519   5.246   2.563   0.457  0.0797  0.5230 -0.1139
 4852TIP3    H114520   5.265   2.507   0.533  0.4676 -0.4445 -0.9076
 4852TIP3    H214521   5.271   2.511   0.381  0.9807  1.9823 -0.8775
 4853TIP3   OH214522   5.405   1.224   2.488 -0.2347  0.1674  0.3203
 4853TIP3    H114523   5.376   1.160   2.553 -0.8668 -0.2092 -0.3211
 4853TIP3    H214524   5.487   1.189   2.454 -0.4344 -0.1539  0.1720
 4854TIP3   OH214525   4.640   5.337   5.510  0.1636  0.0779 -0.4883
 4854TIP3    H114526   4.645   5.306   5.600 -0.2825 -0.0268 -0.4988
 4854TIP3    H214527   4.702   5.410   5.505  1.0795 -0.6674 -0.4014
 4855TIP3   OH214528   0.155   2.453   3.187  0.0826 -0.3206 -0.1029
 4855TIP3    H114529   0.164   2.468   3.281  0.3566  1.4287 -0.3901
 4855TIP3    H214530   0.213   2.516   3.146 -2.3405  1.1391 -1.5486
 4856TIP3   OH214531   4.579   3.307   3.670  0.0773 -0.0178  0.2644
 4856TIP3    H114532   4.492   3.340   3.694  0.1122 -0.6132  1.2717
 4856TIP3    H214533   4.619   3.378   3.621 -0.3640  0.9022  1.1995
 4857TIP3   OH214534   5.580   4.296   2.016  0.3114  0.5105  0.7708
 4857TIP3    H114535   5.598   4.203   2.029  0.3503  0.6674  1.9640
 4857TIP3    H214536   5.523   4.300   1.940 -0.3821 -0.5591  1.2193
 4858TIP3   OH214537   1.137   2.709   0.583  0.2086  0.0911  0.5639
 4858TIP3    H114538   1.224   2.672   0.593  1.2437  1.8225 -1.2592
 4858TIP3    H214539   1.152   2.801   0.561 -2.0467  0.3616 -0.1385
 4859TIP3   OH214540   4.607   2.525   0.531 -0.0839 -0.5913 -0.2447
 4859TIP3    H114541   4.637   2.615   0.520  1.8108 -1.0072  0.9495
 4859TIP3    H214542   4.512   2.532   0.538  0.1055  1.5414  1.5037
 4860TIP3   OH214543   1.289   4.044   2.101 -0.5154 -0.1992 -0.2598
 4860TIP3    H114544   1.227   4.007   2.164  1.0083  0.4030  1.7187
 4860TIP3    H214545   1.359   3.979   2.097 -0.2019  0.1630 -0.6975
 4861TIP3   OH214546   6.772   0.520   4.655 -0.2595  0.2453 -0.3838
 4861TIP3    H114547   6.783   0.538   4.562  2.2690 -0.1988 -0.2489
 4861TIP3    H214548   6.688   0.475   4.661  1.5594 -4.1645 -3.2114
 4862TIP3   OH214549   3.472   3.524   5.071  0.5245  0.4430 -0.2740
 4862TIP3    H114550   3.474   3.561   4.983  1.2159 -0.7634 -0.7917
 4862TIP3    H214551   3.380   3.524   5.095 -0.0094 -1.4347 -2.0159
 4863TIP3   OH214552   1.597   5.039   3.113 -0.1889  0.2802  0.2466
 4863TIP3    H114553   1.648   4.961   3.089 -1.9262 -1.0385  0.6505
 4863TIP3    H214554   1.663   5.107   3.128  1.4521 -1.3575  0.8284
 4864TIP3   OH214555   3.687   2.483   3.024  0.1903 -0.3493 -0.0403
 4864TIP3    H114556   3.639   2.483   3.106 -0.0477  0.7198 -0.1707
 4864TIP3    H214557   3.775   2.452   3.047 -0.0302 -0.5761  0.5115
 4865TIP3   OH214558   4.234   3.528   2.470  0.2080  0.0581 -0.0020
 4865TIP3    H114559   4.320   3.485   2.463  1.5840  2.3968  1.1530
 4865TIP3    H214560   4.227   3.578   2.389  1.4620  2.2782  1.1561
 4866TIP3   OH214561   2.012   0.599   3.433  0.2144 -0.3316 -0.2313
 4866TIP3    H114562   2.090   0.620   3.382  0.0797 -0.0614 -0.3310
 4866TIP3    H214563   2.037   0.523   3.485  1.2753  1.0571  1.3948
 4867TIP3   OH214564   3.153   4.337   1.426 -0.2471 -0.0555  0.4545
 4867TIP3    H114565   3.142   4.281   1.503 -2.4723  0.2152  0.4086
 4867TIP3    H214566   3.189   4.419   1.461 -0.7988 -0.1051  1.1670
 4868TIP3   OH214567   6.714   0.319   0.343 -0.2027 -0.0990  0.0132
 4868TIP3    H114568   6.642   0.328   0.281  0.1073 -0.3955 -0.3987
 4868TIP3    H214569   6.703   0.231   0.379 -0.5051  0.1505  0.5423
 4869TIP3   OH214570   4.277   3.001   4.147  0.5603  0.2160 -0.0620
 4869TIP3    H114571   4.315   2.913   4.142 -0.7405 -0.3351 -0.8110
 4869TIP3    H214572   4.193   2.993   4.102 -0.3445  1.4469  1.3398
 4870TIP3   OH214573   4.495   5.977   0.898  0.2165 -0.1806  0.3007
 4870TIP3    H114574   4.455   6.035   0.964  2.7552 -1.3368  3.1102
 4870TIP3    H214575   4.487   5.889   0.935  1.4305 -0.9285 -1.0891
 4871TIP3   OH214576   1.954   6.685   3.651 -0.0822 -0.2196 -0.1103
 4871TIP3    H114577   2.000   6.654   3.729 -0.4262 -0.6788 -0.0851
 4871TIP3    H214578   1.986   6.630   3.580 -1.9227 -1.8300  0.2161
 4872TIP3   OH214579   0.729   1.929   4.307  0.0187  0.0377  0.1536
 4872TIP3    H114580   0.695   1.978   4.381 -0.1250  1.0644 -0.5726
 4872TIP3    H214581   0.735   1.838   4.338 -1.6303  0.1559  0.8746
 4873TIP3   OH214582   1.753   1.721   4.870  0.2559  0.0918 -0.2021
 4873TIP3    H114583   1.715   1.648   4.918 -1.5014  0.2554 -1.2402
 4873TIP3    H214584   1.770   1.788   4.936  0.4599 -0.6859  0.5449
 4874TIP3   OH214585   3.073   1.402   4.269 -0.3512  0.1271 -0.4113
 4874TIP3    H114586   3.074   1.357   4.185  0.3035  0.8915 -0.8348
 4874TIP3    H214587   3.155   1.452   4.270 -0.3046  0.0566  0.7198
 4875TIP3   OH214588   4.992   2.550   1.110  0.5177  0.0485 -0.4227
 4875TIP3    H114589   5.036   2.567   1.027  1.0174  0.5574 -0.0653
 4875TIP3    H214590   5.020   2.622   1.167  0.5254 -0.5306  0.3188
 4876TIP3   OH214591   0.926   3.919   2.698 -0.3507 -0.5447  0.2831
 4876TIP3    H114592   0.945   3.904   2.605 -1.6680  0.4879 -0.1846
 4876TIP3    H214593   1.010   3.906   2.742  0.3564 -0.8105 -1.0748
 4877TIP3   OH214594   0.759   5.695   3.961 -0.4022 -0.3954 -0.3100
 4877TIP3    H114595   0.706   5.706   3.882  0.6779  2.3572 -0.7629
 4877TIP3    H214596   0.848   5.680   3.928 -0.1556 -0.5325  0.4039
 4878TIP3   OH214597   2.885   0.011   1.682  0.6274 -0.1308  0.5982
 4878TIP3    H114598   2.954   0.025   1.745 -0.2430 -0.6320  1.6970
 4878TIP3    H214599   2.804   0.033   1.729 -0.1674 -2.0135  0.1981
 4879TIP3   OH214600   3.537   6.106   0.313  0.1685 -0.0558 -0.2121
 4879TIP3    H114601   3.557   6.196   0.337 -2.3929  1.3151 -2.6195
 4879TIP3    H214602   3.497   6.068   0.391 -0.3196  1.4969  0.3207
 4880TIP3   OH214603   7.024   2.054   2.604  0.1051 -0.0914  0.1904
 4880TIP3    H114604   6.929   2.046   2.611 -0.0319  0.9974 -0.1557
 4880TIP3    H214605   7.059   1.978   2.650 -0.9527 -1.8562 -1.7674
 4881TIP3   OH214606   5.704   0.811   4.579  0.3156  0.1428 -0.1821
 4881TIP3    H114607   5.788   0.796   4.623  0.7992 -1.4503 -1.5373
 4881TIP3    H214608   5.645   0.747   4.619  0.7954 -1.4173 -1.8302
 4882TIP3   OH214609   6.822   0.434   5.629  0.1499 -0.1161 -1.0744
 4882TIP3    H114610   6.790   0.466   5.545  0.5742  0.6771 -0.9502
 4882TIP3    H214611   6.867   0.510   5.668  1.8281 -1.0437 -1.0780
 4883TIP3   OH214612   2.320   3.813   1.484  0.8594  0.5439 -0.1042
 4883TIP3    H114613   2.290   3.726   1.510 -0.3941  1.1136  0.4679
 4883TIP3    H214614   2.345   3.855   1.567  0.0239  1.2209 -0.1773
 4884TIP3   OH214615   1.070   4.128   3.194 -0.2095 -0.1162 -0.4350
 4884TIP3    H114616   1.031   4.215   3.188 -1.5055 -0.7024 -1.0116
 4884TIP3    H214617   1.090   4.104   3.104 -1.3285 -1.0245 -0.4739
 4885TIP3   OH214618   1.897   2.710   2.590  0.2089 -0.2431  0.1233
 4885TIP3    H114619   1.948   2.789   2.606 -2.2319  1.0841  2.0930
 4885TIP3    H214620   1.899   2.699   2.495 -0.1647  2.8289 -0.3410
 4886TIP3   OH214621   3.859   5.249   1.448  0.7174  0.2937  0.3988
 4886TIP3    H114622   3.788   5.230   1.510  1.2163  0.0832  0.9136
 4886TIP3    H214623   3.814   5.278   1.369  0.0523  0.1146  0.7013
 4887TIP3   OH214624   5.680   3.614   4.739 -0.1034  0.5031  0.0166
 4887TIP3    H114625   5.595   3.648   4.766 -1.3130 -2.4561  0.2741
 4887TIP3    H214626   5.661   3.530   4.697  2.6481 -0.0203 -0.4201
 4888TIP3   OH214627   3.978   2.642   0.455  0.0385  0.2528  0.1388
 4888TIP3    H114628   3.979   2.548   0.440 -1.0150  0.4017 -0.9899
 4888TIP3    H214629   4.028   2.679   0.382  0.0557  0.6009  0.3227
 4889TIP3   OH214630   3.555   2.904   3.533  0.6896 -0.1456 -0.0608
 4889TIP3    H114631   3.629   2.944   3.488 -0.3431  1.4018 -0.4546
 4889TIP3    H214632   3.483   2.908   3.470  0.2293 -1.5883  0.3208
 4890TIP3   OH214633   1.410   4.309   2.617  0.7149  0.0455 -0.0619
 4890TIP3    H114634   1.345   4.273   2.677  0.5991  1.2489  0.5695
 4890TIP3    H214635   1.479   4.343   2.674  0.9672  0.5240 -0.6421
 4891TIP3   OH214636   2.981   6.549   0.241  0.0179  0.3879 -0.2022
 4891TIP3    H114637   2.964   6.639   0.215 -1.0802  0.4516  0.6651
 4891TIP3    H214638   3.061   6.526   0.195 -0.1408  1.5226 -1.0953
 4892TIP3   OH214639   0.223   2.854   5.360 -0.4400  0.7370 -0.0903
 4892TIP3    H114640   0.137   2.814   5.373  0.3189 -1.6324 -1.8011
 4892TIP3    H214641   0.268   2.844   5.445 -1.2228  0.4709  0.2998
 4893TIP3   OH214642   1.704   0.974   3.710 -0.2629  0.1688  0.8795
 4893TIP3    H114643   1.743   0.893   3.676 -2.7255 -0.1602 -1.5286
 4893TIP3    H214644   1.779   1.025   3.742  1.6222 -2.0831  0.3576
 4894TIP3   OH214645   3.047   6.157   0.716  0.8157 -0.6208  0.7815
 4894TIP3    H114646   3.073   6.110   0.795 -0.0192  0.6547  1.8547
 4894TIP3    H214647   2.952   6.150   0.713  0.9031 -1.5520 -0.7145
 4895TIP3   OH214648   1.374   0.738   3.246  0.1011 -0.3926  0.0642
 4895TIP3    H114649   1.340   0.652   3.268  0.8566  0.2054  4.2528
 4895TIP3    H214650   1.305   0.780   3.195 -1.8807 -2.1312  1.2182
 4896TIP3   OH214651   2.979   6.339   3.574  0.0076 -0.1301 -0.0143
 4896TIP3    H114652   3.039   6.319   3.646  0.9584  1.4354 -0.3291
 4896TIP3    H214653   3.007   6.425   3.543 -0.5681 -0.6456 -2.0767
 4897TIP3   OH214654   6.043   5.067   3.794  0.5163  0.0834 -0.2314
 4897TIP3    H114655   6.088   5.141   3.753  0.9042  1.7050  2.8517
 4897TIP3    H214656   5.950   5.085   3.781  0.6328  0.5428 -0.4435
 4898TIP3   OH214657   5.069   5.637   3.554 -0.0663  0.0607 -0.2294
 4898TIP3    H114658   5.054   5.654   3.647 -1.1889 -2.7217  0.1806
 4898TIP3    H214659   4.982   5.637   3.515 -0.1237 -3.0483 -0.3701
 4899TIP3   OH214660   3.828   2.062   1.078 -0.3408  0.0220 -0.2997
 4899TIP3    H114661   3.805   2.119   1.151 -0.6893 -1.3544  0.7118
 4899TIP3    H214662   3.744   2.036   1.041 -0.2285 -0.5380 -0.1721
 4900TIP3   OH214663   1.434   6.561   0.349 -0.0058  0.4215 -0.5408
 4900TIP3    H114664   1.405   6.475   0.320  1.2848 -0.2538  0.0740
 4900TIP3    H214665   1.525   6.547   0.377 -0.0482  1.7965  0.3603
 4901TIP3   OH214666   0.781   6.289   2.171 -0.0757 -0.0105 -0.2284
 4901TIP3    H114667   0.810   6.378   2.150  0.2663  0.0746  0.5395
 4901TIP3    H214668   0.693   6.283   2.134 -0.5974  1.0787  0.7618
 4902TIP3   OH214669   2.904   0.036   4.965 -0.0566  0.1070  0.6566
 4902TIP3    H114670   2.951   0.118   4.955 -0.1849  0.1498  0.3820
 4902TIP3    H214671   2.831   0.043   4.903  0.2018 -0.4082  0.2893
 4903TIP3   OH214672   4.099   5.619   1.299 -0.0225  0.4611  0.1416
 4903TIP3    H114673   4.133   5.533   1.324  0.0602  0.3186 -0.4450
 4903TIP3    H214674   4.176   5.666   1.268 -0.0716  0.7443  0.4424
 4904TIP3   OH214675   3.549   4.876   1.948  0.1209 -1.0794 -0.2821
 4904TIP3    H114676   3.603   4.799   1.965  2.6569  0.9316  1.6823
 4904TIP3    H214677   3.475   4.868   2.008  0.6912 -1.6841  0.3626
 4905TIP3   OH214678   1.644   3.626   4.952  0.3369 -0.0043  0.5331
 4905TIP3    H114679   1.689   3.581   5.024  0.1776 -0.9939  0.0402
 4905TIP3    H214680   1.707   3.691   4.921  0.1261  0.9534  2.0280
 4906TIP3   OH214681   6.235   4.190   0.582  0.5525  0.4833 -0.0765
 4906TIP3    H114682   6.278   4.181   0.667  0.5475 -1.3933 -0.2315
 4906TIP3    H214683   6.301   4.229   0.525  0.2655  2.6278  0.9676
 4907TIP3   OH214684   4.374   1.820   4.884  0.1855 -0.4654  0.6576
 4907TIP3    H114685   4.416   1.760   4.945  1.6158 -0.7083 -0.5081
 4907TIP3    H214686   4.326   1.764   4.823  0.5617 -0.3695  0.2655
 4908TIP3   OH214687   4.882   6.487   0.108  0.0174 -0.4657 -0.1460
 4908TIP3    H114688   4.937   6.409   0.114  0.0842 -0.3802  0.3476
 4908TIP3    H214689   4.943   6.560   0.119 -0.1064 -0.3526 -0.2026
 4909TIP3   OH214690   4.237   4.670   0.885  0.3875 -0.0399  0.1453
 4909TIP3    H114691   4.219   4.751   0.838  1.7526  0.5630  0.6222
 4909TIP3    H214692   4.221   4.601   0.821 -1.9970  0.4766  0.0651
 4910TIP3   OH214693   2.727   6.135   3.755  0.1677  0.1538 -0.0677
 4910TIP3    H114694   2.696   6.068   3.816  0.3102  0.3423  0.2140
 4910TIP3    H214695   2.804   6.172   3.797 -0.3164  0.9818  0.1130
 4911TIP3   OH214696   1.656   1.454   4.825 -0.0454 -0.1348 -0.7711
 4911TIP3    H114697   1.706   1.413   4.896  1.1528  1.0038 -0.9201
 4911TIP3    H214698   1.566   1.452   4.856  0.0182 -2.4096 -0.5772
 4912TIP3   OH214699   0.668   5.328   2.991 -0.5946  0.5614 -0.8727
 4912TIP3    H114700   0.657   5.295   2.902 -0.0744  0.3745 -0.8660
 4912TIP3    H214701   0.733   5.271   3.031 -2.7404 -1.1269  0.5123
 4913TIP3   OH214702   0.448   4.785   0.003 -0.0044  0.4782  0.9393
 4913TIP3    H114703   0.495   4.868   0.013  1.1119  0.1416 -1.0875
 4913TIP3    H214704   0.491   4.726   0.066  0.4579  0.9152  1.0402
 4914TIP3   OH214705   7.048   5.923   3.722  0.6433  0.4428 -0.1046
 4914TIP3    H114706   7.008   6.010   3.725  0.3122  0.2891  0.0035
 4914TIP3    H214707   7.141   5.939   3.736  0.5425  0.7531  0.2377
 4915TIP3   OH214708   4.625   5.031   4.464 -0.0208 -0.4298  0.1133
 4915TIP3    H114709   4.587   5.000   4.546  2.3128 -0.1814  1.3725
 4915TIP3    H214710   4.610   5.126   4.465  0.0922 -0.4137  0.3035
 4916TIP3   OH214711   4.842   5.766   5.894  0.4285 -0.1878  0.0404
 4916TIP3    H114712   4.879   5.738   5.811 -1.7802  2.2581 -1.9488
 4916TIP3    H214713   4.765   5.710   5.906 -0.1650  0.5108 -0.4352
 4917TIP3   OH214714   1.246   5.112   1.566  0.4517 -0.0438  0.3172
 4917TIP3    H114715   1.334   5.149   1.561  0.4512  0.2398  1.9393
 4917TIP3    H214716   1.258   5.025   1.602  0.1543 -0.4793 -0.5893
 4918TIP3   OH214717   6.653   2.211   5.567  0.3982  0.0434  0.0960
 4918TIP3    H114718   6.641   2.121   5.597 -1.8024  0.1819 -0.1533
 4918TIP3    H214719   6.649   2.263   5.648  1.6928 -0.0542  0.2425
 4919TIP3   OH214720   5.503   6.226   3.576 -0.3708  0.0714  0.0934
 4919TIP3    H114721   5.479   6.134   3.565 -1.4120  0.3617 -0.1890
 4919TIP3    H214722   5.440   6.273   3.522  0.3140  0.9356  0.0473
 4920TIP3   OH214723   0.562   5.364   2.054 -0.0950 -0.5994 -0.2429
 4920TIP3    H114724   0.517   5.315   1.986 -0.1625  0.3442 -0.8978
 4920TIP3    H214725   0.584   5.448   2.013  0.8977 -0.4578  0.5330
 4921TIP3   OH214726   1.314   6.621   4.704 -0.0780 -0.2749 -0.2477
 4921TIP3    H114727   1.273   6.696   4.659 -0.5937 -0.7971 -0.6652
 4921TIP3    H214728   1.370   6.581   4.637 -0.8454 -1.0528 -0.4449
 4922TIP3   OH214729   0.842   4.584   3.502 -0.1823 -0.1482 -0.0290
 4922TIP3    H114730   0.868   4.569   3.411 -0.1121 -0.0889 -0.0183
 4922TIP3    H214731   0.924   4.591   3.550 -0.1811  1.5164 -0.2174
 4923TIP3   OH214732   1.838   5.735   5.579  0.1482  0.2635  0.3930
 4923TIP3    H114733   1.757   5.773   5.612  1.0034  0.5392  2.3376
 4923TIP3    H214734   1.825   5.640   5.583 -0.3432  0.3125 -0.0409
 4924TIP3   OH214735   5.834   0.649   0.993 -0.4817 -0.0744 -0.3556
 4924TIP3    H114736   5.882   0.711   0.938 -1.8137  0.6733 -0.7082
 4924TIP3    H214737   5.749   0.639   0.950 -0.2403 -2.3159 -0.4124
 4925TIP3   OH214738   0.841   5.168   4.007  0.6693  0.0861 -0.0814
 4925TIP3    H114739   0.826   5.116   4.086 -0.1267 -0.3830 -0.5286
 4925TIP3    H214740   0.936   5.172   3.999  0.7629  0.0398  0.8285
 4926TIP3   OH214741   4.443   0.258   1.536 -0.0735 -0.9573 -0.4490
 4926TIP3    H114742   4.388   0.327   1.574  1.3826  0.4997 -0.8630
 4926TIP3    H214743   4.430   0.268   1.442  0.0272 -1.3759 -0.5073
 4927TIP3   OH214744   6.168   3.285   2.978 -0.4058  0.0371  0.1027
 4927TIP3    H114745   6.192   3.193   2.967  1.1885  0.5991 -1.5768
 4927TIP3    H214746   6.076   3.290   2.952 -0.1097 -0.8608 -1.1985
 4928TIP3   OH214747   2.796   4.022   3.615  0.0944 -0.3549  0.1693
 4928TIP3    H114748   2.773   4.112   3.593  0.8897 -0.2773 -0.4282
 4928TIP3    H214749   2.820   4.026   3.707 -0.6362 -0.1163  0.3546
 4929TIP3   OH214750   3.013   0.216   2.670 -0.3462 -0.4102  0.2213
 4929TIP3    H114751   2.920   0.210   2.647 -0.2227  0.6003 -0.5781
 4929TIP3    H214752   3.048   0.286   2.615  0.5845  0.1846  1.5055
 4930TIP3   OH214753   0.687   0.711   0.566 -0.0956  0.4536 -0.3415
 4930TIP3    H114754   0.741   0.742   0.639  0.6988 -0.0601 -0.7030
 4930TIP3    H214755   0.680   0.786   0.507  2.1072 -0.0999 -1.3848
 4931TIP3   OH214756   4.315   6.405   3.774 -0.2450  0.0029  0.1220
 4931TIP3    H114757   4.251   6.464   3.813  0.4334 -0.3764  1.8729
 4931TIP3    H214758   4.386   6.462   3.746  0.4009  0.0526  1.7916
 4932TIP3   OH214759   0.348   0.207   0.071 -0.7401 -0.1673  0.2327
 4932TIP3    H114760   0.386   0.242  -0.010 -0.0239  1.0084  1.0367
 4932TIP3    H214761   0.254   0.213   0.057 -0.6320  1.1720 -0.0763
 4933TIP3   OH214762   0.592   1.580   4.356  0.0215  0.1642  0.5852
 4933TIP3    H114763   0.637   1.647   4.407 -0.5211  0.2733  0.9330
 4933TIP3    H214764   0.650   1.504   4.359 -0.6760 -0.3593  2.6971
 4934TIP3   OH214765   0.849   5.801   2.036 -0.1518  0.2071  0.0138
 4934TIP3    H114766   0.918   5.758   1.985 -1.5245 -0.4679 -1.3498
 4934TIP3    H214767   0.892   5.880   2.072  1.5137 -0.5763 -0.1367
 4935TIP3   OH214768   2.392   1.586   2.126  0.2790  1.0658  0.4158
 4935TIP3    H114769   2.375   1.520   2.059  1.6750  0.5018  0.5679
 4935TIP3    H214770   2.307   1.603   2.166 -0.6042  1.4937 -1.5416
 4936TIP3   OH214771   2.015   4.865   4.781 -0.2931 -0.1223 -0.0709
 4936TIP3    H114772   2.099   4.824   4.759 -0.3888 -0.1369 -0.4192
 4936TIP3    H214773   1.953   4.792   4.782 -0.3753 -0.0529 -0.2098
 4937TIP3   OH214774   4.909   3.379   3.014  0.0589  0.0973  0.1578
 4937TIP3    H114775   4.857   3.455   3.040  3.7135  2.8527  0.1631
 4937TIP3    H214776   4.939   3.341   3.096  0.1833  0.1114  0.1186
 4938TIP3   OH214777   3.451   5.336   0.175  0.2310 -0.0601  0.7072
 4938TIP3    H114778   3.529   5.290   0.145 -0.1722 -0.6395  0.5220
 4938TIP3    H214779   3.434   5.403   0.109  1.7296  1.4484  1.7614
 4939TIP3   OH214780   0.517   0.062   0.465 -0.0174  0.1521 -0.0947
 4939TIP3    H114781   0.610   0.067   0.488 -0.1721  0.9179  0.4151
 4939TIP3    H214782   0.483  -0.007   0.521 -0.0324  0.8354  0.7742
 4940TIP3   OH214783   1.448   3.608   3.924 -0.2295 -0.1610 -0.1999
 4940TIP3    H114784   1.479   3.525   3.960  0.7242 -0.6837 -2.0728
 4940TIP3    H214785   1.504   3.674   3.964  1.0938 -0.7649 -0.9593
 4941TIP3   OH214786   2.764   0.689   1.179  0.0755 -0.1459  0.3595
 4941TIP3    H114787   2.694   0.722   1.123  0.9668 -0.8557 -1.2246
 4941TIP3    H214788   2.717   0.652   1.255 -1.3059 -0.8000 -0.7566
 4942TIP3   OH214789   1.820   0.883   5.284  0.5107  0.4501 -0.5331
 4942TIP3    H114790   1.758   0.822   5.323  0.4582 -1.0812 -2.8338
 4942TIP3    H214791   1.779   0.910   5.202  1.1518  2.5508 -0.2249
 4943TIP3   OH214792   2.756   5.028   2.425  0.1783  0.0420  0.4612
 4943TIP3    H114793   2.729   5.005   2.336 -0.4796 -0.3308  0.7505
 4943TIP3    H214794   2.814   4.957   2.451 -0.8319 -0.6464  0.8805
 4944TIP3   OH214795   0.248   2.240   0.521 -0.0065 -0.1467 -0.5005
 4944TIP3    H114796   0.307   2.315   0.534 -0.6961  0.1492  1.1928
 4944TIP3    H214797   0.170   2.262   0.571 -0.7344 -1.4539 -1.0181
 4945TIP3   OH214798   2.147   5.883   2.283 -0.4435  0.2327  0.1278
 4945TIP3    H114799   2.094   5.945   2.334 -2.3836 -1.6909  0.5992
 4945TIP3    H214800   2.203   5.840   2.348  0.8385  1.3423 -0.1874
 4946TIP3   OH214801   5.807   5.454   4.646 -1.1100 -0.1952  0.3640
 4946TIP3    H114802   5.772   5.503   4.720 -2.4383 -0.5177 -0.0126
 4946TIP3    H214803   5.780   5.505   4.569  2.5412  1.6191  0.0777
 4947TIP3   OH214804   6.160   5.277   0.604 -0.0668 -0.3919 -0.5038
 4947TIP3    H114805   6.089   5.329   0.567  0.3743  0.4775 -0.1726
 4947TIP3    H214806   6.213   5.341   0.652  0.3246 -1.2038  0.1687
 4948TIP3   OH214807   1.172   3.317   5.133  0.0353  0.1172  0.1997
 4948TIP3    H114808   1.235   3.382   5.102 -0.8681 -0.9248 -4.6959
 4948TIP3    H214809   1.220   3.235   5.133 -0.8411 -0.5102 -2.5511
 4949TIP3   OH214810   4.622   2.435   1.727  0.7344 -0.2601  0.0324
 4949TIP3    H114811   4.707   2.428   1.770  0.8033  1.9325  0.3765
 4949TIP3    H214812   4.605   2.529   1.723 -1.7681 -0.6380  0.1440
 4950TIP3   OH214813   4.090   0.007   3.778  0.4184  0.7498 -0.1993
 4950TIP3    H114814   4.175   0.028   3.816  0.5290 -0.4468  0.2571
 4950TIP3    H214815   4.099   0.029   3.685  1.1580  0.8260 -0.1140
 4951TIP3   OH214816   5.695   3.794   3.115 -0.1660  0.2051  0.3205
 4951TIP3    H114817   5.721   3.856   3.046 -0.6753  0.7797  0.6375
 4951TIP3    H214818   5.768   3.797   3.178 -0.1180  0.3586  0.2573
 4952TIP3   OH214819   7.014   0.391   4.731 -0.0091  0.4433  0.5968
 4952TIP3    H114820   7.032   0.441   4.811 -0.6786  2.0915 -0.2318
 4952TIP3    H214821   6.948   0.442   4.686  0.3872 -0.4375 -1.0471
 4953TIP3   OH214822   6.236   4.410   5.675 -0.0244  0.1615  0.2467
 4953TIP3    H114823   6.208   4.460   5.752 -0.3039 -0.4934  0.5779
 4953TIP3    H214824   6.205   4.321   5.692  0.5144 -0.1383 -0.3113
 4954TIP3   OH214825   6.813   5.034   4.770 -0.1303  0.4613  0.3244
 4954TIP3    H114826   6.813   5.043   4.675 -0.2708 -2.6227 -0.0909
 4954TIP3    H214827   6.905   5.017   4.792  0.1444  2.5926  0.9777
 4955TIP3   OH214828   2.623   1.039   4.157 -0.1110  0.0852 -0.0996
 4955TIP3    H114829   2.658   1.054   4.245 -1.1853  1.1172  0.1838
 4955TIP3    H214830   2.535   1.076   4.160  0.0935  0.8163 -1.8204
 4956TIP3   OH214831   6.690   1.806   2.114 -0.1146  0.6124  0.0302
 4956TIP3    H114832   6.772   1.829   2.070 -0.0296 -0.4351 -0.3914
 4956TIP3    H214833   6.707   1.822   2.206 -0.2135  2.6054 -0.2509
 4957TIP3   OH214834   7.034   3.796   2.609  0.0144 -0.2343 -0.1838
 4957TIP3    H114835   6.959   3.854   2.597 -1.6482 -1.5530  2.7306
 4957TIP3    H214836   7.034   3.740   2.531 -0.2757  1.5465 -1.5256
 4958TIP3   OH214837   3.267   2.538   0.713 -0.2732 -0.3246 -0.0934
 4958TIP3    H114838   3.250   2.445   0.701  0.6994 -0.2760 -2.2625
 4958TIP3    H214839   3.290   2.570   0.626  0.9250  1.6383  0.8717
 4959TIP3   OH214840   3.402   5.299   1.400 -0.6126  0.6635  0.0420
 4959TIP3    H114841   3.326   5.318   1.455 -0.8701  0.4544 -0.2304
 4959TIP3    H214842   3.365   5.290   1.311  0.0740  3.1890 -0.5797
 4960TIP3   OH214843   3.364   6.680   0.099 -0.0004 -0.4755  0.4070
 4960TIP3    H114844   3.291   6.741   0.083 -0.6956 -1.3017  0.3569
 4960TIP3    H214845   3.435   6.736   0.129 -0.7838  0.3139  0.8558
 4961TIP3   OH214846   6.408   6.061   5.209  0.6713 -0.3146 -0.2070
 4961TIP3    H114847   6.436   5.982   5.254  2.1453  0.5057  0.3668
 4961TIP3    H214848   6.464   6.130   5.244 -2.1166  1.4656  1.0959
 4962TIP3   OH214849   3.432   0.525   5.627  0.0639  0.0484  0.4912
 4962TIP3    H114850   3.371   0.593   5.654  0.3110  0.1460  0.8174
 4962TIP3    H214851   3.378   0.459   5.584  0.0004  1.2174 -1.3666
 4963TIP3   OH214852   3.187   6.287   2.044 -0.1542 -0.1543 -0.2056
 4963TIP3    H114853   3.236   6.266   1.965  1.0381  0.1352  0.4328
 4963TIP3    H214854   3.135   6.209   2.063  1.5864 -1.2532  0.2091
 4964TIP3   OH214855   2.446   0.420   2.618 -0.5197 -0.4248 -0.0146
 4964TIP3    H114856   2.508   0.455   2.682  2.2229 -0.9221 -2.2277
 4964TIP3    H214857   2.407   0.498   2.579  0.2881 -0.0218 -0.0393
 4965TIP3   OH214858   4.854   4.632   2.189 -0.2286  0.4325 -0.3658
 4965TIP3    H114859   4.782   4.582   2.151  0.1791  0.2335 -0.8915
 4965TIP3    H214860   4.913   4.566   2.224 -0.3635  0.6001  0.1857
 4966TIP3   OH214861   0.385   2.330   5.461 -0.0528  0.3220  0.4759
 4966TIP3    H114862   0.460   2.382   5.432  0.7415 -0.5495  0.9234
 4966TIP3    H214863   0.368   2.269   5.389 -1.2126  1.3963 -0.2029
 4967TIP3   OH214864   4.457   5.032   5.378  0.0276  0.2839 -0.3040
 4967TIP3    H114865   4.417   5.117   5.398  1.0439  0.3197  1.9079
 4967TIP3    H214866   4.386   4.969   5.388 -1.2110  0.8849 -3.7037
 4968TIP3   OH214867   2.222   3.737   5.596 -0.0406 -0.3893  0.4755
 4968TIP3    H114868   2.247   3.658   5.645 -0.6037  0.7573  2.7578
 4968TIP3    H214869   2.176   3.704   5.519  1.2041 -2.3146  0.4867
 4969TIP3   OH214870   6.646   5.458   2.933 -0.0015 -0.2044  0.2510
 4969TIP3    H114871   6.666   5.444   3.025  0.1092 -1.0511  0.1119
 4969TIP3    H214872   6.619   5.549   2.927  0.7934  0.0903  0.9778
 4970TIP3   OH214873   5.480   6.524   4.629 -0.0950 -0.5533  0.1834
 4970TIP3    H114874   5.418   6.595   4.644  0.1725 -0.4686  0.9220
 4970TIP3    H214875   5.558   6.549   4.679  0.8472 -0.2722 -1.3603
 4971TIP3   OH214876   2.315   2.343   3.068 -0.2107 -0.4728 -0.4803
 4971TIP3    H114877   2.267   2.414   3.024  0.8220  0.4589 -0.1530
 4971TIP3    H214878   2.407   2.367   3.058  0.0899 -0.8376  1.1901
 4972TIP3   OH214879   5.455   6.469   2.179  0.0642  0.0081 -0.0438
 4972TIP3    H114880   5.451   6.564   2.175 -2.0922 -0.0025  0.6419
 4972TIP3    H214881   5.476   6.442   2.090 -0.2976  1.1029 -0.4835
 4973TIP3   OH214882   0.488   6.684   1.977 -0.1285  0.1825 -0.6221
 4973TIP3    H114883   0.468   6.691   2.070  0.2438  1.7360 -0.6174
 4973TIP3    H214884   0.404   6.670   1.934 -0.2444 -1.0212 -0.0270
 4974TIP3   OH214885   4.751   3.073   0.349  0.1484 -0.1602 -0.0030
 4974TIP3    H114886   4.703   3.044   0.272  1.2871  0.6128 -1.0339
 4974TIP3    H214887   4.809   2.999   0.370 -0.8647 -0.7660  0.7455
 4975TIP3   OH214888   6.310   2.082   1.888  0.1128 -0.0959 -0.8543
 4975TIP3    H114889   6.370   2.013   1.916  0.4800  0.1206 -1.0969
 4975TIP3    H214890   6.301   2.069   1.793  1.3481  1.0698 -1.1607
 4976TIP3   OH214891   0.428   3.142   3.418  0.3301  0.0131  0.5047
 4976TIP3    H114892   0.452   3.203   3.348  0.2814 -0.0337  0.4465
 4976TIP3    H214893   0.349   3.180   3.458  0.9963  0.6210  1.2679
 4977TIP3   OH214894   0.270   4.852   5.796 -0.4968 -0.2066 -0.3167
 4977TIP3    H114895   0.307   4.940   5.785 -0.5629 -0.2299 -0.7271
 4977TIP3    H214896   0.337   4.803   5.842 -0.5343  0.1126  0.0827
 4978TIP3   OH214897   3.230   6.329   3.178 -0.2442 -0.3234  0.2101
 4978TIP3    H114898   3.298   6.310   3.243  1.3290  0.4860 -1.1097
 4978TIP3    H214899   3.148   6.303   3.220  0.7939 -0.6340  2.1580
 4979TIP3   OH214900   2.438   1.043   0.748 -0.4320  0.0331  0.2027
 4979TIP3    H114901   2.528   1.047   0.780 -0.3147  0.1832 -0.1375
 4979TIP3    H214902   2.421   1.130   0.713 -0.9957  0.2621  1.0086
 4980TIP3   OH214903   3.291   4.263   0.505 -0.0485 -0.1511 -0.1247
 4980TIP3    H114904   3.260   4.354   0.497 -0.0648 -0.2737 -1.8344
 4980TIP3    H214905   3.386   4.271   0.507 -0.0096 -0.1308 -1.3199
 4981TIP3   OH214906   0.269   3.990   2.692 -0.1120 -0.2583 -0.0415
 4981TIP3    H114907   0.209   4.047   2.741 -0.8179  0.6250 -1.8415
 4981TIP3    H214908   0.214   3.917   2.664  0.0716 -0.3133 -0.2547
 4982TIP3   OH214909   3.881   6.756   3.865 -0.4040 -0.0461 -0.6322
 4982TIP3    H114910   3.791   6.757   3.833 -0.8809  0.4597  0.6758
 4982TIP3    H214911   3.888   6.834   3.920  0.7099 -0.3154 -0.3742
 4983TIP3   OH214912   6.560   2.985   3.341 -0.6770 -0.1066 -0.3460
 4983TIP3    H114913   6.643   2.991   3.294 -0.2172 -0.4541  0.4055
 4983TIP3    H214914   6.540   2.892   3.343 -1.5907  0.0413 -1.3549
 4984TIP3   OH214915   1.670   2.746   1.156  0.5110 -0.1147 -0.0516
 4984TIP3    H114916   1.675   2.651   1.157  0.7153 -0.1149  1.2774
 4984TIP3    H214917   1.761   2.775   1.155  0.4978  0.0383  1.3346
 4985TIP3   OH214918   7.063   6.485   1.966 -0.0464 -0.3312 -0.1548
 4985TIP3    H114919   7.137   6.543   1.983 -1.1074  0.4651  2.1134
 4985TIP3    H214920   7.096   6.397   1.984  0.1849  0.0798  1.5807
 4986TIP3   OH214921   3.751   2.892   4.025  0.3328 -0.7896 -0.0358
 4986TIP3    H114922   3.696   2.913   3.950  0.0873  1.3732  0.6794
 4986TIP3    H214923   3.707   2.933   4.099  1.9933 -0.4859  0.8309
 4987TIP3   OH214924   6.916   6.311   4.805  0.0096 -0.0304  0.5131
 4987TIP3    H114925   6.942   6.226   4.838  2.3888  0.0755 -0.8005
 4987TIP3    H214926   6.903   6.297   4.711 -1.1542  0.7352  0.5479
 4988TIP3   OH214927   1.075   4.398   5.732 -0.3143  0.0264  0.0066
 4988TIP3    H114928   1.068   4.329   5.665  1.1087 -0.6168  0.4905
 4988TIP3    H214929   1.147   4.370   5.788 -0.0958  1.6405  0.5701
 4989TIP3   OH214930   2.948   4.970   3.790  0.1210  0.0207  0.3650
 4989TIP3    H114931   2.993   5.033   3.733 -0.0477  0.0291  0.2430
 4989TIP3    H214932   2.961   4.885   3.746 -1.5616  0.2459 -0.6600
 4990TIP3   OH214933   3.415   6.636   2.877  0.2765  0.2716  0.4274
 4990TIP3    H114934   3.414   6.666   2.968  0.0655  1.1401  0.1474
 4990TIP3    H214935   3.466   6.703   2.831  1.0229 -0.5509  0.0276
 4991TIP3   OH214936   2.169   2.299   4.929  0.0249 -0.3934 -0.2674
 4991TIP3    H114937   2.118   2.378   4.948 -0.5030 -0.8203  0.1259
 4991TIP3    H214938   2.234   2.295   5.000 -1.3409 -1.4733  0.9952
 4992TIP3   OH214939   7.096   2.489   5.568 -0.1288  0.3129  0.6118
 4992TIP3    H114940   7.060   2.503   5.480  0.3619  1.6240  0.5933
 4992TIP3    H214941   7.191   2.495   5.556 -0.0925  1.6812  1.3846
 4993TIP3   OH214942   0.018   1.151   0.059 -0.3114 -0.1155 -0.3136
 4993TIP3    H114943   0.006   1.093   0.134  0.1581 -0.9289 -0.8447
 4993TIP3    H214944   0.039   1.092  -0.013  1.2353  0.7906 -0.6477
 4994TIP3   OH214945   4.861   4.610   5.207 -0.0810 -0.0439 -0.2967
 4994TIP3    H114946   4.848   4.682   5.146 -1.2749  0.0486  0.0410
 4994TIP3    H214947   4.953   4.617   5.233 -0.1666  1.3394 -0.2842
 4995TIP3   OH214948   1.560   0.904   3.069  0.2332  0.2259 -0.1229
 4995TIP3    H114949   1.642   0.954   3.074 -0.2901  0.9452  2.5214
 4995TIP3    H214950   1.494   0.962   3.105 -1.5533 -0.3154 -2.2982
 4996TIP3   OH214951   6.088   5.667   0.075  0.4075 -0.0556  0.2190
 4996TIP3    H114952   6.014   5.627   0.122 -0.5623  1.5576  0.1252
 4996TIP3    H214953   6.155   5.599   0.075 -1.1859 -1.7055  0.0066
 4997TIP3   OH214954   4.426   5.901   0.645 -0.0044  0.3229 -0.0946
 4997TIP3    H114955   4.457   5.964   0.581  2.8155 -0.1811  0.6162
 4997TIP3    H214956   4.431   5.947   0.729  0.2677 -0.2375  0.2059
 4998TIP3   OH214957   4.814   6.772   4.943 -0.1955  0.0155  0.6253
 4998TIP3    H114958   4.827   6.763   5.037 -0.7197  0.7872  0.7776
 4998TIP3    H214959   4.896   6.810   4.910 -0.1570  0.1038  0.8263
 4999TIP3   OH214960   4.299   2.144   4.297  0.3944  0.3462  0.3249
 4999TIP3    H114961   4.271   2.084   4.228 -1.0696  2.1350 -0.7152
 4999TIP3    H214962   4.360   2.204   4.254  0.9835  0.3039  1.0751
 5000TIP3   OH214963   0.732   1.903   3.271  0.8076 -0.4757  0.6008
 5000TIP3    H114964   0.772   1.983   3.236 -0.4665  0.7407  1.8176
 5000TIP3    H214965   0.761   1.834   3.211  2.8894  0.6824  0.1670
 5001TIP3   OH214966   2.428   0.795   2.885 -0.5535 -0.5435  0.4385
 5001TIP3    H114967   2.417   0.836   2.799 -0.2114 -0.4842  0.4228
 5001TIP3    H214968   2.346   0.747   2.899 -0.8609 -0.0546  0.3511
 5002TIP3   OH214969   3.483   2.567   3.861  0.1262 -0.4580 -0.3771
 5002TIP3    H114970   3.525   2.559   3.947  0.2807 -0.4782 -0.4539
 5002TIP3    H214971   3.556   2.581   3.800  0.1759 -2.0185 -0.7262
 5003TIP3   OH214972   1.615   4.569   3.726  0.6578  0.3656  0.4422
 5003TIP3    H114973   1.569   4.491   3.758  2.8045  0.1783  3.5462
 5003TIP3    H214974   1.697   4.534   3.690  0.6457  1.0469 -0.2577
 5004TIP3   OH214975   1.211   5.424   5.590  0.0356 -0.3261  0.2596
 5004TIP3    H114976   1.237   5.364   5.660 -3.3752 -0.5596  1.4849
 5004TIP3    H214977   1.229   5.376   5.509  0.4936 -1.6304  1.1099
 5005TIP3   OH214978   3.402   4.982   1.645  0.2498 -0.6452 -0.4778
 5005TIP3    H114979   3.414   4.927   1.567  0.6222 -2.8075  1.0101
 5005TIP3    H214980   3.372   4.921   1.713 -0.0588  1.1544  1.0925
 5006TIP3   OH214981   0.690   1.812   2.325  0.1003 -0.3016 -0.0808
 5006TIP3    H114982   0.714   1.720   2.311  0.9736  0.1327 -1.7562
 5006TIP3    H214983   0.774   1.858   2.325 -0.2631  0.4394  1.5680
 5007TIP3   OH214984   7.053   5.062   0.388 -0.5377 -0.1770  0.0729
 5007TIP3    H114985   7.026   5.154   0.390 -1.4533 -0.4123 -0.8529
 5007TIP3    H214986   7.023   5.030   0.303 -1.3640 -1.6694  0.8868
 5008TIP3   OH214987   5.623   3.223   0.798  0.3644 -0.2290  0.2892
 5008TIP3    H114988   5.693   3.200   0.737 -0.4416 -0.8579 -0.4161
 5008TIP3    H214989   5.558   3.154   0.787 -0.7085  0.7415  0.3920
 5009TIP3   OH214990   2.210   5.076   1.784  0.1570  0.2932 -0.5062
 5009TIP3    H114991   2.241   5.074   1.874  0.7866  1.3637 -0.6697
 5009TIP3    H214992   2.158   5.156   1.778 -0.7999 -0.3340 -0.8205
 5010TIP3   OH214993   4.571   1.632   1.926  0.3184  0.1418  0.2295
 5010TIP3    H114994   4.573   1.712   1.874 -0.7392  0.0377  0.0028
 5010TIP3    H214995   4.488   1.590   1.903  0.5458 -0.6867  0.8443
 5011TIP3   OH214996   2.807   4.805   2.868  0.6105  0.2654 -0.4725
 5011TIP3    H114997   2.792   4.898   2.885 -1.0539 -0.1682  0.7681
 5011TIP3    H214998   2.884   4.784   2.921  0.0139  0.6162  0.5886
 5012TIP3   OH214999   2.553   3.602   2.468  0.0853 -0.1294 -0.1128
 5012TIP3    H115000   2.464   3.595   2.434 -0.0064  0.4839 -0.0059
 5012TIP3    H215001   2.596   3.522   2.439 -0.1602  0.1048 -1.1524
 5013TIP3   OH215002   4.555   6.147   1.570 -0.0254 -0.0629  0.0463
 5013TIP3    H115003   4.586   6.212   1.633  0.6850  0.4651 -0.8171
 5013TIP3    H215004   4.605   6.068   1.591  1.6809  0.6529 -1.0413
 5014TIP3   OH215005   0.879   5.424   4.775  0.1476 -0.0281  0.0228
 5014TIP3    H115006   0.872   5.399   4.867  0.0289  0.4567  0.1451
 5014TIP3    H215007   0.967   5.396   4.749  1.4960  2.7144  1.1849
 5015TIP3   OH215008   5.605   6.033   3.345  0.1620 -0.1078 -0.1034
 5015TIP3    H115009   5.548   6.013   3.420  1.3945 -0.6456  0.7208
 5015TIP3    H215010   5.547   6.026   3.269 -0.9895 -0.1327  0.7372
 5016TIP3   OH215011   4.054   6.065   2.582 -0.1044 -0.1138  0.6041
 5016TIP3    H115012   4.102   6.144   2.609  0.4760 -0.1048 -0.3900
 5016TIP3    H215013   4.110   6.025   2.516 -1.5388 -0.0303 -0.7089
 5017TIP3   OH215014   6.031   4.805   0.070 -0.6765  0.0279  0.0235
 5017TIP3    H115015   6.123   4.807   0.043 -0.6731  0.3076  0.0537
 5017TIP3    H215016   6.034   4.803   0.166 -0.6980 -0.4576  0.0211
 5018TIP3   OH215017   5.411   2.972   5.754  0.5305  0.2735 -0.2731
 5018TIP3    H115018   5.391   2.896   5.698  1.0568  0.8074 -1.2167
 5018TIP3    H215019   5.367   3.045   5.711 -0.4562  0.4199  0.9521
 5019TIP3   OH215020   7.102   0.521   3.933 -0.0798 -0.7208  0.0843
 5019TIP3    H115021   7.163   0.477   3.874 -0.5728 -1.2785 -0.0209
 5019TIP3    H215022   7.116   0.614   3.917 -0.9336 -0.8601 -1.6788
 5020TIP3   OH215023   0.491   1.677   3.724  0.3667 -0.3225 -0.3687
 5020TIP3    H115024   0.436   1.709   3.652 -0.5664  1.2186  0.9732
 5020TIP3    H215025   0.440   1.693   3.803  2.1904 -0.0636  0.8280
 5021TIP3   OH215026   1.433   1.285   2.308  0.4376  0.6653  0.0023
 5021TIP3    H115027   1.351   1.250   2.343 -0.7178  1.9283 -1.3165
 5021TIP3    H215028   1.446   1.237   2.226  1.6768 -0.3476  0.7458
 5022TIP3   OH215029   2.455   3.912   4.789 -0.1567  0.2061  0.4505
 5022TIP3    H115030   2.430   3.937   4.878 -1.5155  1.0347 -0.1400
 5022TIP3    H215031   2.518   3.842   4.802 -0.1811  0.4344  2.0773
 5023TIP3   OH215032   4.496   4.395   1.749  0.0980  0.4711 -0.2032
 5023TIP3    H115033   4.407   4.431   1.754 -0.0243  0.2047 -0.4495
 5023TIP3    H215034   4.503   4.362   1.660  0.9442  1.7907 -0.6637
 5024TIP3   OH215035   0.147   1.583   2.277  1.2268  0.2522 -0.0035
 5024TIP3    H115036   0.123   1.503   2.324  1.6900  0.2894  0.3046
 5024TIP3    H215037   0.242   1.588   2.286  1.0542  1.7366  1.4030
 5025TIP3   OH215038   0.100   0.112   0.357 -0.0834  0.5869  0.0476
 5025TIP3    H115039   0.078   0.094   0.266  2.1034 -0.1816 -0.3620
 5025TIP3    H215040   0.166   0.181   0.353 -0.9752  1.5639  1.1629
 5026TIP3   OH215041   6.197   3.940   4.738  1.0914  0.3701  0.2065
 5026TIP3    H115042   6.202   3.855   4.694  0.0541 -0.9240  2.4072
 5026TIP3    H215043   6.161   3.920   4.824  0.9997  3.0489  0.8747
 5027TIP3   OH215044   0.096   4.245   1.072 -0.0378 -0.1301  0.1009
 5027TIP3    H115045   0.130   4.255   0.983  1.5397  0.0688  0.6844
 5027TIP3    H215046   0.113   4.329   1.114 -2.3713  0.3996  0.1311
 5028TIP3   OH215047   4.429   3.923   0.176 -0.0791 -0.5341  0.3803
 5028TIP3    H115048   4.523   3.909   0.163 -0.2039 -1.3172  0.2764
 5028TIP3    H215049   4.388   3.880   0.102 -0.5307 -0.3170  0.5028
 5029TIP3   OH215050   2.156   0.091   3.530  0.1862 -0.3128 -0.5107
 5029TIP3    H115051   2.212   0.165   3.554 -0.4380 -0.3103  1.0498
 5029TIP3    H215052   2.218   0.022   3.507  0.8264 -0.0186  0.2572
 5030TIP3   OH215053   5.676   3.424   2.360  0.4467 -0.0925  0.1894
 5030TIP3    H115054   5.608   3.367   2.324 -0.9940  2.4876 -1.4600
 5030TIP3    H215055   5.757   3.394   2.317 -0.7242  0.8196 -2.9087
 5031TIP3   OH215056   7.085   4.902   4.774  0.4772 -0.0870  0.1047
 5031TIP3    H115057   7.180   4.912   4.764  0.5936 -1.1794 -0.0332
 5031TIP3    H215058   7.058   4.857   4.694 -0.6991  3.0196 -1.4405
 5032TIP3   OH215059   6.451   0.265   1.693 -0.0087  0.3392 -0.2560
 5032TIP3    H115060   6.527   0.286   1.747 -0.2731  1.4603 -0.2952
 5032TIP3    H215061   6.406   0.196   1.741 -1.3722  2.6777  2.1262
 5033TIP3   OH215062   3.493   5.574   2.518 -0.0538 -0.3940  0.0234
 5033TIP3    H115063   3.437   5.607   2.447 -2.0496 -0.0078  1.6794
 5033TIP3    H215064   3.500   5.647   2.578 -0.9478 -1.5995  1.6722
 5034TIP3   OH215065   5.426   2.519   5.823  0.1397 -0.0958 -0.9119
 5034TIP3    H115066   5.451   2.428   5.842  1.5860  0.7905  2.2759
 5034TIP3    H215067   5.335   2.525   5.851  0.5613 -0.2111  0.5771
 5035TIP3   OH215068   4.440   6.382   1.704  0.1628  0.3891 -0.1229
 5035TIP3    H115069   4.387   6.379   1.624  0.6280  0.3846 -0.4322
 5035TIP3    H215070   4.447   6.476   1.724  0.1479  0.3961 -0.1506
 5036TIP3   OH215071   3.686   3.760   5.658  0.2067  0.2959 -0.0232
 5036TIP3    H115072   3.765   3.743   5.607  0.5004 -1.7724  1.0239
 5036TIP3    H215073   3.659   3.674   5.691 -1.0426  1.2781  1.7106
 5037TIP3   OH215074   0.138   1.213   2.760 -0.3857  0.6476 -0.1800
 5037TIP3    H115075   0.108   1.278   2.696 -1.1236  1.2900  0.7888
 5037TIP3    H215076   0.068   1.149   2.763  0.5124 -0.4444 -1.4184
 5038TIP3   OH215077   5.845   2.032   2.696 -0.3709 -0.4888 -0.5039
 5038TIP3    H115078   5.911   1.996   2.755 -0.5838 -1.6562 -0.9458
 5038TIP3    H215079   5.763   2.024   2.745 -0.5625 -1.5540 -0.9766
 5039TIP3   OH215080   5.429   3.671   2.260 -0.3890 -0.0536  0.1783
 5039TIP3    H115081   5.468   3.759   2.259  0.5907 -0.3640  2.7676
 5039TIP3    H215082   5.345   3.681   2.216  0.0820  1.9844 -0.3537
 5040TIP3   OH215083   2.313   4.729   5.725  0.7042 -0.0794 -0.3165
 5040TIP3    H115084   2.326   4.680   5.806  0.4670 -0.1584 -0.3261
 5040TIP3    H215085   2.262   4.670   5.669  1.6837 -0.4134 -0.8847
 5041TIP3   OH215086   4.699   6.128   5.159  0.0367  0.2488  0.5130
 5041TIP3    H115087   4.633   6.150   5.094  0.3748 -0.7391 -0.1838
 5041TIP3    H215088   4.781   6.124   5.110  0.3616 -0.1195  1.0753
 5042TIP3   OH215089   6.549   1.083   2.995  0.4121 -0.1439 -0.4443
 5042TIP3    H115090   6.472   1.078   3.052  0.3194 -0.0472 -0.5609
 5042TIP3    H215091   6.528   1.027   2.921  0.6700 -0.5344 -0.2243
 5043TIP3   OH215092   1.634   2.586   2.586  0.2433 -0.0325  0.1853
 5043TIP3    H115093   1.565   2.638   2.545  1.1240  0.3840 -0.8255
 5043TIP3    H215094   1.707   2.647   2.596  0.8170 -0.7284  0.2830
 5044TIP3   OH215095   6.587   4.733   5.608  0.5989  0.4510  0.5626
 5044TIP3    H115096   6.543   4.661   5.562  2.0422  0.0640 -0.2615
 5044TIP3    H215097   6.551   4.813   5.568  0.7607  0.1416 -0.2109
 5045TIP3   OH215098   0.985   4.466   4.737  0.2587  0.0777  0.4389
 5045TIP3    H115099   0.954   4.556   4.735 -1.5492 -0.4994 -0.3261
 5045TIP3    H215100   0.987   4.443   4.829  3.1564  1.5927  0.8700
 5046TIP3   OH215101   4.342   4.468   5.527 -0.8915 -0.0456 -0.2657
 5046TIP3    H115102   4.253   4.450   5.560  0.4515 -1.1567  3.2078
 5046TIP3    H215103   4.388   4.385   5.536  1.5947  1.4326  2.1496
 5047TIP3   OH215104   0.116   2.462   3.479 -0.2505 -0.2613  0.1022
 5047TIP3    H115105   0.133   2.375   3.514 -1.1048 -0.1261  0.8891
 5047TIP3    H215106   0.034   2.489   3.520  0.2055  1.0811  0.1865
 5048TIP3   OH215107   0.210   3.005   2.589 -0.8262 -0.3006 -0.3652
 5048TIP3    H115108   0.305   3.003   2.575 -0.8371  0.1028 -0.5151
 5048TIP3    H215109   0.199   3.056   2.669 -1.0115  1.2653 -1.3490
 5049TIP3   OH215110   1.186   2.174   4.048  0.7329 -0.1571  0.6089
 5049TIP3    H115111   1.265   2.183   3.995  0.6606 -1.5995  0.2271
 5049TIP3    H215112   1.115   2.197   3.988  0.6369 -1.9545 -0.0265
 5050TIP3   OH215113   6.898   5.088   4.493  0.0789 -0.6944  0.9599
 5050TIP3    H115114   6.945   5.006   4.507  0.6607 -0.1098  2.6186
 5050TIP3    H215115   6.843   5.071   4.416  2.9712 -1.3834 -1.1117
 5051TIP3   OH215116   2.283   5.563   3.535  0.2452  0.0195  0.3838
 5051TIP3    H115117   2.261   5.520   3.617 -0.1155  0.1670  0.3664
 5051TIP3    H215118   2.215   5.630   3.524 -0.4462 -0.8429 -0.6763
 5052TIP3   OH215119   3.118   2.848   4.369  0.3309 -0.0966  0.1135
 5052TIP3    H115120   3.142   2.794   4.293 -1.8757  0.1177 -0.8232
 5052TIP3    H215121   3.043   2.802   4.408 -1.3156  1.9589 -0.4384
 5053TIP3   OH215122   6.381   6.085   2.533  0.7263  0.1436  0.0809
 5053TIP3    H115123   6.429   6.119   2.608  0.9717 -0.3864  0.1731
 5053TIP3    H215124   6.341   6.162   2.492  1.4072  0.5522  0.1789
 5054TIP3   OH215125   0.534   2.929   3.906  0.3689  0.7193  0.8045
 5054TIP3    H115126   0.463   2.931   3.842  0.4286  1.5219  0.7519
 5054TIP3    H215127   0.561   2.837   3.910  0.2062  0.6230 -0.1409
 5055TIP3   OH215128   6.863   1.628   4.677  0.0874  0.7140 -0.4048
 5055TIP3    H115129   6.810   1.550   4.693 -0.4209  0.7186 -1.8274
 5055TIP3    H215130   6.953   1.599   4.686 -0.0969  0.6993  2.0630
 5056TIP3   OH215131   1.911   1.408   5.715 -0.0660 -0.4297  0.6550
 5056TIP3    H115132   1.908   1.312   5.710 -0.2975 -0.5645  2.7608
 5056TIP3    H215133   1.997   1.431   5.679  0.7145 -1.5794  1.7056
 5057TIP3   OH215134   3.020   1.737   4.050  0.5967 -0.1316 -0.1031
 5057TIP3    H115135   3.097   1.787   4.077  0.4964 -0.1582  0.2323
 5057TIP3    H215136   3.051   1.686   3.975  0.6084  0.6643 -0.6493
 5058TIP3   OH215137   4.590   0.168   1.055 -0.5829 -0.3186 -0.3636
 5058TIP3    H115138   4.684   0.159   1.041  0.0603  0.1586  2.8261
 5058TIP3    H215139   4.565   0.087   1.099 -1.3637  0.1574  0.0873
 5059TIP3   OH215140   3.895   4.105   4.616  0.4305  0.1786  0.3671
 5059TIP3    H115141   3.955   4.066   4.553 -0.4769 -1.3777  0.4246
 5059TIP3    H215142   3.944   4.108   4.698  0.5483 -0.8148  0.3453
 5060TIP3   OH215143   6.061   2.268   0.750  0.2470  0.5636 -0.2005
 5060TIP3    H115144   6.146   2.232   0.722 -0.5420 -0.9403 -0.8221
 5060TIP3    H215145   6.001   2.243   0.680 -1.0978 -0.1616  1.1419
 5061TIP3   OH215146   6.980   6.291   4.505  0.5662 -0.1922  0.2281
 5061TIP3    H115147   7.054   6.341   4.471 -0.0260  0.6869  0.1988
 5061TIP3    H215148   6.907   6.353   4.504 -0.1271 -0.9896  0.4315
 5062TIP3   OH215149   0.880   4.538   2.253 -0.3843 -0.0510  0.0919
 5062TIP3    H115150   0.943   4.592   2.301 -1.5689  1.8986 -0.4427
 5062TIP3    H215151   0.915   4.536   2.163  0.8260 -2.1187  0.5365
 5063TIP3   OH215152   2.067   1.245   2.213  0.1509 -0.1976 -0.0478
 5063TIP3    H115153   1.979   1.275   2.191  0.3642 -1.0947 -2.4142
 5063TIP3    H215154   2.092   1.299   2.289 -0.4324  3.8639 -2.4113
 5064TIP3   OH215155   2.610   5.669   2.269  0.8326  0.5232 -0.1872
 5064TIP3    H115156   2.677   5.622   2.319  1.5555  1.5849 -0.0996
 5064TIP3    H215157   2.631   5.650   2.177  0.3364 -0.3405 -0.1246
 5065TIP3   OH215158   2.715   5.587   5.387  0.0034  0.4771 -0.1464
 5065TIP3    H115159   2.672   5.648   5.447  0.4146  0.7588 -0.1345
 5065TIP3    H215160   2.682   5.501   5.414 -0.1272  0.6372  0.2221
 5066TIP3   OH215161   2.056   3.554   1.263 -0.0548 -0.5718 -0.0843
 5066TIP3    H115162   2.047   3.604   1.182  2.1929  1.6397  0.8994
 5066TIP3    H215163   2.148   3.526   1.264 -0.0573 -0.6494  1.6240
 5067TIP3   OH215164   2.629   6.500   3.345 -0.1983 -0.1728 -0.0042
 5067TIP3    H115165   2.665   6.420   3.384 -2.1759 -1.2283 -0.2361
 5067TIP3    H215166   2.601   6.474   3.258 -0.1791  0.9791 -0.3683
 5068TIP3   OH215167   6.668   3.192   5.163  0.1941 -0.1708 -0.4199
 5068TIP3    H115168   6.713   3.277   5.167  0.2156 -0.1543 -0.9722
 5068TIP3    H215169   6.667   3.162   5.254 -0.2492  0.6498 -0.1358
 5069TIP3   OH215170   2.688   1.315   5.723 -0.0781 -0.1203 -0.1029
 5069TIP3    H115171   2.719   1.283   5.807 -0.5712  0.5881  0.3610
 5069TIP3    H215172   2.724   1.403   5.715 -1.3591  0.4431  0.1262
 5070TIP3   OH215173   0.619   0.768   4.867 -0.1478 -0.4432 -0.5780
 5070TIP3    H115174   0.628   0.709   4.942  1.0564 -3.4377 -2.8797
 5070TIP3    H215175   0.630   0.856   4.904 -0.5915 -1.6858  2.8455
 5071TIP3   OH215176   0.640   1.219   3.628 -0.0079  0.0011  0.4876
 5071TIP3    H115177   0.564   1.265   3.664  0.3833  1.5423 -0.5673
 5071TIP3    H215178   0.602   1.150   3.573 -0.6826  1.1737 -0.5629
 5072TIP3   OH215179   2.161   3.596   1.535 -0.5018 -0.0629 -0.0365
 5072TIP3    H115180   2.138   3.618   1.445  2.4206  2.9637 -0.2340
 5072TIP3    H215181   2.086   3.625   1.586 -1.2489  0.3468 -1.3211
 5073TIP3   OH215182   5.522   0.277   2.734 -0.1346 -0.0130  0.5361
 5073TIP3    H115183   5.465   0.237   2.800  0.4605 -0.9191  0.5198
 5073TIP3    H215184   5.586   0.327   2.784  1.1219 -1.7491  0.7681
 5074TIP3   OH215185   1.804   5.893   5.140  0.1181 -0.2667  0.3302
 5074TIP3    H115186   1.801   5.988   5.130 -1.2149 -0.0872  1.9725
 5074TIP3    H215187   1.849   5.879   5.223 -0.9064 -0.9836  0.7875
 5075TIP3   OH215188   1.652   5.055   5.336 -0.3276  0.2258  0.1135
 5075TIP3    H115189   1.680   5.074   5.247 -1.1160  0.8533 -0.0160
 5075TIP3    H215190   1.702   4.978   5.362  1.3815  1.2141 -0.1477
 5076TIP3   OH215191   2.226   4.145   2.595 -0.3371 -0.4329 -0.4958
 5076TIP3    H115192   2.215   4.212   2.663 -0.6204  0.5128 -1.4484
 5076TIP3    H215193   2.311   4.106   2.614 -0.4217 -0.2061  0.4137
 5077TIP3   OH215194   5.040   3.715   0.644 -0.2179  0.1447 -0.2980
 5077TIP3    H115195   5.127   3.681   0.666 -0.3670 -0.4292 -0.5953
 5077TIP3    H215196   5.050   3.810   0.648  0.0102  0.0870  1.3220
 5078TIP3   OH215197   5.012   0.423   2.310 -0.5847  0.2417  0.4804
 5078TIP3    H115198   5.103   0.395   2.319 -0.6086  0.2891  0.9141
 5078TIP3    H215199   4.978   0.372   2.237 -0.0569  0.6173 -0.0342
 5079TIP3   OH215200   2.118   2.187   2.426  0.3403  0.0570 -1.2744
 5079TIP3    H115201   2.194   2.239   2.399 -0.2789  0.3972 -2.4684
 5079TIP3    H215202   2.088   2.146   2.345  0.7338 -2.1269 -0.3950
 5080TIP3   OH215203   1.577   2.186   5.048  0.1524 -0.8174 -0.1333
 5080TIP3    H115204   1.509   2.225   4.993  1.7973 -0.1299 -1.7823
 5080TIP3    H215205   1.528   2.137   5.114 -1.9436 -0.5993 -1.4078
 5081TIP3   OH215206   5.158   6.034   3.344  0.1158  0.6994  0.0414
 5081TIP3    H115207   5.119   5.976   3.410  0.5644  0.2726 -0.0652
 5081TIP3    H215208   5.088   6.097   3.323 -0.1531  0.6080  0.6441
 5082TIP3   OH215209   3.419   0.827   5.596  0.0359 -0.5241 -0.0019
 5082TIP3    H115210   3.335   0.781   5.603  0.7690 -1.7639  1.0078
 5082TIP3    H215211   3.396   0.920   5.605 -1.3337 -0.7596 -0.7933
 5083TIP3   OH215212   1.621   2.607   4.169  0.1048  0.2353 -0.9103
 5083TIP3    H115213   1.670   2.620   4.251 -0.3002 -1.2874 -0.3910
 5083TIP3    H215214   1.678   2.644   4.102  1.4685 -0.4570 -0.1925
 5084TIP3   OH215215   6.608   3.884   5.742  0.1765  0.0630  0.1889
 5084TIP3    H115216   6.576   3.940   5.813 -1.2949 -1.4523  0.8105
 5084TIP3    H215217   6.529   3.841   5.709  0.7402  1.0669 -2.7449
 5085TIP3   OH215218   6.524   3.010   5.761  0.2176  0.4146 -0.0667
 5085TIP3    H115219   6.542   3.032   5.852 -0.1233 -0.5736  0.2531
 5085TIP3    H215220   6.431   3.030   5.750 -0.1368 -0.9310  0.2740
 5086TIP3   OH215221   0.508   4.371   3.648  0.6924 -0.3471 -0.2458
 5086TIP3    H115222   0.573   4.436   3.676  0.3081 -0.1179  0.1316
 5086TIP3    H215223   0.512   4.372   3.552 -0.1112  1.0718 -0.2953
 5087TIP3   OH215224   2.043   0.529   5.514  0.0660  0.3877  0.0239
 5087TIP3    H115225   2.024   0.489   5.429 -1.6314  2.0082 -0.4246
 5087TIP3    H215226   2.138   0.531   5.518  0.2238  1.1241 -2.2888
 5088TIP3   OH215227   2.337   3.063   3.729 -0.6351  0.2945  0.0142
 5088TIP3    H115228   2.335   3.099   3.818 -0.7220 -0.4235  0.3123
 5088TIP3    H215229   2.430   3.045   3.713 -0.6089  0.5054 -0.0799
 5089TIP3   OH215230   1.916   3.868   0.466  0.3396  0.4443  0.2624
 5089TIP3    H115231   1.876   3.842   0.383 -0.3223  0.0980  0.6772
 5089TIP3    H215232   1.958   3.952   0.448  2.1223 -0.6561 -0.9958
 5090TIP3   OH215233   0.275   1.346   0.690  0.1028 -0.0220 -0.2125
 5090TIP3    H115234   0.232   1.427   0.659  2.2326  1.0285 -0.6049
 5090TIP3    H215235   0.318   1.372   0.772  0.2360 -0.9606  0.0216
 5091TIP3   OH215236   2.273   0.477   4.905  0.7302 -0.1472 -0.3179
 5091TIP3    H115237   2.274   0.437   4.818 -0.7251 -0.1369 -0.3647
 5091TIP3    H215238   2.354   0.528   4.909  1.2140 -0.8091 -1.3476
 5092TIP3   OH215239   1.827   0.672   5.567 -0.1123 -0.4168 -0.2677
 5092TIP3    H115240   1.903   0.623   5.534 -0.7891 -0.7618 -1.3800
 5092TIP3    H215241   1.819   0.646   5.659 -0.5588 -2.5811 -0.8695
 5093TIP3   OH215242   4.371   0.561   1.004  0.2294 -0.1282 -0.4899
 5093TIP3    H115243   4.457   0.540   1.039  0.2263  0.5943 -0.0226
 5093TIP3    H215244   4.334   0.477   0.977  1.7382 -0.2771 -2.2695
 5094TIP3   OH215245   4.687   4.307   5.725  0.1977  0.4953  0.1437
 5094TIP3    H115246   4.720   4.233   5.776 -1.6070  0.6060  1.5802
 5094TIP3    H215247   4.603   4.276   5.691 -1.4031  2.3376  2.1251
 5095TIP3   OH215248   4.872   0.421   3.367 -0.2922  0.3171  0.0111
 5095TIP3    H115249   4.946   0.476   3.392 -0.6967  1.7010 -1.6241
 5095TIP3    H215250   4.827   0.403   3.449  1.1600  0.4708  0.8810
 5096TIP3   OH215251   3.159   5.813   4.696 -0.0141 -0.0456 -0.2882
 5096TIP3    H115252   3.078   5.862   4.707 -0.9064 -1.5190 -0.0107
 5096TIP3    H215253   3.131   5.722   4.684  1.5279 -0.3711 -1.8050
 5097TIP3   OH215254   1.773   5.291   4.507 -0.1975 -0.6489  0.1989
 5097TIP3    H115255   1.757   5.297   4.601  0.3954  1.8564  0.1916
 5097TIP3    H215256   1.810   5.203   4.495  1.4978 -0.3411  2.5885
 5098TIP3   OH215257   1.495   1.261   2.027 -0.7722  0.0640 -0.2605
 5098TIP3    H115258   1.531   1.178   1.997 -1.5899  0.5843 -2.9430
 5098TIP3    H215259   1.550   1.328   1.986  0.4257  0.9739  2.5443
 5099TIP3   OH215260   3.603   2.389   5.132 -0.5323 -0.5777  0.3347
 5099TIP3    H115261   3.679   2.447   5.120 -1.1918  0.4774  1.0509
 5099TIP3    H215262   3.586   2.391   5.226 -1.4921 -0.7447  0.1730
 5100TIP3   OH215263   5.306   1.053   2.670  0.1827 -0.1441 -0.1712
 5100TIP3    H115264   5.292   0.997   2.594 -0.3448 -0.8806  0.4598
 5100TIP3    H215265   5.319   0.993   2.743 -1.5766  0.5068  0.7382
 5101TIP3   OH215266   5.182   3.562   2.128 -0.0884  0.1999 -0.2633
 5101TIP3    H115267   5.150   3.651   2.109  0.5618  0.1667 -1.6819
 5101TIP3    H215268   5.115   3.524   2.184 -1.2470  1.0022 -1.0543
 5102TIP3   OH215269   5.508   1.205   4.709 -0.0870  0.5882 -0.0731
 5102TIP3    H115270   5.446   1.140   4.741  0.7840 -0.6193 -0.7707
 5102TIP3    H215271   5.550   1.163   4.634  1.5299  1.4170  0.3398
 5103TIP3   OH215272   5.856   5.080   2.379  0.7008 -0.3843 -0.3420
 5103TIP3    H115273   5.854   5.034   2.295  1.8226 -0.7974 -0.1640
 5103TIP3    H215274   5.877   5.171   2.356 -1.1720  0.0003 -0.6646
 5104TIP3   OH215275   4.346   1.163   4.375 -0.2811  0.0606  0.5512
 5104TIP3    H115276   4.284   1.127   4.438 -0.7975 -0.2386 -0.1175
 5104TIP3    H215277   4.298   1.165   4.292  0.4193  0.3548  0.1410
 5105TIP3   OH215278   6.049   5.442   4.052  0.1736  0.1624  0.2792
 5105TIP3    H115279   6.064   5.355   4.087  0.7813  0.1728  0.0482
 5105TIP3    H215280   6.034   5.497   4.129  3.0118  0.4930  0.6848
 5106TIP3   OH215281   3.527   2.680   5.518 -0.1814  0.5109  0.4538
 5106TIP3    H115282   3.567   2.681   5.605  0.0555  1.4520  0.3509
 5106TIP3    H215283   3.595   2.714   5.461  0.0338 -1.0829 -0.2913
 5107TIP3   OH215284   3.906   5.325   3.682 -0.3398 -0.5636  0.2258
 5107TIP3    H115285   3.975   5.365   3.628 -0.8067  1.2595  0.8935
 5107TIP3    H215286   3.928   5.232   3.685  1.6216 -0.1584 -0.2684
 5108TIP3   OH215287   1.478   2.034   2.130  1.4899  0.1590 -0.2631
 5108TIP3    H115288   1.508   1.982   2.055  2.3369  1.2498 -0.7086
 5108TIP3    H215289   1.540   2.013   2.200  0.5867 -1.0056  0.2239
 5109TIP3   OH215290   3.336   2.768   3.112 -0.1024  0.0505 -0.2751
 5109TIP3    H115291   3.339   2.681   3.071 -1.0326  0.2066 -0.7026
 5109TIP3    H215292   3.245   2.777   3.140  0.5966 -0.2634  2.3334
 5110TIP3   OH215293   5.100   1.713   4.832  0.0223  0.6031 -0.6988
 5110TIP3    H115294   5.065   1.698   4.919  0.1431 -0.4618 -0.8201
 5110TIP3    H215295   5.129   1.804   4.833  0.0707  0.5886  0.3865
 5111TIP3   OH215296   1.740   0.605   2.562 -0.2343 -0.3403  0.7388
 5111TIP3    H115297   1.824   0.645   2.537 -0.8133  0.2025 -0.4262
 5111TIP3    H215298   1.764   0.533   2.620  1.4341 -2.9394 -2.7895
 5112TIP3   OH215299   3.494   2.901   0.629  0.4681  0.3735  0.1016
 5112TIP3    H115300   3.402   2.918   0.647 -0.0115 -2.7578  1.2695
 5112TIP3    H215301   3.494   2.854   0.545  0.8077 -0.7503  0.7015
 5113TIP3   OH215302   4.927   1.694   0.031  0.3150  0.0689  0.4459
 5113TIP3    H115303   4.861   1.628   0.052  0.9132 -1.3649 -1.7884
 5113TIP3    H215304   4.997   1.678   0.093 -0.1405 -0.4834  0.8299
 5114TIP3   OH215305   0.411   4.785   1.782 -0.1981 -0.2907  0.2891
 5114TIP3    H115306   0.487   4.833   1.747  0.2579 -0.9062  0.4204
 5114TIP3    H215307   0.371   4.746   1.704 -0.7633  0.5549  0.1401
 5115TIP3   OH215308   2.090   1.978   1.861 -0.2211 -0.1622  0.3504
 5115TIP3    H115309   2.095   1.900   1.805 -0.9455 -0.2273  0.3710
 5115TIP3    H215310   2.108   1.945   1.949  0.0754 -0.1994  0.2791
 5116TIP3   OH215311   3.369   6.546   2.428 -0.4977 -0.0231 -0.0212
 5116TIP3    H115312   3.301   6.515   2.487  0.6744 -2.2137  0.2791
 5116TIP3    H215313   3.449   6.545   2.481 -0.0943  2.0390 -0.4929
 5117TIP3   OH215314   0.173   4.559   0.160  0.2724 -0.2335 -0.5733
 5117TIP3    H115315   0.078   4.547   0.163 -0.0351  1.6992 -1.2648
 5117TIP3    H215316   0.200   4.527   0.074  0.1416 -0.2024 -0.6254
 5118TIP3   OH215317   0.091   5.151   3.487  0.0791  0.2517  0.8275
 5118TIP3    H115318   0.032   5.226   3.484 -0.4545 -0.1606 -2.1924
 5118TIP3    H215319   0.033   5.075   3.490  0.4254 -0.1089 -0.6579
 5119TIP3   OH215320   4.505   2.232   2.297  0.2280  0.3787 -0.4981
 5119TIP3    H115321   4.477   2.160   2.241  1.7206 -1.2642  0.7408
 5119TIP3    H215322   4.513   2.193   2.384  2.5786  1.6114 -0.0780
 5120TIP3   OH215323   6.233   6.536   5.020 -0.2804 -0.3749 -0.1013
 5120TIP3    H115324   6.222   6.589   5.098  0.8558 -1.8554  1.1194
 5120TIP3    H215325   6.323   6.553   4.992 -1.4634  2.3259 -2.8529
 5121TIP3   OH215326   3.371   6.661   5.189  0.5218  0.2307  0.6113
 5121TIP3    H115327   3.399   6.748   5.163 -0.8664  0.4494 -0.2459
 5121TIP3    H215328   3.431   6.601   5.144 -0.9788  0.6376 -2.1424
 5122TIP3   OH215329   1.047   4.767   3.279  0.0571  0.2856  0.4902
 5122TIP3    H115330   1.116   4.789   3.217  0.8180  1.4713  1.7122
 5122TIP3    H215331   1.033   4.673   3.267  0.3141  0.4379 -1.3116
 5123TIP3   OH215332   3.377   5.929   5.362  0.5204 -0.4969  0.0962
 5123TIP3    H115333   3.452   5.894   5.411  1.1229 -0.8760 -1.0577
 5123TIP3    H215334   3.327   5.979   5.427  1.8198 -0.1591  0.8756
 5124TIP3   OH215335   5.229   4.473   4.917 -0.4010 -0.2265 -0.0192
 5124TIP3    H115336   5.281   4.449   4.840  0.0813  0.5592  0.0481
 5124TIP3    H215337   5.177   4.548   4.888 -0.7212 -0.3555  0.2212
 5125TIP3   OH215338   3.585   4.944   0.926 -0.1097  0.6309 -0.2904
 5125TIP3    H115339   3.672   4.980   0.942  0.1108 -0.5616  1.4621
 5125TIP3    H215340   3.528   5.020   0.921  0.8651  1.3721 -0.4387
 5126TIP3   OH215341   5.520   3.155   3.910  0.1743  0.9910  0.4119
 5126TIP3    H115342   5.431   3.124   3.923 -0.3200  1.9891 -0.5057
 5126TIP3    H215343   5.547   3.117   3.826  0.4374  1.0873  0.4512
 5127TIP3   OH215344   1.693   2.672   0.522  0.2135  0.1090  0.5447
 5127TIP3    H115345   1.678   2.646   0.612  0.3581 -0.6602  0.3562
 5127TIP3    H215346   1.659   2.761   0.516 -2.0466 -0.6923  0.7355
 5128TIP3   OH215347   6.053   2.025   4.478  0.1443 -0.8685  0.4630
 5128TIP3    H115348   6.101   1.958   4.526 -0.1131 -1.6616 -0.3665
 5128TIP3    H215349   5.992   1.976   4.422  0.2204  0.0311 -0.4455
 5129TIP3   OH215350   4.634   1.032   4.305 -0.5762 -0.5995  0.5701
 5129TIP3    H115351   4.592   0.958   4.348 -1.6064  0.2392  1.0554
 5129TIP3    H215352   4.562   1.091   4.282  0.2302  0.3569  0.4135
 5130TIP3   OH215353   4.956   2.139   3.648  0.2827 -0.3652 -0.1212
 5130TIP3    H115354   4.911   2.212   3.605 -1.8104 -1.1958  0.5370
 5130TIP3    H215355   4.997   2.090   3.577  1.4430  1.2020 -0.6064
 5131TIP3   OH215356   3.534   2.883   1.761 -0.0148  0.1799  0.4731
 5131TIP3    H115357   3.620   2.921   1.781 -0.5649  1.6272  0.2360
 5131TIP3    H215358   3.491   2.877   1.847  0.6297 -1.4419  0.7250
 5132TIP3   OH215359   5.121   2.758   1.246  0.3348 -0.1336  0.2701
 5132TIP3    H115360   5.080   2.814   1.180  2.3972  1.1114 -0.0343
 5132TIP3    H215361   5.097   2.798   1.330  1.6585  1.1626  0.0602
 5133TIP3   OH215362   1.514   6.424   2.289 -0.2409 -0.6368  0.0384
 5133TIP3    H115363   1.433   6.464   2.257 -0.3759 -1.4835 -0.7141
 5133TIP3    H215364   1.575   6.497   2.298 -1.7132  0.4132  2.8108
 5134TIP3   OH215365   5.366   0.405   3.542  0.0128  0.4998  0.4777
 5134TIP3    H115366   5.320   0.485   3.569 -0.8183  0.3279 -0.4119
 5134TIP3    H215367   5.317   0.372   3.467  1.1758 -0.0838 -0.0543
 5135TIP3   OH215368   6.120   6.033   5.550 -0.1189  0.2228  0.2616
 5135TIP3    H115369   6.062   6.067   5.482 -0.0442  1.0505  0.5957
 5135TIP3    H215370   6.206   6.068   5.528 -0.0635  0.3605  0.6834
 5136TIP3   OH215371   2.931   1.121   2.442  0.3798 -0.4042 -0.3134
 5136TIP3    H115372   2.968   1.033   2.453  0.2538 -0.8525 -2.7596
 5136TIP3    H215373   2.889   1.118   2.356  0.3408  2.0525 -0.4442
 5137TIP3   OH215374   2.669   3.645   2.209  0.4906 -0.0770 -0.3978
 5137TIP3    H115375   2.740   3.702   2.180  0.5255 -0.0025 -0.1618
 5137TIP3    H215376   2.652   3.671   2.299 -0.3001  0.3782 -0.6692
 5138TIP3   OH215377   5.318   3.559   2.880  0.4725  0.2987  0.6583
 5138TIP3    H115378   5.283   3.587   2.795  0.9354  2.0260  0.9907
 5138TIP3    H215379   5.299   3.466   2.885 -3.1086  0.8925  0.3887
 5139TIP3   OH215380   1.143   2.437   5.497 -0.3526 -0.6661  0.1621
 5139TIP3    H115381   1.222   2.492   5.501  0.4516 -1.8345  0.7112
 5139TIP3    H215382   1.120   2.421   5.588 -2.4624  1.3078  0.0807
 5140TIP3   OH215383   4.031   6.544   1.837  0.4787  0.0371  0.3063
 5140TIP3    H115384   3.986   6.472   1.882 -0.6065  0.0039 -0.7675
 5140TIP3    H215385   4.058   6.507   1.754  0.6683  0.6383  0.0930
 5141TIP3   OH215386   0.175   1.196   3.718  0.0342 -0.4956 -0.1883
 5141TIP3    H115387   0.137   1.230   3.799  1.8527 -0.2412  0.6112
 5141TIP3    H215388   0.176   1.101   3.730  1.0046 -0.4237  0.4651
 5142TIP3   OH215389   0.411   3.890   2.492  0.1363 -0.1866  0.5681
 5142TIP3    H115390   0.365   3.972   2.513  0.1274 -0.1865  0.5492
 5142TIP3    H215391   0.500   3.904   2.523  0.2154 -0.0516  0.2854
 5143TIP3   OH215392   1.374   2.086   4.793  0.1523 -0.8155  0.2976
 5143TIP3    H115393   1.347   2.003   4.754  1.7036 -1.0273 -0.3751
 5143TIP3    H215394   1.400   2.141   4.719 -1.8716  0.7249  0.6203
 5144TIP3   OH215395   2.167   5.452   0.115  0.3467  0.1393  0.4531
 5144TIP3    H115396   2.111   5.521   0.149  0.8703  0.7103  0.1781
 5144TIP3    H215397   2.110   5.375   0.109 -0.0921  0.3884  1.2988
 5145TIP3   OH215398   0.041   6.624   5.091 -0.0606 -0.2840 -0.6375
 5145TIP3    H115399  -0.030   6.602   5.031 -0.6943 -0.2817  0.1036
 5145TIP3    H215400   0.031   6.563   5.164  1.2829 -0.9238 -0.9601
 5146TIP3   OH215401   5.866   6.204   4.418 -0.2241 -0.1602 -0.4910
 5146TIP3    H115402   5.884   6.190   4.510 -0.5720  1.0692 -0.2162
 5146TIP3    H215403   5.886   6.121   4.376 -0.8468 -0.9802  0.8053
 5147TIP3   OH215404   3.943   6.056   1.892  0.3270  0.0574 -0.5411
 5147TIP3    H115405   4.033   6.069   1.862  0.8530  2.3175  1.6437
 5147TIP3    H215406   3.952   6.017   1.979 -0.8834 -1.0877 -0.9016
 5148TIP3   OH215407   4.182   3.124   5.363  0.1174  0.3280  0.4966
 5148TIP3    H115408   4.222   3.037   5.358  0.1686  0.4391 -1.5193
 5148TIP3    H215409   4.256   3.185   5.354 -0.1671  0.5574 -0.3084
 5149TIP3   OH215410   5.810   0.667   3.469  0.0038  0.1977 -0.3068
 5149TIP3    H115411   5.773   0.683   3.556  1.1990 -1.1839  0.5008
 5149TIP3    H215412   5.738   0.628   3.419 -0.0508 -1.2891  0.8512
 5150TIP3   OH215413   5.596   3.791   4.011 -0.0021  0.5187 -0.5183
 5150TIP3    H115414   5.520   3.754   3.965 -1.2955  0.4205  1.5800
 5150TIP3    H215415   5.664   3.725   4.001 -1.1227 -0.7570  0.0039
 5151TIP3   OH215416   4.132   3.219   2.193 -0.0756  0.5060  0.2211
 5151TIP3    H115417   4.173   3.305   2.186  1.6873 -0.3063  0.1048
 5151TIP3    H215418   4.205   3.157   2.188 -1.4867 -1.1266 -2.1490
 5152TIP3   OH215419   2.039   4.226   1.579 -0.1878 -0.2241  0.1653
 5152TIP3    H115420   1.990   4.223   1.496  0.1535 -2.2410 -0.0268
 5152TIP3    H215421   2.023   4.140   1.618 -0.7252  0.8403  2.4575
 5153TIP3   OH215422   1.550   5.152   1.359  0.7466  0.2327  0.4198
 5153TIP3    H115423   1.557   5.080   1.422 -1.9051 -0.3900  0.1195
 5153TIP3    H215424   1.530   5.228   1.412 -0.4323 -0.0814  0.4457
 5154TIP3   OH215425   1.606   3.434   4.392 -0.3672  0.6293 -0.2258
 5154TIP3    H115426   1.549   3.377   4.444 -0.6762 -0.6800 -1.9334
 5154TIP3    H215427   1.582   3.523   4.420 -0.8388  0.0018  1.5081
 5155TIP3   OH215428   6.264   0.475   4.625 -0.1840  0.5693 -0.8097
 5155TIP3    H115429   6.261   0.393   4.674 -0.5073  0.6258 -0.7300
 5155TIP3    H215430   6.189   0.525   4.658  1.1071  1.7192  0.5857
 5156TIP3   OH215431   5.388   4.832   2.644  0.3160 -0.5168  0.3768
 5156TIP3    H115432   5.305   4.879   2.633  1.1502  1.2482  1.2624
 5156TIP3    H215433   5.365   4.753   2.691 -0.6775  0.7324  2.0807
 5157TIP3   OH215434   4.478   1.300   4.782  0.0961  0.1337 -0.1623
 5157TIP3    H115435   4.554   1.254   4.819  0.0576  1.3752  1.5783
 5157TIP3    H215436   4.490   1.391   4.809 -1.9278  0.3891  0.0302
 5158TIP3   OH215437   1.619   1.912   3.860  0.3445 -0.7889  0.0846
 5158TIP3    H115438   1.525   1.914   3.842  0.5991  1.2390 -1.3131
 5158TIP3    H215439   1.652   1.841   3.806 -0.2362 -0.8165 -0.2424
 5159TIP3   OH215440   2.843   0.072  -0.002 -0.0700  0.1838 -0.8172
 5159TIP3    H115441   2.778   0.007   0.022  1.9927 -1.4474  0.7255
 5159TIP3    H215442   2.801   0.156   0.017 -1.4291 -0.8222  0.9448
 5160TIP3   OH215443   4.669   2.239   4.692 -0.0327 -0.1411  0.3614
 5160TIP3    H115444   4.764   2.241   4.681 -0.1806  2.0765 -0.9855
 5160TIP3    H215445   4.651   2.152   4.729  2.4793 -0.6640  0.5016
 5161TIP3   OH215446   2.657   0.319   4.495 -0.6730  0.3945 -0.0474
 5161TIP3    H115447   2.741   0.318   4.543 -0.1522 -0.1679 -0.9532
 5161TIP3    H215448   2.681   0.346   4.407 -1.6178  1.3298 -0.0393
 5162TIP3   OH215449   5.306   5.859   5.168 -0.5980 -0.2526  0.0954
 5162TIP3    H115450   5.211   5.859   5.176 -0.6542  0.7595 -0.4435
 5162TIP3    H215451   5.336   5.796   5.234 -1.6563 -0.9325 -0.0506
 5163TIP3   OH215452   4.105   3.750   2.931  0.7017 -0.4335  0.1263
 5163TIP3    H115453   4.044   3.676   2.926 -0.0743  0.1466  0.7822
 5163TIP3    H215454   4.183   3.713   2.973  0.3340 -0.8950  0.4190
 5164TIP3   OH215455   5.112   0.152   3.893 -0.3838  0.0210  0.0686
 5164TIP3    H115456   5.035   0.152   3.950  0.0550  1.2656  0.6980
 5164TIP3    H215457   5.137   0.245   3.886  0.0620 -0.1848 -1.4951
 5165TIP3   OH215458   3.544   3.190   2.882  0.2013 -0.1631  0.0461
 5165TIP3    H115459   3.464   3.239   2.902  0.6405  0.4182  0.4236
 5165TIP3    H215460   3.536   3.109   2.933  0.3989  0.4308  1.0340
 5166TIP3   OH215461   0.934   1.521   1.741  0.1025 -0.0929 -0.7585
 5166TIP3    H115462   0.876   1.492   1.670  1.1139 -2.1805 -0.8026
 5166TIP3    H215463   0.921   1.455   1.810 -0.0073  1.2657  0.5599
 5167TIP3   OH215464   0.572   5.155   0.930  0.2171 -0.0480 -0.2871
 5167TIP3    H115465   0.574   5.062   0.911 -0.9388 -0.1602  0.0735
 5167TIP3    H215466   0.641   5.167   0.995  0.2547 -0.6835 -0.2010
 5168TIP3   OH215467   1.038   0.130   5.702  0.2244 -0.3341  0.2284
 5168TIP3    H115468   1.101   0.192   5.738 -1.6579  0.2922  2.6791
 5168TIP3    H215469   0.953   0.158   5.737 -1.3340 -1.6787 -2.1831
 5169TIP3   OH215470   0.756   5.701   4.814  0.3465  0.4347 -0.4318
 5169TIP3    H115471   0.811   5.632   4.850 -0.2961  0.4116  0.5545
 5169TIP3    H215472   0.808   5.740   4.744  1.4917  0.2307  0.2826
 5170TIP3   OH215473   3.968   2.637   1.052  0.1221  0.1625 -0.0735
 5170TIP3    H115474   4.016   2.699   0.997  0.4380 -0.0008  0.0164
 5170TIP3    H215475   3.903   2.598   0.993 -0.2046  0.7132 -0.0856
 5171TIP3   OH215476   2.223   4.563   2.968 -0.2332  0.2799  0.6438
 5171TIP3    H115477   2.151   4.611   3.009 -1.6360 -1.1919  0.0400
 5171TIP3    H215478   2.265   4.626   2.910 -0.9915  1.1927  1.0717
 5172TIP3   OH215479   1.928   2.482   2.791 -0.2693 -0.5090  0.0677
 5172TIP3    H115480   1.909   2.556   2.734 -2.1230 -1.4371 -0.6083
 5172TIP3    H215481   1.995   2.432   2.745 -1.1398 -0.8005 -0.9047
 5173TIP3   OH215482   1.939   1.033   0.064  0.9548 -0.1673 -0.1006
 5173TIP3    H115483   2.022   0.999   0.099 -0.3897 -1.5261  1.9825
 5173TIP3    H215484   1.932   1.120   0.102  1.1060 -0.3301  0.3139
 5174TIP3   OH215485   2.034   2.542   4.393 -0.8871  0.2945 -0.8923
 5174TIP3    H115486   2.055   2.453   4.365 -2.1864 -1.0233  1.8860
 5174TIP3    H215487   2.115   2.574   4.433 -0.8980 -0.4069 -0.2635
 5175TIP3   OH215488   0.648   3.846   5.606 -0.1069  0.1890 -0.4395
 5175TIP3    H115489   0.585   3.879   5.542 -0.9648  0.8794  0.7051
 5175TIP3    H215490   0.631   3.751   5.609 -2.2162  0.5333  0.9279
 5176TIP3   OH215491   5.082   0.650   3.046  0.1153  0.5868  0.1662
 5176TIP3    H115492   5.158   0.644   2.988  0.6622  2.7608  0.5787
 5176TIP3    H215493   5.115   0.628   3.133 -0.6053 -2.1851 -0.1378
 5177TIP3   OH215494   1.061   2.273   1.778  0.0153  0.5399  0.1728
 5177TIP3    H115495   1.106   2.331   1.717 -1.3859  1.1055 -0.3670
 5177TIP3    H215496   1.097   2.186   1.760 -0.2986  0.7038 -1.4257
 5178TIP3   OH215497   0.522   1.610   3.363  0.7987 -0.1241  0.3604
 5178TIP3    H115498   0.479   1.640   3.443 -1.3305 -1.6927 -0.1065
 5178TIP3    H215499   0.506   1.679   3.299 -2.6069 -1.3293 -0.2599
 5179TIP3   OH215500   4.136   6.357   1.140  0.4479 -0.4056 -0.0654
 5179TIP3    H115501   4.195   6.323   1.073  0.3088  0.1059 -0.4490
 5179TIP3    H215502   4.194   6.378   1.214  0.9489  1.2588 -0.8809
 5180TIP3   OH215503   5.073   3.161   5.035  0.1573 -0.2392 -0.1305
 5180TIP3    H115504   5.028   3.136   4.954 -0.3491 -0.4311  0.2110
 5180TIP3    H215505   5.041   3.249   5.054  2.4376  1.0434 -1.7002
 5181TIP3   OH215506   5.414   4.111   5.066 -0.0268  0.1639  0.5302
 5181TIP3    H115507   5.507   4.118   5.044  0.2099  0.0154  1.4271
 5181TIP3    H215508   5.384   4.202   5.071  0.0336  0.2093  0.0960
 5182TIP3   OH215509   6.682   5.128   1.914  1.3375 -0.6125 -0.1400
 5182TIP3    H115510   6.655   5.037   1.913  0.6400 -0.4448  1.2736
 5182TIP3    H215511   6.723   5.140   2.000  1.9461  0.2623 -0.5313
 5183TIP3   OH215512   4.196   0.779   1.611 -0.1941  0.0780  0.3321
 5183TIP3    H115513   4.237   0.768   1.525  1.4760  0.9399  0.9894
 5183TIP3    H215514   4.190   0.873   1.623 -1.2993 -0.0312  0.7915
 5184TIP3   OH215515   5.909   3.608   4.938 -0.7827 -0.1536  0.3753
 5184TIP3    H115516   5.829   3.586   4.890 -0.6514  0.5291 -0.1673
 5184TIP3    H215517   5.959   3.526   4.940 -1.0668 -0.3411 -0.1070
 5185TIP3   OH215518   0.916   2.556   0.608 -0.4530 -0.0413 -0.5829
 5185TIP3    H115519   0.984   2.622   0.601 -0.6424  0.3879  1.1788
 5185TIP3    H215520   0.904   2.523   0.518  0.3752  1.5503 -1.3018
 5186TIP3   OH215521   6.664   6.262   2.244  0.3966  0.4518 -0.3759
 5186TIP3    H115522   6.664   6.219   2.330  1.1128 -0.0497 -0.6246
 5186TIP3    H215523   6.574   6.295   2.235  0.1853  0.1147  0.3670
 5187TIP3   OH215524   4.819   1.848   4.306 -0.5968  0.2615  0.0043
 5187TIP3    H115525   4.767   1.886   4.235  0.9164 -0.6320 -1.6607
 5187TIP3    H215526   4.757   1.794   4.355 -1.2257 -1.1551 -2.2127
 5188TIP3   OH215527   3.821   1.313   3.800  0.4519  0.0403 -0.0413
 5188TIP3    H115528   3.873   1.344   3.726  0.2863 -0.0791 -0.2073
 5188TIP3    H215529   3.883   1.310   3.873  0.5615  0.3819 -0.1173
 5189TIP3   OH215530   2.337   0.683   3.527 -0.1681 -0.5326  0.4010
 5189TIP3    H115531   2.324   0.760   3.472  1.8914 -1.3009 -1.2752
 5189TIP3    H215532   2.396   0.713   3.596 -0.9333 -0.1459  0.9014
 5190TIP3   OH215533   5.506   3.856   1.279  0.4216  0.4739  0.3922
 5190TIP3    H115534   5.460   3.890   1.202  0.7245  0.1583  0.0670
 5190TIP3    H215535   5.484   3.918   1.349 -2.2634 -0.8224  0.8071
 5191TIP3   OH215536   4.935   2.049   1.533  0.6794  0.3637 -0.2163
 5191TIP3    H115537   4.920   2.004   1.451  1.5584 -0.6419  0.1458
 5191TIP3    H215538   5.022   2.088   1.524  0.3451  1.1565 -0.1479
 5192TIP3   OH215539   2.600   3.947   2.791  0.0809 -0.2443  0.4845
 5192TIP3    H115540   2.507   3.925   2.796 -0.4653  1.5750 -0.7215
 5192TIP3    H215541   2.630   3.941   2.882 -1.7095  1.0633  1.2415
 5193TIP3   OH215542   6.219   1.286   3.017  0.0979 -0.4208  0.3497
 5193TIP3    H115543   6.192   1.358   3.075 -0.0346  0.9127 -1.3007
 5193TIP3    H215544   6.182   1.208   3.058 -1.1229  0.6371  1.3570
 5194TIP3   OH215545   5.268   6.106   1.703  0.1417 -0.0130  0.2255
 5194TIP3    H115546   5.216   6.183   1.681  0.8914  0.0058 -1.6099
 5194TIP3    H215547   5.332   6.099   1.632  2.0431 -0.5929  1.9119
 5195TIP3   OH215548   5.646   1.550   0.831 -0.0171 -0.3555  0.0741
 5195TIP3    H115549   5.645   1.527   0.924  0.7328 -2.7142 -0.4247
 5195TIP3    H215550   5.735   1.531   0.803 -0.3701 -0.1393 -1.2416
 5196TIP3   OH215551   4.803   0.224   3.120 -0.6043 -0.4547 -0.0947
 5196TIP3    H115552   4.809   0.192   3.030  0.3206  1.4094 -0.7402
 5196TIP3    H215553   4.709   0.230   3.137 -0.8531  1.1758 -1.7406
 5197TIP3   OH215554   5.129   5.369   3.722  0.3020  0.2061 -0.1318
 5197TIP3    H115555   5.193   5.354   3.653 -0.3689  2.7413 -1.4465
 5197TIP3    H215556   5.045   5.350   3.681  0.0488 -1.1065  0.9407
 5198TIP3   OH215557   0.787   4.864   3.063  0.2815  0.0507 -0.0037
 5198TIP3    H115558   0.818   4.786   3.019 -0.8849 -0.2695 -0.2805
 5198TIP3    H215559   0.760   4.834   3.150 -0.1859  0.1322 -0.1166
 5199TIP3   OH215560   3.985   1.961   2.683  0.2478 -0.1192 -0.1916
 5199TIP3    H115561   4.052   1.895   2.700 -0.4285 -0.4181  1.4969
 5199TIP3    H215562   4.021   2.015   2.612  1.5329 -1.2653 -0.4381
 5200TIP3   OH215563   2.407   0.404   0.811  0.7295 -0.5491  0.0562
 5200TIP3    H115564   2.313   0.396   0.829  0.1824 -2.4995 -3.0810
 5200TIP3    H215565   2.412   0.461   0.735  1.8203 -2.4316 -1.3635
 5201TIP3   OH215566   7.043   5.650   2.464 -0.3128 -0.6591  0.3107
 5201TIP3    H115567   7.046   5.743   2.484 -0.1340 -0.1211 -1.9619
 5201TIP3    H215568   6.981   5.614   2.527 -1.0789  1.1485  0.6602
 5202TIP3   OH215569   2.602   3.183   3.414 -0.6263 -0.6630 -0.3207
 5202TIP3    H115570   2.531   3.228   3.459  1.5338  0.3809  2.3706
 5202TIP3    H215571   2.613   3.101   3.462  2.4394  0.9546  2.1797
 5203TIP3   OH215572   6.120   5.340   4.510  0.2396  0.3985 -0.1874
 5203TIP3    H115573   6.068   5.260   4.520  0.2813  0.5740  1.9809
 5203TIP3    H215574   6.077   5.388   4.439 -0.1192 -1.2598 -1.1548
 5204TIP3   OH215575   2.440   6.075   1.341 -0.2921 -0.5059 -0.9520
 5204TIP3    H115576   2.498   6.000   1.352  1.6561  1.0476  0.0549
 5204TIP3    H215577   2.499   6.151   1.342 -2.3008  1.1422 -0.3979
 5205TIP3   OH215578   4.504   0.953   4.986 -0.3922 -0.3347  0.2623
 5205TIP3    H115579   4.577   1.013   4.969 -1.6725  1.6925  1.4313
 5205TIP3    H215580   4.543   0.882   5.038  1.1018 -0.3937 -0.8612
 5206TIP3   OH215581   1.518   1.982   5.260  0.2285 -0.3699  0.7293
 5206TIP3    H115582   1.533   1.974   5.354 -3.7866  1.9918  1.7664
 5206TIP3    H215583   1.423   1.991   5.251  0.4988  0.1209 -3.5212
 5207TIP3   OH215584   7.182   3.052   0.065  0.0147  0.3550  0.4714
 5207TIP3    H115585   7.272   3.018   0.057  0.7136  1.9253  1.2421
 5207TIP3    H215586   7.183   3.102   0.147 -1.2087  1.4333 -0.1499
 5208TIP3   OH215587   2.513   1.116   1.089 -0.4033  0.4425  0.4518
 5208TIP3    H115588   2.514   1.175   1.014  1.9726  3.4748  2.6120
 5208TIP3    H215589   2.463   1.163   1.156  2.8895  1.0292  2.7735
 5209TIP3   OH215590   4.663   1.042   5.565  0.2650 -0.0885  0.2397
 5209TIP3    H115591   4.743   0.992   5.576 -0.7926 -1.9505 -0.0349
 5209TIP3    H215592   4.688   1.117   5.512  1.4181 -1.8579 -1.9236
 5210TIP3   OH215593   6.119   2.132   0.153 -0.4556  0.2277  0.2484
 5210TIP3    H115594   6.163   2.160   0.073 -2.2085 -0.2544 -0.9390
 5210TIP3    H215595   6.040   2.186   0.158 -0.4932  0.0980  1.5594
 5211TIP3   OH215596   4.242   5.310   5.493 -0.1563  0.0421 -0.5947
 5211TIP3    H115597   4.253   5.391   5.543  1.1397 -0.7996  0.5518
 5211TIP3    H215598   4.288   5.327   5.410 -0.9395  0.8822 -0.8745
 5212TIP3   OH215599   4.439   4.536   0.522  0.6297  0.4982 -0.4452
 5212TIP3    H115600   4.372   4.589   0.564  1.2264  1.9742 -1.2396
 5212TIP3    H215601   4.446   4.573   0.433  1.9197 -0.1254 -0.6330
 5213TIP3   OH215602   4.034   1.380   4.998  0.3632 -0.3270  0.2938
 5213TIP3    H115603   4.058   1.449   5.059 -1.0121  0.9533 -0.5364
 5213TIP3    H215604   4.039   1.299   5.049 -1.5665  0.7662  2.4084
 5214TIP3   OH215605   5.990   4.929   1.087  0.5757 -0.0146  0.1129
 5214TIP3    H115606   5.898   4.929   1.113  0.1326  2.1972 -1.1263
 5214TIP3    H215607   6.038   4.945   1.168 -0.0585 -1.7833  0.8667
 5215TIP3   OH215608   3.759   0.093   1.526  0.2853 -0.4793  0.0506
 5215TIP3    H115609   3.739   0.108   1.618  2.6257 -0.6660  0.6738
 5215TIP3    H215610   3.675   0.073   1.485 -0.8268 -0.2590  2.1136
 5216TIP3   OH215611   6.349   5.236   4.378 -0.0134 -0.1464  0.1747
 5216TIP3    H115612   6.438   5.223   4.412  0.7464  1.0945 -1.2510
 5216TIP3    H215613   6.294   5.242   4.457  1.6305  2.2654  1.2555
 5217TIP3   OH215614   5.268   3.131   5.241  0.0308  0.2587  0.1810
 5217TIP3    H115615   5.205   3.145   5.171  0.2807 -0.2208 -0.1499
 5217TIP3    H215616   5.215   3.103   5.316 -0.5799  3.5336  1.1193
 5218TIP3   OH215617   1.481   6.186   5.605 -0.1615  0.3841 -0.2121
 5218TIP3    H115618   1.496   6.209   5.514 -0.6024  0.2618 -0.3157
 5218TIP3    H215619   1.415   6.248   5.636 -2.3704 -1.4785 -0.8673
 5219TIP3   OH215620   5.295   2.854   3.591  0.6242 -0.0179  0.4517
 5219TIP3    H115621   5.380   2.887   3.621  1.4670 -0.6525 -1.1564
 5219TIP3    H215622   5.294   2.762   3.618  0.0689  0.2068  1.2223
 5220TIP3   OH215623   2.576   6.498   0.905  0.0372  0.1087  0.1221
 5220TIP3    H115624   2.482   6.477   0.899 -0.3917  1.7235  0.4780
 5220TIP3    H215625   2.593   6.504   0.999 -0.5733  3.7589  0.1647
 5221TIP3   OH215626   4.090   0.500   2.230 -0.5364 -0.2856 -0.3752
 5221TIP3    H115627   4.174   0.469   2.264  0.6995  2.3091 -0.7752
 5221TIP3    H215628   4.026   0.475   2.296  0.7898 -1.0498  0.6608
 5222TIP3   OH215629   6.276   2.990   0.274  0.8019  0.1004 -0.0157
 5222TIP3    H115630   6.361   3.011   0.235  0.1018  1.7266 -0.7582
 5222TIP3    H215631   6.214   3.049   0.231 -0.4911 -0.0566  1.5180
 5223TIP3   OH215632   7.044   3.736   1.352 -1.1194 -0.3390 -0.0577
 5223TIP3    H115633   7.018   3.749   1.261 -1.6622 -2.5464 -0.2600
 5223TIP3    H215634   6.975   3.779   1.403 -2.3997 -1.6163 -0.6666
 5224TIP3   OH215635   1.581   1.828   0.277 -0.6674 -0.0050 -0.0708
 5224TIP3    H115636   1.663   1.780   0.294 -0.6147  0.4875  1.1824
 5224TIP3    H215637   1.514   1.760   0.276 -0.6153 -0.1466  1.8394
 5225TIP3   OH215638   5.459   1.362   0.800 -0.1282 -0.5474  0.3216
 5225TIP3    H115639   5.529   1.425   0.783  0.0511 -0.5900  0.8678
 5225TIP3    H215640   5.445   1.367   0.895 -1.4646  0.0871  0.1154
 5226TIP3   OH215641   6.575   1.275   2.731 -0.1394  0.0106 -0.0720
 5226TIP3    H115642   6.488   1.239   2.709 -0.8957  0.7696  1.5148
 5226TIP3    H215643   6.614   1.209   2.787  1.1795 -1.2328 -2.2897
 5227TIP3   OH215644   3.001   3.080   3.585  0.0309 -0.1887  0.6732
 5227TIP3    H115645   2.970   2.991   3.568 -3.2209  0.7168  1.2882
 5227TIP3    H215646   3.008   3.120   3.498  1.9794 -1.0864  0.3521
 5228TIP3   OH215647   3.580   1.207   5.785  0.3780  0.1371 -0.5752
 5228TIP3    H115648   3.582   1.289   5.834 -0.1988  1.3494 -2.5099
 5228TIP3    H215649   3.657   1.159   5.817  0.7685  1.4326  0.5422
 5229TIP3   OH215650   5.658   5.868   4.327 -0.5782  0.8067  0.2161
 5229TIP3    H115651   5.696   5.780   4.327 -0.3966  0.8747 -0.5850
 5229TIP3    H215652   5.571   5.857   4.365  0.1030  0.5885  1.7554
 5230TIP3   OH215653   4.551   1.725   5.634  0.0104 -0.6740 -0.4383
 5230TIP3    H115654   4.594   1.738   5.719 -1.5904 -0.9046  0.4583
 5230TIP3    H215655   4.525   1.813   5.607  2.0490 -0.3669 -1.5979
 5231TIP3   OH215656   0.480   0.170   5.133  0.0940 -0.0896 -0.0071
 5231TIP3    H115657   0.486   0.236   5.203  2.3256  2.1841 -2.0987
 5231TIP3    H215658   0.417   0.207   5.070 -0.1283 -0.9490 -0.3090
 5232TIP3   OH215659   2.518   5.187   3.234 -0.1724  0.2047  0.4392
 5232TIP3    H115660   2.506   5.224   3.322  0.0641 -0.5099  0.7814
 5232TIP3    H215661   2.589   5.124   3.244  0.5499  0.8437 -0.4930
 5233TIP3   OH215662   6.697   6.010   2.410 -0.6468 -0.1378  0.2371
 5233TIP3    H115663   6.615   5.962   2.421 -1.2365  0.8334  0.1525
 5233TIP3    H215664   6.724   5.990   2.320  0.9779 -3.1194  1.2577
 5234TIP3   OH215665   3.497   4.508   0.658  0.3876  0.3771  0.3142
 5234TIP3    H115666   3.524   4.593   0.694 -1.1545  0.9215  0.2739
 5234TIP3    H215667   3.412   4.526   0.618 -0.1302 -1.2737  0.6322
 5235TIP3   OH215668   6.482   5.990   0.766 -0.6217 -0.2076  0.3174
 5235TIP3    H115669   6.503   6.079   0.738 -1.7386  0.3858  1.2724
 5235TIP3    H215670   6.386   5.990   0.773 -0.7932 -2.0020 -1.3419
 5236TIP3   OH215671   4.397   6.410   4.889  0.6560 -0.0885 -0.7205
 5236TIP3    H115672   4.460   6.389   4.958  1.8311  1.2216 -1.3546
 5236TIP3    H215673   4.437   6.481   4.840 -0.4102 -0.5919 -2.4159
 5237TIP3   OH215674   5.428   6.252   0.786 -0.3117 -0.0975  0.5090
 5237TIP3    H115675   5.447   6.309   0.861  0.5923  2.0367 -1.2514
 5237TIP3    H215676   5.358   6.296   0.738 -0.2102 -0.9204 -0.4405
 5238TIP3   OH215677   2.786   4.158   4.355  0.1381  0.3075  0.7488
 5238TIP3    H115678   2.720   4.100   4.318 -1.4049  0.9738  2.3325
 5238TIP3    H215679   2.849   4.171   4.284 -1.8466  0.3124 -1.1099
 5239TIP3   OH215680   0.887   0.085   2.310  0.4656  0.1067  0.3522
 5239TIP3    H115681   0.963   0.116   2.359 -0.5649  1.0552  1.3860
 5239TIP3    H215682   0.828   0.050   2.376 -0.9040  1.3108 -0.1851
 5240TIP3   OH215683   2.737   1.832   2.369 -0.4809  0.4578 -0.3814
 5240TIP3    H115684   2.784   1.775   2.430 -1.9146 -2.3265 -1.7124
 5240TIP3    H215685   2.651   1.845   2.409 -1.2905 -1.0659 -1.5261
 5241TIP3   OH215686   1.383   6.626   5.517 -0.3039 -0.1526  0.6788
 5241TIP3    H115687   1.421   6.662   5.597  0.9525  0.1916 -0.0508
 5241TIP3    H215688   1.296   6.667   5.512 -0.1134  0.3816  1.4806
 5242TIP3   OH215689   4.474   0.852   3.626  0.3523 -0.1683 -0.0373
 5242TIP3    H115690   4.471   0.757   3.621  0.8008 -0.2714  1.4063
 5242TIP3    H215691   4.420   0.881   3.552  1.1947 -1.5042 -1.2417
 5243TIP3   OH215692   5.128   2.001   4.877 -0.5920  0.1703  0.6688
 5243TIP3    H115693   5.095   2.029   4.791 -2.0743 -1.4405  0.6564
 5243TIP3    H215694   5.221   2.025   4.876 -0.5699  0.1678 -1.3963
 5244TIP3   OH215695   3.397   3.481   4.658  0.3477  0.4314 -0.3146
 5244TIP3    H115696   3.373   3.528   4.737  2.3844  0.0851  0.5570
 5244TIP3    H215697   3.314   3.470   4.611 -0.9156  0.5974  1.7628
 5245TIP3   OH215698   0.442   5.962   4.730 -0.6040  0.1597 -0.0397
 5245TIP3    H115699   0.483   5.937   4.813 -0.2566  0.0292 -0.2465
 5245TIP3    H215700   0.501   5.927   4.663 -1.0316  0.0076 -0.3441
 5246TIP3   OH215701   6.663   3.734   4.570  0.5425 -0.3012 -0.1676
 5246TIP3    H115702   6.731   3.774   4.623 -0.3576  0.4219  0.4647
 5246TIP3    H215703   6.592   3.715   4.631 -0.4297  0.3525 -1.0577
 5247TIP3   OH215704   4.727   5.763   2.977  0.3358  0.2000 -0.9893
 5247TIP3    H115705   4.718   5.712   3.058  0.2228  1.5000 -0.1555
 5247TIP3    H215706   4.778   5.707   2.919  0.2790 -0.8271 -0.0795
 5248TIP3   OH215707   3.902   4.260   5.628  0.2054  0.2256 -0.1102
 5248TIP3    H115708   3.832   4.307   5.583  0.6987  0.7061 -0.3946
 5248TIP3    H215709   3.981   4.285   5.581  0.8153  1.2029  1.3770
 5249TIP3   OH215710   2.579   0.029   3.128 -0.2835  0.0449  0.5687
 5249TIP3    H115711   2.655  -0.029   3.135 -0.8649 -0.7108  0.8086
 5249TIP3    H215712   2.605   0.095   3.065  0.0930 -0.9940 -0.4043
 5250TIP3   OH215713   3.309   3.011   5.057  0.1678 -0.3219 -0.4509
 5250TIP3    H115714   3.221   3.012   5.021  0.4756 -1.0221 -1.2522
 5250TIP3    H215715   3.298   2.982   5.148 -0.5677  1.0661 -0.0700
 5251TIP3   OH215716   4.167   2.043   1.030  0.2894 -0.3733 -0.6785
 5251TIP3    H115717   4.257   2.039   0.999  0.2407  0.8331 -1.0214
 5251TIP3    H215718   4.164   1.982   1.103  1.0737 -1.3177 -1.4116
 5252TIP3   OH215719   6.581   3.227   2.081 -0.5929 -0.3307  0.5113
 5252TIP3    H115720   6.557   3.135   2.081 -2.8732  0.1777  2.1595
 5252TIP3    H215721   6.571   3.255   2.172  0.9935  1.3496  0.2429
 5253TIP3   OH215722   2.124   2.722   2.865  0.1510  0.8056 -0.2600
 5253TIP3    H115723   2.162   2.634   2.868 -1.7576 -0.2448 -2.8160
 5253TIP3    H215724   2.197   2.779   2.840  1.2041 -0.1872  0.4572
 5254TIP3   OH215725   3.527   3.900   2.000  0.3530  0.1188 -0.1651
 5254TIP3    H115726   3.622   3.889   1.998  0.3316 -0.1388  0.4288
 5254TIP3    H215727   3.503   3.910   1.907  1.1593  1.8827 -0.2360
 5255TIP3   OH215728   0.861   3.274   4.694  0.3706  0.1532 -0.2929
 5255TIP3    H115729   0.906   3.298   4.775  0.6203 -1.0502 -0.0588
 5255TIP3    H215730   0.796   3.343   4.681 -0.7191 -0.4124  1.7656
 5256TIP3   OH215731   4.370   3.630   3.467  0.6777  0.3366  0.1126
 5256TIP3    H115732   4.298   3.690   3.483 -0.2379 -0.8546  0.6322
 5256TIP3    H215733   4.440   3.685   3.430  0.3322  1.9137  1.6984
 5257TIP3   OH215734   4.491   3.415   5.790 -0.0098 -0.6523  0.7857
 5257TIP3    H115735   4.480   3.458   5.875 -1.1967  0.3085  0.1635
 5257TIP3    H215736   4.576   3.445   5.758 -0.2115  0.1451  0.9852
 5258TIP3   OH215737   2.922   6.671   0.682  0.6637 -0.2378 -0.3649
 5258TIP3    H115738   3.015   6.678   0.703  1.0572  0.6870 -2.2051
 5258TIP3    H215739   2.888   6.759   0.697  0.5801 -0.0132 -1.7994
 5259TIP3   OH215740   1.338   5.214   0.786  0.0686  0.1860 -0.5498
 5259TIP3    H115741   1.400   5.194   0.857  0.2378 -0.1838 -0.8006
 5259TIP3    H215742   1.389   5.264   0.723  0.0915 -0.0485 -0.7185
 5260TIP3   OH215743   1.118   6.405   3.373 -0.2535 -0.2771 -0.4616
 5260TIP3    H115744   1.122   6.483   3.317  0.0965 -0.3968 -0.6105
 5260TIP3    H215745   1.048   6.352   3.335 -1.7454  0.7692  0.7177
 5261TIP3   OH215746   1.813   6.428   5.374 -0.1869  0.3915 -0.1477
 5261TIP3    H115747   1.832   6.337   5.398  0.2149  0.6393  0.4826
 5261TIP3    H215748   1.811   6.427   5.278  1.5494  0.0458 -0.2077
 5262TIP3   OH215749   5.968   0.254   5.398  0.2393  0.0304  0.1208
 5262TIP3    H115750   5.984   0.230   5.489 -0.1839  0.4849  0.3180
 5262TIP3    H215751   5.876   0.232   5.383  0.4218 -0.4515 -0.3317
 5263TIP3   OH215752   5.461   1.844   2.112  0.1909 -0.6277  0.3912
 5263TIP3    H115753   5.504   1.915   2.065  0.4267 -1.7168 -1.0964
 5263TIP3    H215754   5.532   1.792   2.149  0.1643 -1.7344 -1.0336
 5264TIP3   OH215755   1.695   1.112   5.443 -0.3268  0.0578 -0.3942
 5264TIP3    H115756   1.765   1.103   5.379  0.9219  0.0185  0.9070
 5264TIP3    H215757   1.703   1.034   5.498  0.8398  1.5820  1.8003
 5265TIP3   OH215758   4.617   3.912   3.764 -0.4573 -0.2486  0.3521
 5265TIP3    H115759   4.586   3.990   3.717 -0.5409 -0.0555  0.7202
 5265TIP3    H215760   4.546   3.849   3.755  0.3208 -0.9081 -1.4162
 5266TIP3   OH215761   7.083   1.854   0.139  0.0105 -0.5574 -0.4160
 5266TIP3    H115762   7.152   1.792   0.162 -0.3599 -0.9393 -0.3261
 5266TIP3    H215763   7.041   1.876   0.222  1.0118  0.8731 -0.2608
 5267TIP3   OH215764   5.342   0.455   2.552  0.2607  0.4730  0.0252
 5267TIP3    H115765   5.257   0.424   2.585  0.4910  0.8204  0.9872
 5267TIP3    H215766   5.404   0.430   2.621  0.4571  3.0696  0.8854
 5268TIP3   OH215767   2.757   0.104   1.465 -0.0458  0.2828 -0.0840
 5268TIP3    H115768   2.818   0.075   1.533  0.5334  0.9581 -0.3075
 5268TIP3    H215769   2.690   0.152   1.513  0.1695  0.4542  0.0460
 5269TIP3   OH215770   2.955   6.512   5.116 -0.2401  0.6437  0.0660
 5269TIP3    H115771   2.867   6.546   5.100 -0.0343  1.4702  0.6221
 5269TIP3    H215772   2.994   6.574   5.178  0.1012 -0.6930  1.2230
 5270TIP3   OH215773   4.920   5.212   3.568  0.7826  1.0804 -0.3236
 5270TIP3    H115774   4.967   5.265   3.504  1.3193  1.9978  0.8000
 5270TIP3    H215775   4.944   5.122   3.547  0.4958  1.3136 -1.7468
 5271TIP3   OH215776   0.853   4.254   3.501  0.3452 -0.7244 -0.1851
 5271TIP3    H115777   0.880   4.162   3.496  0.3223 -0.7692  0.4329
 5271TIP3    H215778   0.820   4.274   3.413  1.8154 -0.8299 -0.7799
 5272TIP3   OH215779   3.368   6.169   1.820  0.0952  0.6961  0.3041
 5272TIP3    H115780   3.310   6.210   1.755  0.3014  0.2524 -0.1682
 5272TIP3    H215781   3.356   6.075   1.806 -0.3182  0.5888  1.3282
 5273TIP3   OH215782   0.928   4.234   4.992 -0.2967 -0.2767 -0.0324
 5273TIP3    H115783   0.844   4.244   4.947  0.5069 -0.8007 -1.7328
 5273TIP3    H215784   0.974   4.167   4.941 -0.1139 -2.5137  2.8079
 5274TIP3   OH215785   3.166   2.340   3.871  0.1148 -0.1086  0.2523
 5274TIP3    H115786   3.208   2.397   3.807  1.6550 -1.4176  0.0362
 5274TIP3    H215787   3.223   2.345   3.948 -1.0121  0.4272  1.0892
 5275TIP3   OH215788   0.042   6.204   1.465 -1.0970 -0.1862 -0.0147
 5275TIP3    H115789  -0.012   6.283   1.459 -1.6666 -0.6748 -1.6170
 5275TIP3    H215790   0.029   6.159   1.382  2.2790 -0.0255 -0.7674
 5276TIP3   OH215791   2.106   2.282   2.689  0.9766  0.1519 -0.1797
 5276TIP3    H115792   2.122   2.267   2.596  0.9141 -0.4095 -0.1034
 5276TIP3    H215793   2.127   2.199   2.731  0.4570  0.2265  0.2461
 5277TIP3   OH215794   5.379   3.996   0.752 -0.0713  0.5162  0.3755
 5277TIP3    H115795   5.435   4.065   0.717  2.1711  0.2869  3.1344
 5277TIP3    H215796   5.302   3.995   0.695  0.4215  4.3269 -0.5709
 5278TIP3   OH215797   6.741   6.790   4.631 -0.3318 -0.0128 -0.4580
 5278TIP3    H115798   6.802   6.841   4.683  1.0873 -1.0531 -1.0284
 5278TIP3    H215799   6.675   6.759   4.693 -0.2383  1.0304  0.1849
 5279TIP3   OH215800   3.472   6.652   3.160 -0.0153  0.0932  0.1658
 5279TIP3    H115801   3.402   6.694   3.209  0.1745 -0.0422  0.5588
 5279TIP3    H215802   3.462   6.558   3.177 -0.9699 -0.1341 -1.4042
 5280TIP3   OH215803   4.008   0.481   1.270  0.3275  0.3254 -0.3914
 5280TIP3    H115804   4.060   0.419   1.219 -0.3411  0.0869 -0.8116
 5280TIP3    H215805   3.936   0.428   1.305  0.4860  0.6004  0.3678
 5281TIP3   OH215806   2.573   1.125   3.278 -0.4638  0.1404 -0.5759
 5281TIP3    H115807   2.538   1.160   3.196 -1.8646  0.6817  0.2221
 5281TIP3    H215808   2.610   1.202   3.322  0.4697 -0.1829 -0.7672
 5282TIP3   OH215809   6.733   6.675   2.997  0.3321 -0.4491  0.1545
 5282TIP3    H115810   6.793   6.718   2.936  0.0029  0.4400  0.4416
 5282TIP3    H215811   6.699   6.600   2.949 -0.0084  0.3046 -0.8004
 5283TIP3   OH215812   5.985   2.262   4.270  0.2361  0.0064 -0.0896
 5283TIP3    H115813   6.013   2.352   4.255 -0.4021  0.2133 -0.1076
 5283TIP3    H215814   6.002   2.217   4.187 -0.3112  0.3532 -0.4027
 5284TIP3   OH215815   0.408   0.890   5.385  0.0122  0.8583  0.0170
 5284TIP3    H115816   0.352   0.950   5.335 -1.1975 -1.4444 -1.5574
 5284TIP3    H215817   0.416   0.932   5.471 -2.0238  2.5364 -0.5131
 5285TIP3   OH215818   5.930   0.463   3.784 -0.2349 -0.6462 -0.3441
 5285TIP3    H115819   5.930   0.449   3.878  1.0106  1.8397  0.1285
 5285TIP3    H215820   5.838   0.453   3.758 -0.9670  0.5853  1.5212
 5286TIP3   OH215821   2.627   4.179   4.040 -0.0120  0.7823  0.1776
 5286TIP3    H115822   2.703   4.187   3.982 -0.9984  0.4288 -1.1910
 5286TIP3    H215823   2.594   4.091   4.024  0.0736  0.4343  1.7828
 5287TIP3   OH215824   4.395   3.017   0.045 -0.0803  0.1008 -0.1082
 5287TIP3    H115825   4.418   3.091   0.102  0.3192  1.0870 -1.4949
 5287TIP3    H215826   4.476   2.966   0.038  0.4011  0.9769 -1.2073
 5288TIP3   OH215827   2.917   4.963   0.012 -0.4736 -0.7592 -0.1233
 5288TIP3    H115828   2.955   5.039   0.057 -0.3643 -0.5667 -0.5407
 5288TIP3    H215829   2.981   4.940  -0.055 -0.1968 -1.6447  0.4352
 5289TIP3   OH215830   2.032   4.575   3.930 -0.4707 -0.4359 -0.1818
 5289TIP3    H115831   2.045   4.484   3.900 -0.6656 -0.0648 -1.4623
 5289TIP3    H215832   2.118   4.601   3.964 -0.2188 -0.8731 -0.4655
 5290TIP3   OH215833   3.738   4.263   0.206 -0.2186  0.2006 -0.2897
 5290TIP3    H115834   3.677   4.256   0.132 -0.2917 -1.2174 -0.1139
 5290TIP3    H215835   3.802   4.195   0.191 -0.3218 -0.2051  1.0329
 5291TIP3   OH215836   1.436   5.769   0.343  0.4165  0.0672 -0.7335
 5291TIP3    H115837   1.412   5.691   0.393 -0.8247  0.1574 -1.1636
 5291TIP3    H215838   1.472   5.736   0.261  0.3913 -0.0613 -0.6923
 5292TIP3   OH215839   3.721   5.272   5.869 -0.0953 -0.0467  0.3311
 5292TIP3    H115840   3.672   5.314   5.798  0.2794  0.1042  0.1567
 5292TIP3    H215841   3.785   5.338   5.896  0.3533 -0.4267  0.2057
 5293TIP3   OH215842   2.083   0.350   5.289  0.1481  0.2638 -0.5730
 5293TIP3    H115843   2.176   0.366   5.301  0.6402 -1.9062 -1.0627
 5293TIP3    H215844   2.068   0.262   5.325 -1.7506  0.6412 -0.3132
 5294TIP3   OH215845   5.804   2.052   0.889  0.3403  0.0307  0.1033
 5294TIP3    H115846   5.881   1.996   0.893  0.6415  0.4729  0.5384
 5294TIP3    H215847   5.786   2.076   0.980 -1.6555 -1.8660  0.3055
 5295TIP3   OH215848   0.080   3.089   2.233  0.0025  0.0430 -0.4624
 5295TIP3    H115849   0.140   3.056   2.165 -0.1669  1.4027 -1.3174
 5295TIP3    H215850   0.041   3.167   2.194 -0.5095  0.5566  1.0136
 5296TIP3   OH215851   7.117   1.008   0.278  0.2517 -0.0394  0.4559
 5296TIP3    H115852   7.194   0.977   0.325  0.9769 -1.2125 -1.3968
 5296TIP3    H215853   7.083   0.930   0.234 -0.3422  0.9895 -0.9933
 5297TIP3   OH215854   1.287   2.624   3.387 -0.0286  0.1485 -0.0509
 5297TIP3    H115855   1.321   2.708   3.357  1.7199  0.1538  1.7541
 5297TIP3    H215856   1.230   2.646   3.461 -0.3657 -0.2128 -0.1964
 5298TIP3   OH215857   6.098   1.290   1.938 -0.5240 -0.0693 -0.1657
 5298TIP3    H115858   6.039   1.338   1.881  0.4769  0.7134 -0.5826
 5298TIP3    H215859   6.160   1.247   1.877 -1.4392 -2.0087  0.1779
 5299TIP3   OH215860   1.022   1.543   4.197 -0.1139  0.2495  0.3568
 5299TIP3    H115861   1.040   1.509   4.109  0.8305  0.5962  0.4157
 5299TIP3    H215862   0.971   1.623   4.182 -0.6218 -0.1026  0.1593
 5300TIP3   OH215863   2.233   6.670   3.567 -0.6545  0.1708 -0.3767
 5300TIP3    H115864   2.271   6.582   3.568  2.6175  1.4469  0.1871
 5300TIP3    H215865   2.229   6.693   3.474 -0.4712 -0.1700 -0.4707
 5301TIP3   OH215866   0.864   1.066   2.864  0.7579 -0.2486 -0.2928
 5301TIP3    H115867   0.866   1.071   2.769  1.0828 -1.2216 -0.3469
 5301TIP3    H215868   0.952   1.092   2.891  0.6470  0.0897 -0.2452
 5302TIP3   OH215869   2.787   2.904   4.622 -0.3421  0.2463  0.3648
 5302TIP3    H115870   2.843   2.982   4.625 -0.0989  0.0903 -0.0647
 5302TIP3    H215871   2.785   2.872   4.712 -1.2720  1.3325  0.7543
 5303TIP3   OH215872   1.507   0.241   5.346 -0.0904  0.1310 -0.0515
 5303TIP3    H115873   1.499   0.328   5.305 -0.9020  0.6432  1.1577
 5303TIP3    H215874   1.423   0.227   5.389 -1.2423 -2.6601 -2.8248
 5304TIP3   OH215875   6.485   6.586   1.668  0.2059 -0.1494  0.4347
 5304TIP3    H115876   6.524   6.671   1.685  0.1141  0.1798 -0.9050
 5304TIP3    H215877   6.558   6.530   1.641 -0.0162  0.1105 -0.7802
 5305TIP3   OH215878   0.525   5.820   3.816 -0.2999 -0.4122 -0.8426
 5305TIP3    H115879   0.566   5.903   3.842 -4.1829  2.0102 -1.4834
 5305TIP3    H215880   0.547   5.811   3.723 -0.2256  0.1864 -0.8896
 5306TIP3   OH215881   1.306   5.654   2.575 -0.6461  0.5964 -0.2280
 5306TIP3    H115882   1.296   5.711   2.650 -1.3148  0.4795 -0.2223
 5306TIP3    H215883   1.363   5.583   2.605 -1.6723  0.0494  0.4552
 5307TIP3   OH215884   1.907   2.284   4.075 -0.1798  0.2096 -0.5365
 5307TIP3    H115885   1.857   2.290   3.993 -1.1841  0.5183  0.0703
 5307TIP3    H215886   1.840   2.286   4.144  0.4994 -1.7937  0.2687
 5308TIP3   OH215887   2.685   5.643   3.875  0.0561 -0.3107  0.4547
 5308TIP3    H115888   2.633   5.717   3.844  2.1856  0.9508 -0.3466
 5308TIP3    H215889   2.686   5.651   3.970 -0.5973  0.0657  0.4292
 5309TIP3   OH215890   5.205   4.138   0.403  0.0183 -1.0008  0.3074
 5309TIP3    H115891   5.197   4.142   0.308 -2.4939 -0.8788  0.4462
 5309TIP3    H215892   5.217   4.229   0.430  1.8101 -1.1365  0.0967
 5310TIP3   OH215893   1.141   3.522   4.136  0.6148 -0.0954 -0.4104
 5310TIP3    H115894   1.146   3.534   4.041  2.2798 -0.1745 -0.3523
 5310TIP3    H215895   1.216   3.466   4.157  0.4249  0.1512  0.9965
 5311TIP3   OH215896   3.223   5.991   3.214 -0.0004 -0.0070 -0.9147
 5311TIP3    H115897   3.251   6.036   3.294  2.4678 -0.9995 -1.1481
 5311TIP3    H215898   3.149   5.937   3.242  0.0587  0.5543  0.4098
 5312TIP3   OH215899   0.040   0.955   5.548  0.0621 -0.7065 -0.1114
 5312TIP3    H115900   0.105   0.894   5.514 -0.8680 -1.2341 -1.0123
 5312TIP3    H215901   0.055   1.036   5.498 -1.1665 -1.4153 -1.7426
 5313TIP3   OH215902   1.947   5.135   2.469  0.1433  0.1717 -0.1612
 5313TIP3    H115903   2.025   5.174   2.508 -0.4382  3.2350 -1.7125
 5313TIP3    H215904   1.965   5.133   2.375 -1.6212  1.0574 -0.5737
 5314TIP3   OH215905   3.009   2.653   0.656 -0.3389 -0.5251  0.2011
 5314TIP3    H115906   3.006   2.732   0.711  1.0358 -2.0430  2.6229
 5314TIP3    H215907   3.101   2.643   0.633 -0.4400 -1.6511  0.2436
 5315TIP3   OH215908   2.992   6.047   4.751  0.0216 -0.1429 -0.0023
 5315TIP3    H115909   3.005   6.142   4.749 -1.6310  0.0977 -0.2975
 5315TIP3    H215910   2.952   6.030   4.836 -1.6937 -0.2713 -0.8011
 5316TIP3   OH215911   0.398   5.505   5.184 -0.1593 -0.1825  0.4043
 5316TIP3    H115912   0.317   5.500   5.235 -0.2464 -1.6747  0.1615
 5316TIP3    H215913   0.388   5.585   5.131 -1.6375 -0.5309  0.1010
 5317TIP3   OH215914   2.931   4.581   3.954 -0.3439 -0.2688  0.1467
 5317TIP3    H115915   3.022   4.592   3.982 -0.1210 -0.5102 -0.4799
 5317TIP3    H215916   2.936   4.555   3.863 -1.0528 -0.0866  0.0445
 5318TIP3   OH215917   3.648   6.762   3.746  0.0533 -0.7329  0.7696
 5318TIP3    H115918   3.579   6.827   3.754  1.7265  1.0876  1.1518
 5318TIP3    H215919   3.652   6.742   3.652 -0.4964 -0.3257  0.6553
 5319TIP3   OH215920   3.690   0.695   1.291 -0.3154  0.0678  0.2960
 5319TIP3    H115921   3.778   0.708   1.327  0.3060 -2.9321  0.1186
 5319TIP3    H215922   3.705   0.675   1.199 -1.3071  0.5734  0.0132
 5320TIP3   OH215923   1.866   0.107   0.618 -0.3423  0.5247 -0.4947
 5320TIP3    H115924   1.824   0.189   0.590 -1.2897  0.7421  1.3521
 5320TIP3    H215925   1.960   0.123   0.609 -0.4572  2.2702  0.8405
 5321TIP3   OH215926   2.013   3.866   0.719 -0.6977 -0.2547  0.4768
 5321TIP3    H115927   1.988   3.860   0.626  0.7636  1.4275 -0.0911
 5321TIP3    H215928   2.049   3.954   0.728  1.5342 -1.2332  2.0393
 5322TIP3   OH215929   6.249   0.208   1.994 -0.1390  0.1117 -0.4161
 5322TIP3    H115930   6.330   0.183   1.950  0.8126 -0.9084  1.7423
 5322TIP3    H215931   6.205   0.125   2.013 -1.0356  0.5809 -0.3982
 5323TIP3   OH215932   5.101   1.696   2.813  0.2066  0.3163 -0.1127
 5323TIP3    H115933   5.125   1.622   2.868 -2.0724 -0.6140 -0.2703
 5323TIP3    H215934   5.008   1.684   2.795  0.3684  1.7785 -2.3695
 5324TIP3   OH215935   2.154   1.636   2.246  0.4957  0.2402  0.1539
 5324TIP3    H115936   2.125   1.680   2.326  1.0097 -0.2587  0.6307
 5324TIP3    H215937   2.121   1.691   2.175 -0.3598  0.4487  0.6964
 5325TIP3   OH215938   2.254   0.259   1.583  0.1423  0.7144 -0.7572
 5325TIP3    H115939   2.281   0.255   1.491 -1.7524  1.0203 -1.3793
 5325TIP3    H215940   2.160   0.277   1.579 -0.3561 -1.0594  1.2127
 5326TIP3   OH215941   3.655   3.945   5.003 -0.1029 -0.4009 -0.0281
 5326TIP3    H115942   3.666   3.888   4.927  0.0387  0.2451 -0.4941
 5326TIP3    H215943   3.567   3.926   5.035 -0.4996 -0.0324 -0.8834
 5327TIP3   OH215944   3.988   5.422   5.730 -0.2234  0.0884  0.0407
 5327TIP3    H115945   4.079   5.440   5.754 -0.2057 -1.1970  1.0322
 5327TIP3    H215946   3.941   5.424   5.813 -0.6098 -1.9175 -0.0759
 5328TIP3   OH215947   0.359   6.731   4.109 -0.3222 -0.4574 -0.0529
 5328TIP3    H115948   0.363   6.687   4.024  0.9699 -0.6424  0.0848
 5328TIP3    H215949   0.451   6.744   4.134 -0.6387  2.1779  0.0050
 5329TIP3   OH215950   4.986   4.554   4.044  0.6456  0.6076 -0.0744
 5329TIP3    H115951   5.056   4.611   4.075  0.3390  0.5974  0.6538
 5329TIP3    H215952   4.911   4.573   4.101  0.5608 -0.5667  0.2495
 5330TIP3   OH215953   0.148   2.892   1.717 -0.1660  0.0465  0.2708
 5330TIP3    H115954   0.057   2.917   1.701 -1.2690 -0.4475  4.4437
 5330TIP3    H215955   0.150   2.798   1.702 -0.5646 -0.0568  0.8308
 5331TIP3   OH215956   1.499   0.723   0.780  0.6241  0.2979  0.8520
 5331TIP3    H115957   1.469   0.810   0.805 -1.3579  0.4990 -1.7641
 5331TIP3    H215958   1.439   0.663   0.825 -0.9015  0.5429 -0.7115
 5332TIP3   OH215959   1.164   0.089   1.835  0.0888 -0.4822 -0.1606
 5332TIP3    H115960   1.159   0.164   1.894  1.2333 -1.0778  0.7421
 5332TIP3    H215961   1.128   0.016   1.886 -2.3819 -0.3240 -1.5299
 5333TIP3   OH215962   4.849   4.595   1.181 -0.0440  0.0262  0.0644
 5333TIP3    H115963   4.813   4.538   1.250  0.6693 -0.5009  0.0081
 5333TIP3    H215964   4.927   4.633   1.220 -0.0065  0.2459 -0.2274
 5334TIP3   OH215965   4.067   1.964   4.427  0.2023 -0.0674  0.0592
 5334TIP3    H115966   4.074   2.029   4.357 -0.5644 -1.2896 -1.2191
 5334TIP3    H215967   3.985   1.987   4.472  0.3053  0.2644  0.0844
 5335TIP3   OH215968   6.856   1.005   4.200 -0.1671  0.1577  0.1171
 5335TIP3    H115969   6.862   1.015   4.105 -0.6981  1.8244  0.2276
 5335TIP3    H215970   6.768   1.037   4.221 -0.3648 -0.9720  1.0983
 5336TIP3   OH215971   3.430   2.612   1.612 -0.1963  0.0694 -0.1604
 5336TIP3    H115972   3.458   2.652   1.694 -0.0592 -0.3349 -0.0072
 5336TIP3    H215973   3.444   2.518   1.625 -0.5869 -0.0359 -0.4867
 5337TIP3   OH215974   3.213   3.122   4.359 -0.0590 -0.1651 -0.8318
 5337TIP3    H115975   3.166   3.041   4.344 -0.1766  0.1166 -2.1054
 5337TIP3    H215976   3.144   3.188   4.373  0.0408 -0.3439  0.6636
 5338TIP3   OH215977   0.445   0.918   3.982 -0.2080 -0.2620  0.2279
 5338TIP3    H115978   0.349   0.927   3.980 -0.2128  0.1969  1.4125
 5338TIP3    H215979   0.476   1.004   4.010  0.6205 -0.1476 -0.9909
 5339TIP3   OH215980   6.847   4.758   5.656  0.4909 -0.0222  0.4834
 5339TIP3    H115981   6.868   4.851   5.665  0.3056  0.1533 -0.7336
 5339TIP3    H215982   6.752   4.753   5.670  0.3025  0.1612 -0.6420
 5340TIP3   OH215983   0.982   4.858   4.019 -0.6738  0.2973  0.3261
 5340TIP3    H115984   0.942   4.906   4.092 -1.4252  3.6389 -2.0339
 5340TIP3    H215985   0.910   4.844   3.958 -0.1327 -2.7772  0.2574
 5341TIP3   OH215986   2.599   5.851   0.151 -0.0598 -0.3524  0.6192
 5341TIP3    H115987   2.555   5.923   0.195  0.6231  1.0161 -0.8671
 5341TIP3    H215988   2.634   5.889   0.070  0.6797 -2.2452 -0.0100
 5342TIP3   OH215989   1.683   1.637   0.002 -0.1171  0.0385 -0.2518
 5342TIP3    H115990   1.771   1.671  -0.012  0.0332 -0.1599  0.1767
 5342TIP3    H215991   1.693   1.571   0.072 -0.9728  1.7791  1.6196
 5343TIP3   OH215992   1.593   4.784   3.551 -0.6853 -0.0272 -0.2600
 5343TIP3    H115993   1.608   4.723   3.623  0.8299  1.2948  0.5980
 5343TIP3    H215994   1.561   4.864   3.593  0.3749  0.8178 -1.0186
 5344TIP3   OH215995   2.301   3.801   3.532  0.6286  1.0032 -0.5452
 5344TIP3    H115996   2.302   3.710   3.503 -1.6412  0.4920  0.7834
 5344TIP3    H215997   2.215   3.813   3.572  0.6895  3.8680 -1.0577
 5345TIP3   OH215998   0.037   5.315   0.749  1.0023  0.3026 -0.8293
 5345TIP3    H115999  -0.033   5.376   0.726  0.8317  0.5158  0.1930
 5345TIP3    H216000   0.003   5.229   0.722 -0.5013  0.1367  1.3026
 5346TIP3   OH216001   0.322   1.922   2.074 -0.1589  0.3543 -0.0230
 5346TIP3    H116002   0.318   1.950   2.166  1.3946  1.7192 -0.3339
 5346TIP3    H216003   0.415   1.926   2.052  0.0869 -3.8323 -0.5510
 5347TIP3   OH216004   4.116   3.883   1.410  0.1846  0.0509  0.0844
 5347TIP3    H116005   4.157   3.863   1.326 -0.7971 -3.1932  0.2247
 5347TIP3    H216006   4.028   3.912   1.388  0.7771  1.8481 -0.0396
 5348TIP3   OH216007   6.108   6.704   0.876  0.1960  0.0074 -0.9425
 5348TIP3    H116008   6.153   6.660   0.804 -1.8234 -1.6003 -1.3080
 5348TIP3    H216009   6.113   6.643   0.949 -0.1589  0.4331 -0.5552
 5349TIP3   OH216010   6.302   1.930   5.814 -0.4971 -0.2879  0.3704
 5349TIP3    H116011   6.257   1.958   5.894  0.2858 -0.7832  0.9981
 5349TIP3    H216012   6.239   1.945   5.744 -1.5416 -0.7089  1.1976
 5350TIP3   OH216013   6.322   3.773   5.708 -0.4360 -0.0014  0.2382
 5350TIP3    H116014   6.274   3.696   5.676 -0.0414  0.4102 -1.4267
 5350TIP3    H216015   6.254   3.829   5.746 -0.9763 -0.3955 -0.1221
 5351TIP3   OH216016   2.382   5.232   4.866 -0.0507  0.3825 -0.3050
 5351TIP3    H116017   2.313   5.166   4.876  1.7260 -1.4544  0.5522
 5351TIP3    H216018   2.365   5.296   4.935 -0.3471 -0.5881  0.5372
 5352TIP3   OH216019   2.045   6.599   2.261  0.2639 -1.0630 -0.0454
 5352TIP3    H116020   2.046   6.504   2.250 -0.3959 -1.0846  0.0406
 5352TIP3    H216021   2.026   6.633   2.173 -0.4361 -1.0520  0.1062
 5353TIP3   OH216022   1.083  -0.035   2.785  0.3868  0.0682 -0.3423
 5353TIP3    H116023   1.014   0.017   2.825  0.1191 -1.6027  1.4875
 5353TIP3    H216024   1.154   0.027   2.770 -1.0960  1.6114 -1.3545
 5354TIP3   OH216025   4.671   0.875   1.097 -0.2112 -0.3183  0.2479
 5354TIP3    H116026   4.681   0.842   1.186  0.0993 -2.1632 -0.4163
 5354TIP3    H216027   4.576   0.882   1.085 -0.2453  0.2494  0.8220
 5355TIP3   OH216028   6.247   2.202   4.378  0.6500 -0.3319  0.1988
 5355TIP3    H116029   6.212   2.271   4.322  1.7758  0.0380 -0.0871
 5355TIP3    H216030   6.171   2.167   4.425 -0.1330  0.1573 -0.6825
 5356TIP3   OH216031   1.702   3.385   3.304  0.3567  0.5833  0.1663
 5356TIP3    H116032   1.638   3.448   3.337 -0.6910 -0.0762 -0.5470
 5356TIP3    H216033   1.730   3.336   3.381 -0.1002  0.7897  0.4695
 5357TIP3   OH216034   4.801   1.725   4.854  0.1266  0.6366 -0.1721
 5357TIP3    H116035   4.784   1.772   4.773 -0.4417  0.6908 -0.0304
 5357TIP3    H216036   4.892   1.744   4.875  1.9652 -3.2468 -3.3416
 5358TIP3   OH216037   2.147   0.423   0.422 -0.0734  0.3441 -0.1707
 5358TIP3    H116038   2.217   0.358   0.417  0.5956  1.1047 -0.9595
 5358TIP3    H216039   2.179   0.498   0.371 -0.2713  1.8131  1.7520
 5359TIP3   OH216040   5.862   1.104   3.778  0.2556 -0.0096  0.5029
 5359TIP3    H116041   5.926   1.035   3.796  0.2466 -0.1994 -0.1446
 5359TIP3    H216042   5.885   1.135   3.691 -1.6075 -1.3252 -0.5464
 5360TIP3   OH216043   3.809   4.032   2.899 -0.3958 -0.1295  0.1911
 5360TIP3    H116044   3.845   4.016   2.986 -1.5073  1.0319  0.9009
 5360TIP3    H216045   3.863   4.102   2.862  0.8683 -1.4722 -0.5979
 5361TIP3   OH216046   3.057   0.412   2.447 -0.4528 -0.4389 -0.5098
 5361TIP3    H116047   3.094   0.471   2.381  0.2205  1.5325  1.5287
 5361TIP3    H216048   2.962   0.421   2.436 -0.5810  4.0415  2.0408
 5362TIP3   OH216049   6.263   2.216   2.366 -0.2720 -0.0926  0.1840
 5362TIP3    H116050   6.208   2.156   2.417  0.7051 -0.4291  0.8784
 5362TIP3    H216051   6.301   2.160   2.298  0.2676 -0.1699  0.5417
 5363TIP3   OH216052   1.771   3.561   1.322  0.2749  0.1632  0.1362
 5363TIP3    H116053   1.759   3.656   1.318  0.1504  0.1205 -1.8928
 5363TIP3    H216054   1.864   3.548   1.306  0.3754 -0.0540  0.8652
 5364TIP3   OH216055   5.253   4.613   0.761 -0.1756 -0.1880 -0.2042
 5364TIP3    H116056   5.251   4.543   0.695 -1.8790 -0.0831 -0.3175
 5364TIP3    H216057   5.303   4.683   0.720  0.5718 -0.9028 -0.5474
 5365TIP3   OH216058   2.483   0.274   5.514  0.6152  0.1029 -0.4868
 5365TIP3    H116059   2.469   0.271   5.419 -1.4582  0.4502 -0.2379
 5365TIP3    H216060   2.556   0.335   5.525  0.7892  0.1840 -1.8357
 5366TIP3   OH216061   6.357   0.892   5.460  0.1153  0.0227  0.2030
 5366TIP3    H116062   6.314   0.828   5.516 -0.7008  1.2063  0.9572
 5366TIP3    H216063   6.286   0.946   5.426  0.5472 -0.7908 -2.2031
 5367TIP3   OH216064   3.202   4.641   4.036 -0.1930  1.1333 -0.1119
 5367TIP3    H116065   3.154   4.724   4.045  0.3613  1.3849  0.5826
 5367TIP3    H216066   3.261   4.656   3.962 -0.7529  1.0312 -0.5840
 5368TIP3   OH216067   3.149   5.883   1.698  0.0959 -0.4933  0.1752
 5368TIP3    H116068   3.083   5.817   1.718  1.2423 -1.9975 -0.8318
 5368TIP3    H216069   3.208   5.882   1.773 -0.5766  0.3192  0.7336
 5369TIP3   OH216070   7.048   3.827   2.091 -0.2214  0.1143  0.4060
 5369TIP3    H116071   7.061   3.786   2.176 -2.1850  0.8804  1.1472
 5369TIP3    H216072   7.121   3.796   2.037  0.9912 -0.4865  2.3131
 5370TIP3   OH216073   6.682   5.201   5.071 -0.7339 -0.1120  0.5596
 5370TIP3    H116074   6.742   5.142   5.118 -0.3017 -1.7390 -1.8214
 5370TIP3    H216075   6.740   5.266   5.030 -0.1789 -2.5630 -3.0000
 5371TIP3   OH216076   6.083   4.367   5.011 -0.2944  0.2578  0.1125
 5371TIP3    H116077   6.134   4.287   4.999  0.0524  0.4381  0.3354
 5371TIP3    H216078   6.123   4.409   5.088 -2.9505 -1.2600  2.4769
 5372TIP3   OH216079   3.744   4.203   5.865  0.3753  0.2703 -0.1007
 5372TIP3    H116080   3.701   4.119   5.851 -0.7449  0.9338 -0.7786
 5372TIP3    H216081   3.791   4.220   5.783 -0.8689  1.1113 -0.6831
 5373TIP3   OH216082   2.403   3.342   4.083 -0.2377  0.3142 -0.2402
 5373TIP3    H116083   2.390   3.430   4.118 -1.4228 -0.0498  0.2808
 5373TIP3    H216084   2.405   3.354   3.988 -0.8329  0.8510 -0.1917
 5374TIP3   OH216085   6.996   4.472   3.928  0.1287  0.2028 -0.0655
 5374TIP3    H116086   6.909   4.505   3.907 -0.1704 -0.6427 -0.1816
 5374TIP3    H216087   7.006   4.394   3.874  0.9870  0.3273 -0.1042
 5375TIP3   OH216088   5.053   4.055   4.386 -0.1574 -0.4927  0.1698
 5375TIP3    H116089   5.105   3.995   4.332  3.8231  3.7284 -1.3361
 5375TIP3    H216090   4.993   4.097   4.324 -0.4692 -0.4747  0.4836
 5376TIP3   OH216091   5.048   4.083   1.987 -0.1606 -0.1381 -0.4601
 5376TIP3    H116092   5.095   4.167   1.985 -1.1472  0.4753  0.7564
 5376TIP3    H216093   5.063   4.045   1.900  1.9201  0.3829 -0.3801
 5377TIP3   OH216094   4.249   2.994   4.537 -0.1352  0.1870 -0.0877
 5377TIP3    H116095   4.320   3.057   4.529 -0.6166  0.5613 -1.7181
 5377TIP3    H216096   4.169   3.045   4.523 -0.7043 -0.3674  0.9602
 5378TIP3   OH216097   0.608   0.247   2.236  0.0303 -0.1312  0.1721
 5378TIP3    H116098   0.606   0.316   2.302 -1.3590  0.6236 -0.6037
 5378TIP3    H216099   0.547   0.277   2.168  0.0734 -1.7077 -0.6124
 5379TIP3   OH216100   2.242   2.473   2.817 -0.1373  0.1307 -0.2709
 5379TIP3    H116101   2.324   2.479   2.770  0.9666  0.0725  1.5557
 5379TIP3    H216102   2.189   2.413   2.765  1.9830 -1.9824 -0.1718
 5380TIP3   OH216103   5.939   4.189   5.687  0.0911  0.3643  0.3675
 5380TIP3    H116104   5.873   4.255   5.667 -0.3557 -0.4044 -0.8287
 5380TIP3    H216105   5.957   4.148   5.603  0.8538 -0.5882  0.9779
 5381TIP3   OH216106   5.688   6.465   3.689  0.1779  0.1888 -0.2946
 5381TIP3    H116107   5.768   6.504   3.726  0.8867 -1.9925  0.6698
 5381TIP3    H216108   5.715   6.432   3.603 -0.2643  1.2877 -0.8648
 5382TIP3   OH216109   7.037   2.566   5.819 -0.0792 -0.3772  0.1627
 5382TIP3    H116110   7.055   2.561   5.725 -0.2613  0.9450  0.0414
 5382TIP3    H216111   7.004   2.479   5.841 -0.2499 -0.6418 -1.0463
 5383TIP3   OH216112   4.953   4.401   0.697  0.5713 -0.0450  0.2264
 5383TIP3    H116113   4.996   4.319   0.673  3.2109  1.6995 -1.5414
 5383TIP3    H216114   4.955   4.403   0.792  2.2680 -1.1581  0.2513
 5384TIP3   OH216115   6.910   6.006   3.041 -0.2838  0.0858  0.5836
 5384TIP3    H116116   6.853   5.966   3.107  0.3652 -1.7205  0.1220
 5384TIP3    H216117   6.921   5.938   2.975 -1.3274  2.0007 -1.7075
 5385TIP3   OH216118   7.092   5.529   0.610 -0.4308 -0.0911 -0.5692
 5385TIP3    H116119   7.004   5.563   0.627 -0.5860  0.3207 -2.1230
 5385TIP3    H216120   7.142   5.605   0.580 -0.0406 -0.6966 -1.4734
 5386TIP3   OH216121   3.978   3.294   5.859  0.0497  0.2758  0.1765
 5386TIP3    H116122   4.019   3.293   5.772  0.1115 -0.5441  0.2085
 5386TIP3    H216123   3.955   3.386   5.873 -0.6250  0.3122 -1.0118
 5387TIP3   OH216124   1.613   5.107   2.405  0.2767  0.4745  0.2630
 5387TIP3    H116125   1.636   5.200   2.396  0.6580  0.4970  1.3619
 5387TIP3    H216126   1.541   5.106   2.469  1.0526 -0.0770  1.1415
 5388TIP3   OH216127   1.475   4.426   5.507  0.0396 -0.2273 -0.7320
 5388TIP3    H116128   1.559   4.469   5.524  1.6198 -2.6359 -1.9833
 5388TIP3    H216129   1.453   4.452   5.417  0.2734 -0.8753 -0.9796
 5389TIP3   OH216130   6.300   6.428   3.989  0.6515 -0.3940 -0.4802
 5389TIP3    H116131   6.243   6.354   4.013 -0.6995  0.1157 -1.9342
 5389TIP3    H216132   6.255   6.504   4.024  1.7778 -0.1723  0.5561
 5390TIP3   OH216133   4.226   0.199   2.304 -0.1829 -0.2390 -0.2467
 5390TIP3    H116134   4.290   0.139   2.343 -0.8105 -0.3332  0.6869
 5390TIP3    H216135   4.242   0.283   2.347 -1.2189 -0.4683  0.6404
 5391TIP3   OH216136   5.641   4.029   2.011  0.9221  0.3058  0.3737
 5391TIP3    H116137   5.634   3.993   1.923 -0.8821  0.2667  0.4881
 5391TIP3    H216138   5.734   4.049   2.022  1.3866 -0.9017 -1.0392
 5392TIP3   OH216139   5.691   0.512   2.624 -0.0756  0.7031 -0.0473
 5392TIP3    H116140   5.718   0.450   2.692  0.4651 -0.2103 -1.0548
 5392TIP3    H216141   5.726   0.475   2.543 -2.1892  0.8165 -1.0830
 5393TIP3   OH216142   4.704   1.457   0.176  0.5357 -0.3234  0.2318
 5393TIP3    H116143   4.745   1.374   0.150  0.4043 -0.2088 -0.3600
 5393TIP3    H216144   4.619   1.456   0.132 -0.5087 -0.9605  2.1304
 5394TIP3   OH216145   1.390   3.488   5.060  0.2470 -0.3097  0.3288
 5394TIP3    H116146   1.421   3.547   4.991 -1.2666 -0.0553 -0.1775
 5394TIP3    H216147   1.428   3.523   5.140  2.9800 -1.2713 -0.4320
 5395TIP3   OH216148   0.813   3.119   0.562  0.2285  0.0672  0.0054
 5395TIP3    H116149   0.768   3.108   0.478  1.9981 -0.1766 -0.9671
 5395TIP3    H216150   0.898   3.078   0.549  1.7804  2.7783  0.8846
 5396TIP3   OH216151   4.477   4.763   2.208 -0.5673 -0.2983 -0.3653
 5396TIP3    H116152   4.513   4.703   2.143  0.6743 -1.2557  1.1126
 5396TIP3    H216153   4.399   4.719   2.241 -1.4741  0.4117 -1.5064
 5397TIP3   OH216154   2.021   3.609   0.808 -0.0554  0.4730 -0.0585
 5397TIP3    H116155   2.080   3.561   0.749 -1.5386  0.5625 -1.6800
 5397TIP3    H216156   2.030   3.700   0.780 -0.0377  0.6464  0.5193
 5398TIP3   OH216157   7.209   2.988   0.376 -0.1908 -0.0783  0.2662
 5398TIP3    H116158   7.117   3.001   0.399  0.2147  0.7838  1.5587
 5398TIP3    H216159   7.218   2.893   0.367 -1.0207 -0.2454  1.0316
 5399TIP3   OH216160   2.031   2.407   1.013 -0.0045  0.1936  0.0078
 5399TIP3    H116161   1.976   2.393   1.090  0.6261 -0.0625  0.4176
 5399TIP3    H216162   2.070   2.322   0.996 -2.8822 -0.7979 -2.8087
 5400TIP3   OH216163   0.561   4.249   1.611 -0.0476 -0.4096  0.4358
 5400TIP3    H116164   0.577   4.167   1.659  0.5331  0.1968  1.3238
 5400TIP3    H216165   0.517   4.305   1.675 -1.3085 -0.3377 -0.4600
 5401TIP3   OH216166   3.078   3.457   3.718 -0.5125  0.2338 -0.2426
 5401TIP3    H116167   3.130   3.404   3.779 -2.2044 -1.0196  0.1794
 5401TIP3    H216168   3.019   3.508   3.774 -0.1495  1.2161 -0.7329
 5402TIP3   OH216169   4.088   1.121   1.212 -0.2248  0.3778  0.0872
 5402TIP3    H116170   4.163   1.174   1.185 -1.1402  1.2045 -0.9102
 5402TIP3    H216171   4.024   1.185   1.245  0.4250 -0.4717  3.3880
 5403TIP3   OH216172   3.589   4.249   5.263 -0.0473 -0.0234  0.0015
 5403TIP3    H116173   3.585   4.154   5.251  0.0958 -0.0267 -0.0208
 5403TIP3    H216174   3.531   4.284   5.196  1.1428 -0.0131 -1.0664
 5404TIP3   OH216175   2.140   5.098   5.566  0.4412 -0.2249 -0.3960
 5404TIP3    H116176   2.178   5.171   5.615  1.8954 -0.8335 -0.5514
 5404TIP3    H216177   2.153   5.022   5.623 -0.4565 -0.4794 -0.5156
 5405TIP3   OH216178   5.648   2.279   4.747  0.6935 -0.0981  0.6789
 5405TIP3    H116179   5.680   2.250   4.662 -3.0911  0.2303 -1.0319
 5405TIP3    H216180   5.629   2.197   4.794  0.9461 -0.2836  0.4617
 5406TIP3   OH216181   4.232   0.688   3.721 -0.2639  0.2536  0.4041
 5406TIP3    H116182   4.235   0.680   3.626 -1.6351  1.1476  0.2682
 5406TIP3    H216183   4.231   0.598   3.753 -2.3390 -0.0966 -0.5436
 5407TIP3   OH216184   7.155   4.048   0.639 -0.2249  0.2144  0.1599
 5407TIP3    H116185   7.146   4.111   0.568 -1.4964 -1.6033 -1.4130
 5407TIP3    H216186   7.087   4.073   0.702 -1.1107  0.1316 -0.7273
 5408TIP3   OH216187   0.471   3.167   5.813 -0.2112  0.2628  0.0412
 5408TIP3    H116188   0.399   3.110   5.785  0.0088 -1.2717  2.2750
 5408TIP3    H216189   0.545   3.108   5.826  0.6458  1.3921  0.4606
 5409TIP3   OH216190   3.261   1.829   0.883  0.4956 -0.1320 -0.4705
 5409TIP3    H116191   3.307   1.858   0.962 -0.9355 -3.1237  1.6522
 5409TIP3    H216192   3.170   1.854   0.898  0.4247  0.6472 -1.9822
 5410TIP3   OH216193   2.030   5.314   4.034 -0.3231  0.1247 -0.3973
 5410TIP3    H116194   2.022   5.303   3.939 -0.2719  1.1531 -0.5288
 5410TIP3    H216195   1.976   5.390   4.054 -0.2466 -0.0207  0.3861
 5411TIP3   OH216196   4.758   0.558   4.005 -0.0628  0.0682  0.3238
 5411TIP3    H116197   4.694   0.629   4.003 -0.9330 -0.6952 -0.8094
 5411TIP3    H216198   4.804   0.565   3.921 -2.1276 -2.3497 -1.1584
 5412TIP3   OH216199   5.536   5.291   1.188 -0.4228  0.2856 -0.4792
 5412TIP3    H116200   5.531   5.244   1.105  0.9760  1.6422 -1.3779
 5412TIP3    H216201   5.596   5.239   1.242 -0.7415 -0.1951 -0.5821
 5413TIP3   OH216202   4.303   5.436   1.363 -0.1879 -0.0887  0.4670
 5413TIP3    H116203   4.254   5.374   1.417 -0.3611 -0.1274  0.2661
 5413TIP3    H216204   4.365   5.476   1.424 -0.9593  0.4908  0.8858
 5414TIP3   OH216205   2.501   2.861   2.393  0.2548  0.0689  0.5154
 5414TIP3    H116206   2.528   2.949   2.368 -0.5076  0.3382  0.6149
 5414TIP3    H216207   2.412   2.853   2.359  0.2245 -0.5657  0.7387
 5415TIP3   OH216208   4.895   1.236   2.810 -0.3426  0.5126 -0.2820
 5415TIP3    H116209   4.814   1.231   2.759 -0.0281 -1.0334 -0.6948
 5415TIP3    H216210   4.959   1.275   2.749  0.3314 -2.3632 -1.6042
 5416TIP3   OH216211   2.654   6.076   3.289  0.0966  0.3146 -0.8141
 5416TIP3    H116212   2.620   6.020   3.359 -0.8674  1.3992 -0.3779
 5416TIP3    H216213   2.726   6.125   3.331 -0.7038  1.2151 -0.4508
 5417TIP3   OH216214   4.973   5.320   0.316 -0.0522  0.0132 -0.1465
 5417TIP3    H116215   4.981   5.284   0.227 -1.7500 -1.3854  0.2312
 5417TIP3    H216216   5.016   5.256   0.372 -0.3903  0.1057  0.2186
 5418TIP3   OH216217   6.565   2.314   2.227  0.4534  0.3911  0.2849
 5418TIP3    H116218   6.572   2.354   2.140  1.1495  0.1471  0.2227
 5418TIP3    H216219   6.484   2.263   2.224  1.4868 -1.2898 -0.9300
 5419TIP3   OH216220   7.097   4.968   3.444 -0.0844 -0.8427 -0.6164
 5419TIP3    H116221   7.063   4.880   3.432 -2.0319 -0.1326 -0.6909
 5419TIP3    H216222   7.092   5.009   3.357 -5.1010  1.2241  0.3266
 5420TIP3   OH216223   3.245   2.519   1.237 -0.3407 -0.6239 -0.1917
 5420TIP3    H116224   3.227   2.562   1.321  0.5640  0.4441 -0.5132
 5420TIP3    H216225   3.341   2.515   1.233 -0.3950 -1.4426 -0.7941
 5421TIP3   OH216226   3.579   5.531   4.347 -0.0270  0.4161 -0.1388
 5421TIP3    H116227   3.651   5.549   4.408  0.3083  0.1113 -0.4385
 5421TIP3    H216228   3.621   5.527   4.261 -0.5145  0.9528 -0.4068
 5422TIP3   OH216229   4.391   1.143   0.571  0.4398 -0.2502 -0.4277
 5422TIP3    H116230   4.381   1.074   0.505  2.1192 -2.0154  1.0265
 5422TIP3    H216231   4.306   1.146   0.615  0.5138 -1.8570 -0.1243
 5423TIP3   OH216232   4.332   6.340   0.461 -0.3526 -0.0243 -0.7493
 5423TIP3    H116233   4.247   6.357   0.419 -1.0477  2.2267  1.3034
 5423TIP3    H216234   4.322   6.254   0.502 -2.2202  0.7574  0.5945
 5424TIP3   OH216235   2.801   2.274   0.819  0.5951  0.3006  0.6765
 5424TIP3    H116236   2.828   2.336   0.887  1.1004 -0.3482  1.0679
 5424TIP3    H216237   2.882   2.249   0.775  0.2328  1.0790 -0.5004
 5425TIP3   OH216238   2.289   5.147   1.529 -0.5810  0.4319  0.2485
 5425TIP3    H116239   2.275   5.101   1.611  0.0735  1.0992  0.7493
 5425TIP3    H216240   2.230   5.223   1.532  1.1119  1.7903  1.2028
 5426TIP3   OH216241   6.260   5.723   1.639 -0.0170  0.1825 -0.2856
 5426TIP3    H116242   6.192   5.657   1.624 -0.5960  0.8524 -0.6549
 5426TIP3    H216243   6.337   5.672   1.665 -0.1912 -0.7146 -1.4302
 5427TIP3   OH216244   6.417   1.388   0.678 -0.8425  0.2445 -0.3157
 5427TIP3    H116245   6.377   1.343   0.752  0.6143 -0.4816  0.0709
 5427TIP3    H216246   6.457   1.318   0.626  0.3200  0.9726 -0.4259
 5428TIP3   OH216247   5.138   3.184   1.608  0.0076 -0.2055  0.3219
 5428TIP3    H116248   5.161   3.268   1.570  1.1267 -0.7569 -0.2599
 5428TIP3    H216249   5.082   3.206   1.682  0.5180  1.0579  0.3584
 5429TIP3   OH216250   3.017   3.656   1.000 -0.2724 -0.4716  0.3375
 5429TIP3    H116251   2.961   3.721   0.957  0.7085 -0.2766 -0.7212
 5429TIP3    H216252   2.986   3.653   1.090 -0.7055  1.0781  0.2721
 5430TIP3   OH216253   3.060   5.553   4.638  0.1937 -0.2563  0.5192
 5430TIP3    H116254   3.031   5.559   4.547 -1.3458 -0.3770  0.9798
 5430TIP3    H216255   3.066   5.459   4.656  2.2094 -0.2750  0.0663
 5431TIP3   OH216256   0.250   2.211   5.267 -0.4627 -0.0197  0.1287
 5431TIP3    H116257   0.232   2.128   5.310  1.0518 -1.1253 -1.2260
 5431TIP3    H216258   0.188   2.213   5.193  0.0619 -0.3748 -0.3305
 5432TIP3   OH216259   6.337   0.053   4.611 -0.0404 -0.3782 -0.2089
 5432TIP3    H116260   6.359  -0.038   4.631 -1.9982 -0.6070  1.2083
 5432TIP3    H216261   6.397   0.078   4.540  1.3304 -2.3721  0.1775
 5433TIP3   OH216262   3.146   2.256   0.891 -0.4534 -0.0145  0.4461
 5433TIP3    H116263   3.233   2.293   0.898 -0.1521 -0.8345  1.1657
 5433TIP3    H216264   3.087   2.332   0.890  0.2075  0.5077  0.8902
 5434TIP3   OH216265   5.583   1.087   3.886 -0.3783  0.2264  0.0925
 5434TIP3    H116266   5.678   1.081   3.898 -0.3221  0.8917  0.0138
 5434TIP3    H216267   5.547   1.035   3.958  0.0542 -2.7350 -1.6780
 5435TIP3   OH216268   3.138   1.879   2.020  0.5560  0.0870 -0.5309
 5435TIP3    H116269   3.154   1.974   2.019  0.8100  0.0839  1.2451
 5435TIP3    H216270   3.181   1.848   2.100 -0.4910 -1.3698 -0.5023
 5436TIP3   OH216271   4.235   6.315   1.513  0.1544  0.4927  0.5031
 5436TIP3    H116272   4.246   6.221   1.529 -0.4466  0.6924  2.3577
 5436TIP3    H216273   4.272   6.329   1.426 -0.9824 -1.6944 -0.4072
 5437TIP3   OH216274   4.757   4.793   5.858 -0.4505 -0.1872  0.3736
 5437TIP3    H116275   4.730   4.881   5.830 -0.4175 -0.3538 -0.2031
 5437TIP3    H216276   4.704   4.734   5.806  1.0683 -0.5165 -0.8834
 5438TIP3   OH216277   4.739   0.522   1.471 -0.3146 -0.5917  0.0520
 5438TIP3    H116278   4.784   0.538   1.388  1.7742 -1.7791  0.8808
 5438TIP3    H216279   4.711   0.431   1.467 -3.8376  0.3393 -0.8714
 5439TIP3   OH216280   2.972   3.159   2.601 -0.0745  0.2781  0.3576
 5439TIP3    H116281   2.986   3.066   2.585 -0.2492  0.2663  0.2728
 5439TIP3    H216282   2.974   3.167   2.697 -1.9078 -0.1227  0.4818
 5440TIP3   OH216283   5.398   5.202   1.799  0.0939 -0.4891 -0.0876
 5440TIP3    H116284   5.434   5.286   1.828 -0.5911 -0.6383  1.3119
 5440TIP3    H216285   5.305   5.207   1.822 -0.2205 -1.1485 -1.1540
 5441TIP3   OH216286   0.383   3.350   1.881  0.4535  0.1062  0.2883
 5441TIP3    H116287   0.470   3.319   1.855 -0.1907  0.5794 -2.8571
 5441TIP3    H216288   0.323   3.301   1.824 -1.2839  0.6213  1.5977
 5442TIP3   OH216289   3.473   5.591   3.692  0.2569 -0.4033  0.2087
 5442TIP3    H116290   3.488   5.686   3.699  1.2462 -0.4773 -0.5539
 5442TIP3    H216291   3.550   5.552   3.732  0.0627 -0.8779  0.1214
 5443TIP3   OH216292   0.297   3.607   0.076  0.4484 -0.0018 -0.5016
 5443TIP3    H116293   0.295   3.568  -0.011 -1.0175 -1.8447  0.2834
 5443TIP3    H216294   0.258   3.694   0.065 -0.5260 -0.5531 -1.5232
 5444TIP3   OH216295   6.807   2.707   4.294 -0.5066 -0.5126  0.7374
 5444TIP3    H116296   6.717   2.694   4.324 -2.0885  2.6105 -1.9787
 5444TIP3    H216297   6.815   2.651   4.217 -1.5786  1.8408 -1.2188
 5445TIP3   OH216298   2.553   0.959   3.732 -0.0196 -0.0768  0.8097
 5445TIP3    H116299   2.550   0.864   3.719  1.4134 -0.1628  0.8850
 5445TIP3    H216300   2.513   0.996   3.653  1.5764 -0.7309 -0.3698
 5446TIP3   OH216301   2.430   0.528   5.769  0.0040 -0.2484 -0.2588
 5446TIP3    H116302   2.421   0.620   5.793  2.0593 -0.1122  0.1453
 5446TIP3    H216303   2.463   0.529   5.679  1.2810 -0.5393  0.1920
 5447TIP3   OH216304   0.906   0.595   2.774  0.3620  0.2174 -0.0845
 5447TIP3    H116305   1.001   0.603   2.762  0.2730 -1.2231 -2.5805
 5447TIP3    H216306   0.878   0.538   2.703 -2.2991 -0.0804  1.0774
 5448TIP3   OH216307   4.718   0.510   0.801 -0.8522 -0.1073 -0.1035
 5448TIP3    H116308   4.758   0.587   0.759  0.4177 -0.0597  1.1187
 5448TIP3    H216309   4.634   0.542   0.834 -0.7225  0.5265 -0.3613
 5449TIP3   OH216310   0.378   6.770   4.455  0.1163  0.0174 -0.3176
 5449TIP3    H116311   0.404   6.831   4.385  0.3218 -0.1605 -0.3967
 5449TIP3    H216312   0.346   6.693   4.409 -0.1046  0.0484 -0.2160
 5450TIP3   OH216313   2.935   2.922   2.864 -0.2422  0.3817  0.0788
 5450TIP3    H116314   2.917   2.831   2.887 -0.6405  0.1816 -0.9911
 5450TIP3    H216315   2.850   2.965   2.869 -0.3066  0.3726 -0.8216
 5451TIP3   OH216316   6.551   2.387   0.482  0.5917 -0.5556 -0.1898
 5451TIP3    H116317   6.543   2.430   0.567 -1.8949 -1.4838  0.1095
 5451TIP3    H216318   6.571   2.459   0.421 -0.6042  0.5952  0.7258
 5452TIP3   OH216319   2.775   3.146   1.228 -0.0986 -0.0096  0.1751
 5452TIP3    H116320   2.843   3.210   1.248 -0.9161  0.7436  0.6148
 5452TIP3    H216321   2.698   3.199   1.206 -1.0594 -0.8229  1.4779
 5453TIP3   OH216322   6.170   2.494   3.926  0.6531  0.3384  0.9925
 5453TIP3    H116323   6.188   2.417   3.980  0.6350 -0.4107 -0.0384
 5453TIP3    H216324   6.114   2.549   3.981 -1.6594 -1.6414  0.7910
 5454TIP3   OH216325   5.076   1.283   2.585  0.2980 -0.1303  0.1612
 5454TIP3    H116326   5.021   1.306   2.510 -0.5897 -0.4742  0.6909
 5454TIP3    H216327   5.165   1.276   2.549 -0.1902 -0.7987 -0.9471
 5455TIP3   OH216328   2.087   6.282   1.390  0.3531 -0.1922 -0.1697
 5455TIP3    H116329   2.120   6.195   1.369 -2.9495 -1.1595 -1.9088
 5455TIP3    H216330   2.010   6.266   1.445  0.3946  1.7387  0.5448
 5456TIP3   OH216331   1.290   3.261   3.977  1.5774 -0.0339  0.3061
 5456TIP3    H116332   1.322   3.312   4.052 -0.4101  1.2309  0.3696
 5456TIP3    H216333   1.351   3.282   3.906  0.6687  2.7656  0.2316
 5457TIP3   OH216334   5.518   3.240   2.257  0.9098  0.3867 -0.6155
 5457TIP3    H116335   5.553   3.152   2.241  1.2275  0.4262 -0.1723
 5457TIP3    H216336   5.432   3.224   2.296  0.3902  0.2893 -1.7801
 5458TIP3   OH216337   5.219   0.376   4.766 -0.5683 -0.3986 -0.1720
 5458TIP3    H116338   5.304   0.410   4.794 -0.8812  0.8624 -0.6727
 5458TIP3    H216339   5.171   0.360   4.847  0.1894 -1.2803  0.1204
 5459TIP3   OH216340   0.353   1.141   4.287 -0.5691  0.4330 -0.0542
 5459TIP3    H116341   0.283   1.091   4.245 -1.0412  1.4391 -0.5058
 5459TIP3    H216342   0.391   1.080   4.351 -0.2753 -0.9214 -1.4497
 5460TIP3   OH216343   4.696   0.836   2.270  0.2138 -0.4874 -0.5641
 5460TIP3    H116344   4.743   0.888   2.204  0.6644 -0.7240 -0.4380
 5460TIP3    H216345   4.766   0.798   2.324 -0.1368  1.4004  1.3919
 5461TIP3   OH216346   0.857   6.192   3.723  0.2076 -0.3519 -0.3880
 5461TIP3    H116347   0.917   6.181   3.649  1.0697 -1.5601  0.4431
 5461TIP3    H216348   0.912   6.177   3.800 -0.8906 -0.1598  0.4548
 5462TIP3   OH216349   0.325   1.794   3.521 -0.1778 -0.2564  0.1553
 5462TIP3    H116350   0.337   1.858   3.451  0.3072  1.3040  1.5921
 5462TIP3    H216351   0.291   1.845   3.594 -1.6793 -2.0153  0.7686
 5463TIP3   OH216352   5.991   2.069   1.527  0.4158  0.0324 -0.5494
 5463TIP3    H116353   5.925   2.063   1.457  0.1817 -1.4662 -0.2312
 5463TIP3    H216354   5.942   2.103   1.602  0.2924  0.0971 -0.6573
 5464TIP3   OH216355   6.542   4.558   4.367 -0.4491  0.7323 -0.2046
 5464TIP3    H116356   6.561   4.500   4.440  2.8621 -0.4290 -1.7976
 5464TIP3    H216357   6.529   4.644   4.407 -2.5507 -0.4856  1.9599
 5465TIP3   OH216358   3.804   5.609   0.864 -0.3677  0.9027 -0.7846
 5465TIP3    H116359   3.863   5.650   0.927 -0.6017 -1.0059  0.7487
 5465TIP3    H216360   3.721   5.654   0.877 -0.5646  0.1620  0.7158
 5466TIP3   OH216361   5.092   0.779   2.178 -0.1416 -0.5738 -0.3518
 5466TIP3    H116362   5.031   0.844   2.142 -1.4920 -1.3699  0.4524
 5466TIP3    H216363   5.131   0.738   2.101 -0.1720  0.3341 -0.8701
 5467TIP3   OH216364   2.150   3.453   3.170  0.4299 -0.5634  0.4522
 5467TIP3    H116365   2.119   3.363   3.180 -0.5635 -0.1334  1.4595
 5467TIP3    H216366   2.242   3.450   3.198  0.6000 -1.3874 -0.1820
 5468TIP3   OH216367   6.106   6.351   5.366 -0.9481 -0.2825  1.0216
 5468TIP3    H116368   6.087   6.340   5.459 -0.1190 -0.1904  1.2140
 5468TIP3    H216369   6.020   6.362   5.325 -1.2723  0.7295  1.9175
 5469TIP3   OH216370   6.832   5.418   2.235  0.3170 -0.1636  0.0463
 5469TIP3    H116371   6.917   5.448   2.204  0.3233 -0.2573 -0.0275
 5469TIP3    H216372   6.776   5.495   2.230  0.5902  0.0975  0.8269
 5470TIP3   OH216373   4.820   3.872   2.263  0.1133  0.1157  0.0974
 5470TIP3    H116374   4.898   3.856   2.210  0.6948  2.6774  0.0599
 5470TIP3    H216375   4.753   3.898   2.200 -0.5146 -1.0550  0.2428
 5471TIP3   OH216376   7.140   6.182   1.022  0.1652 -0.3674  0.0652
 5471TIP3    H116377   7.089   6.165   0.942  2.5220 -0.0048 -1.6371
 5471TIP3    H216378   7.171   6.272   1.012  2.7917 -1.1850 -0.0842
 5472TIP3   OH216379   5.603   5.962   5.474 -0.2064 -0.1895 -0.1346
 5472TIP3    H116380   5.557   5.890   5.431  0.6310 -1.1537  0.5432
 5472TIP3    H216381   5.666   5.992   5.409  0.1766 -0.7901 -0.0485
 5473TIP3   OH216382   1.361   4.837   4.338  0.3995 -0.5676 -0.1229
 5473TIP3    H116383   1.359   4.878   4.251  1.0787 -1.6498 -0.6735
 5473TIP3    H216384   1.448   4.855   4.371  0.0431  0.0906  0.4723
 5474TIP3   OH216385   6.630   2.679   0.945  0.4908 -0.3936 -0.1841
 5474TIP3    H116386   6.558   2.715   0.995  0.2229 -1.6567  0.3749
 5474TIP3    H216387   6.702   2.672   1.008  0.7805 -0.1308 -0.4785
 5475TIP3   OH216388   3.765   6.371   3.779 -0.1708  0.0418  0.2764
 5475TIP3    H116389   3.817   6.355   3.858 -1.2095 -1.3662  0.7018
 5475TIP3    H216390   3.685   6.413   3.810 -1.0419 -1.4468  0.1299
 5476TIP3   OH216391   1.602   1.623   2.086 -0.8184 -0.0380  0.3932
 5476TIP3    H116392   1.669   1.643   2.152 -1.2144  2.5518  0.1197
 5476TIP3    H216393   1.626   1.678   2.011 -0.7013 -2.4805 -1.4837
 5477TIP3   OH216394   1.967   1.558   3.385  0.9920 -0.0298  0.4306
 5477TIP3    H116395   1.932   1.619   3.320  0.9506 -2.3380 -1.9050
 5477TIP3    H216396   1.972   1.609   3.466 -0.4756  2.5691 -0.9705
 5478TIP3   OH216397   0.312   0.378   1.813  0.2141 -0.2263  0.0644
 5478TIP3    H116398   0.401   0.350   1.789 -0.1460  0.2822 -2.0283
 5478TIP3    H216399   0.262   0.372   1.732 -1.0642  1.8319  0.6299
 5479TIP3   OH216400   6.643   1.770   1.315 -0.2372  0.1553 -0.2259
 5479TIP3    H116401   6.610   1.855   1.286 -0.1305 -0.3209 -1.8232
 5479TIP3    H216402   6.589   1.749   1.392  0.7107  2.2916  1.1042
 5480TIP3   OH216403   6.935   1.070   2.896  0.3405 -0.0806 -0.1998
 5480TIP3    H116404   7.026   1.082   2.924  0.3499  0.9243 -0.6087
 5480TIP3    H216405   6.883   1.115   2.963  0.1888 -0.0864 -0.3131
 5481TIP3   OH216406   5.388   2.563   0.967 -0.0502  0.3771 -0.2544
 5481TIP3    H116407   5.357   2.654   0.963 -0.5325  0.2473  0.4142
 5481TIP3    H216408   5.438   2.552   0.886 -0.6012  1.0190 -0.7010
 5482TIP3   OH216409   3.920   1.814   0.610 -0.0340 -0.3164  0.4802
 5482TIP3    H116410   3.903   1.788   0.520  0.1972 -3.3057  1.1808
 5482TIP3    H216411   3.833   1.815   0.651 -0.1254  0.9097  0.2846
 5483TIP3   OH216412   4.874   0.477   2.686  0.4232 -0.2042  0.0539
 5483TIP3    H116413   4.943   0.411   2.689  0.6463 -0.3919 -3.9355
 5483TIP3    H216414   4.921   0.560   2.675  0.0326  0.0657  0.3850
 5484TIP3   OH216415   3.338   1.465   3.729 -0.6419 -0.0825  0.2352
 5484TIP3    H116416   3.409   1.402   3.740 -0.6409 -0.2452 -0.6563
 5484TIP3    H216417   3.278   1.423   3.667 -2.7397 -1.0044  2.6956
 5485TIP3   OH216418   1.010   5.784   2.934  0.5409  0.4589 -0.1840
 5485TIP3    H116419   0.977   5.807   3.020  0.2240  2.8508 -0.8694
 5485TIP3    H216420   0.990   5.691   2.924 -1.1941  0.6029  1.5280
 5486TIP3   OH216421   3.826   0.811   4.189 -0.3169  0.3160 -0.1816
 5486TIP3    H116422   3.762   0.759   4.238  0.0000 -0.0241 -0.1232
 5486TIP3    H216423   3.904   0.756   4.186 -0.5518  0.0195 -1.6806
 5487TIP3   OH216424   4.488   4.006   5.124  0.4984  0.2940  0.4472
 5487TIP3    H116425   4.497   4.055   5.042  0.6075  0.5266  0.5965
 5487TIP3    H216426   4.567   3.952   5.127  1.2028  1.3050  1.0687
 5488TIP3   OH216427   5.067   0.995   3.754  0.0320 -0.1174 -0.2348
 5488TIP3    H116428   5.146   0.941   3.746 -0.3977 -0.5467 -1.8862
 5488TIP3    H216429   5.022   0.961   3.832 -0.0285 -1.9055 -1.0040
 5489TIP3   OH216430   1.132   5.273   4.710  0.4540 -0.2165 -0.7177
 5489TIP3    H116431   1.089   5.256   4.626  0.0805 -2.1267 -0.1768
 5489TIP3    H216432   1.217   5.229   4.703  0.3017 -0.6448  0.0091
 5490TIP3   OH216433   2.333   0.893   3.328 -0.2831 -0.0113 -0.4493
 5490TIP3    H116434   2.386   0.972   3.316 -0.5322  0.2855  0.3786
 5490TIP3    H216435   2.243   0.923   3.315 -0.4991  0.1522  1.2604
 5491TIP3   OH216436   2.637   1.093   4.805 -0.6049  0.2086 -0.0492
 5491TIP3    H116437   2.589   1.142   4.738 -0.1254  1.8331  0.7484
 5491TIP3    H216438   2.689   1.030   4.755  0.1395  1.7253 -1.3018
 5492TIP3   OH216439   3.844   5.722   1.858 -0.0376 -0.7669  0.3756
 5492TIP3    H116440   3.926   5.770   1.875  0.2147  0.0219 -2.5566
 5492TIP3    H216441   3.873   5.637   1.825 -0.4086 -0.8463  0.2562
 5493TIP3   OH216442   5.367   0.459   0.553 -0.3073  0.2407  0.0618
 5493TIP3    H116443   5.304   0.530   0.546  0.1283  0.6414  0.1678
 5493TIP3    H216444   5.386   0.435   0.463 -1.4078 -0.6071  0.0318
 5494TIP3   OH216445   0.722   1.203   0.752  0.4776 -0.4757 -0.5275
 5494TIP3    H116446   0.679   1.259   0.688  1.4516  3.3424  1.8438
 5494TIP3    H216447   0.810   1.189   0.716  0.5681  0.4516 -0.6910
 5495TIP3   OH216448   4.612   5.578   3.157 -0.1609 -0.3712  0.2634
 5495TIP3    H116449   4.597   5.485   3.140 -0.9018 -0.3349  0.6777
 5495TIP3    H216450   4.549   5.601   3.225  1.3828 -0.0471  1.6508
 5496TIP3   OH216451   3.658   0.433   5.477  0.0494 -0.5419 -0.1278
 5496TIP3    H116452   3.613   0.495   5.533  0.9779  0.6888 -0.6770
 5496TIP3    H216453   3.652   0.349   5.522  0.0485  0.2482  1.3759
 5497TIP3   OH216454   0.867  -0.020   0.053 -0.4000  0.1017 -0.4423
 5497TIP3    H116455   0.792  -0.027  -0.006 -0.4635 -0.1545 -0.3353
 5497TIP3    H216456   0.852   0.060   0.103  0.2492  0.9778 -1.5918
 5498TIP3   OH216457   0.087   2.293   1.634 -0.2450  0.8757  0.4160
 5498TIP3    H116458   0.017   2.354   1.612 -0.3844  0.5030 -0.1906
 5498TIP3    H216459   0.122   2.265   1.550 -1.3366 -1.2089  0.5893
 5499TIP3   OH216460   0.318   2.673   4.813  0.3961  0.4959 -0.0631
 5499TIP3    H116461   0.387   2.695   4.751  1.9546 -1.4531  0.8547
 5499TIP3    H216462   0.237   2.678   4.762  1.5218 -0.0522 -1.9989
 5500TIP3   OH216463   2.507   0.601   2.200  0.2300  0.0834 -0.1214
 5500TIP3    H116464   2.439   0.664   2.220  0.4247  0.0731  0.6211
 5500TIP3    H216465   2.509   0.596   2.105 -0.7294  0.1622 -0.1528
 5501TIP3   OH216466   1.938   3.731   4.734 -0.1536  0.2776 -0.2357
 5501TIP3    H116467   1.930   3.651   4.683 -0.4861 -0.9219  1.6143
 5501TIP3    H216468   2.022   3.769   4.706  0.2885 -1.0089 -0.7353
 5502TIP3   OH216469   2.160   0.549   2.857  0.3442  0.2193 -0.1017
 5502TIP3    H116470   2.086   0.525   2.913  0.1063  0.3534 -0.3604
 5502TIP3    H216471   2.163   0.481   2.790  1.6320 -0.8625  0.9990
 5503TIP3   OH216472   0.587   0.830   3.248 -0.1922 -0.2093  0.3224
 5503TIP3    H116473   0.593   0.743   3.209  1.3268  0.7634 -1.7829
 5503TIP3    H216474   0.658   0.880   3.208 -1.0289  2.0402  1.4430
 5504TIP3   OH216475   0.712   5.793   3.113  0.0791 -0.3385 -0.3449
 5504TIP3    H116476   0.769   5.722   3.143  1.1168  0.6195  0.0129
 5504TIP3    H216477   0.631   5.749   3.088  0.3474 -1.5506  0.7706
 5505TIP3   OH216478   0.946   0.771   0.089  0.0217 -0.2331 -0.1295
 5505TIP3    H116479   0.879   0.727   0.141  1.1807 -0.5713  1.1225
 5505TIP3    H216480   0.897   0.814   0.019 -1.4662 -0.7255  0.5665
 5506TIP3   OH216481   3.520   4.900   5.585  0.2798 -0.0666  0.3518
 5506TIP3    H116482   3.601   4.907   5.536  0.1739  0.8656  0.2954
 5506TIP3    H216483   3.534   4.827   5.645  1.1814  0.1342  0.3911
 5507TIP3   OH216484   0.330   0.233   0.597 -0.0900 -0.1538 -0.2748
 5507TIP3    H116485   0.282   0.312   0.622  1.5438  0.7921  0.0961
 5507TIP3    H216486   0.371   0.256   0.513 -0.1979 -0.8936 -0.5367
 5508TIP3   OH216487   2.957   6.235   2.235  0.0083  0.3553 -0.1035
 5508TIP3    H116488   2.995   6.172   2.297 -0.3222  1.3916  1.2043
 5508TIP3    H216489   2.955   6.188   2.152  3.1321 -0.1473 -0.0367
 5509TIP3   OH216490   0.861   3.611   4.670 -0.1875 -0.0885  0.2438
 5509TIP3    H116491   0.890   3.692   4.713 -0.5921 -0.7729  1.8982
 5509TIP3    H216492   0.848   3.636   4.579  0.2078  1.5826  0.6032
 5510TIP3   OH216493   6.580   5.933   0.485  0.1274  0.2926 -0.5227
 5510TIP3    H116494   6.628   6.010   0.454  0.4401 -0.1559 -1.1951
 5510TIP3    H216495   6.580   5.941   0.580 -0.4495  1.4821 -0.6032
 5511TIP3   OH216496   4.849   5.117   5.016 -0.6571 -0.5276 -0.1911
 5511TIP3    H116497   4.871   5.159   4.933  0.2197 -1.1314 -0.2831
 5511TIP3    H216498   4.765   5.155   5.042 -0.3340  0.5731 -0.7307
 5512TIP3   OH216499   6.713   1.135   1.691  0.6346 -0.0748 -0.2222
 5512TIP3    H116500   6.651   1.200   1.657  0.7324 -0.0729 -0.3969
 5512TIP3    H216501   6.799   1.174   1.676  0.6726  1.5824  3.1992
 5513TIP3   OH216502   0.954   3.201   1.930 -0.1703 -0.1335  0.7865
 5513TIP3    H116503   0.954   3.160   2.016 -0.1301 -2.3884 -0.2218
 5513TIP3    H216504   1.002   3.140   1.874 -0.3528  1.1791 -0.8802
 5514TIP3   OH216505   5.679   5.603   3.186  0.5935 -0.1144  0.3526
 5514TIP3    H116506   5.747   5.550   3.229  1.5612  0.7945 -0.0272
 5514TIP3    H216507   5.600   5.585   3.237  1.2862 -0.5639  1.3128
 5515TIP3   OH216508   2.614   6.268   4.877  0.1164 -0.0246  0.2105
 5515TIP3    H116509   2.525   6.269   4.843  0.3956  2.1275 -0.5998
 5515TIP3    H216510   2.645   6.179   4.860 -1.7440 -0.7009  0.1960
 5516TIP3   OH216511   6.693   2.096   4.385  0.6470  0.6951 -0.6013
 5516TIP3    H116512   6.651   2.015   4.415 -0.0925  1.4910  0.6080
 5516TIP3    H216513   6.635   2.129   4.316  1.0625  0.1015 -1.2469
 5517TIP3   OH216514   0.606   3.582   3.965  0.4801  0.4792  0.4102
 5517TIP3    H116515   0.630   3.532   4.044 -1.3400 -3.2209 -1.1263
 5517TIP3    H216516   0.667   3.551   3.898 -1.7745 -1.2489 -1.0074
 5518TIP3   OH216517   4.035   4.316   3.042 -0.3960 -0.4195 -0.3013
 5518TIP3    H116518   3.961   4.372   3.017 -0.6873 -0.7124 -0.1137
 5518TIP3    H216519   4.078   4.294   2.959  0.1265  0.6272 -0.3201
 5519TIP3   OH216520   5.398   6.300   2.830 -0.1709 -0.1744 -0.3624
 5519TIP3    H116521   5.359   6.228   2.781 -1.8034 -0.3436  1.0713
 5519TIP3    H216522   5.444   6.258   2.902  0.2509  0.1560 -0.4369
 5520TIP3   OH216523   5.543   1.663   4.696 -0.8600  0.3593  0.1963
 5520TIP3    H116524   5.521   1.684   4.605 -1.5063 -0.1873  0.2250
 5520TIP3    H216525   5.639   1.661   4.697 -0.8541 -0.9231 -0.7810
 5521TIP3   OH216526   5.467   0.017   3.843  0.6681  0.0521  0.1857
 5521TIP3    H116527   5.447   0.059   3.926 -1.2177 -0.6329  0.1282
 5521TIP3    H216528   5.451   0.085   3.777 -2.2224 -0.5685  0.1029
 5522TIP3   OH216529   6.515   0.202   2.830  0.3393  0.5424  0.2009
 5522TIP3    H116530   6.467   0.208   2.747  1.0672  1.4918 -0.1681
 5522TIP3    H216531   6.485   0.120   2.869 -1.9301  1.2913  0.2040
 5523TIP3   OH216532   1.287   2.865   4.773 -0.1991  0.1149  0.2916
 5523TIP3    H116533   1.213   2.828   4.821 -0.1479 -0.8574 -0.3433
 5523TIP3    H216534   1.248   2.927   4.712 -0.5754 -0.8687 -0.4932
 5524TIP3   OH216535   6.401   5.256   0.299  0.3310  0.4791  0.2377
 5524TIP3    H116536   6.324   5.308   0.277  0.2821 -0.3787 -1.8480
 5524TIP3    H216537   6.428   5.288   0.386 -1.9133  1.2866  0.6923
 5525TIP3   OH216538   0.052   5.656   2.198  0.5529 -0.0093 -0.4414
 5525TIP3    H116539   0.107   5.687   2.126 -0.1704  3.2176  0.2515
 5525TIP3    H216540   0.082   5.706   2.274 -1.8742  0.2596  0.4059
 5526TIP3   OH216541   5.939   4.834   2.453 -0.1228 -0.2852  0.1774
 5526TIP3    H116542   5.862   4.777   2.449 -0.6423  0.4202 -0.1172
 5526TIP3    H216543   5.905   4.921   2.431  0.9050 -0.1062 -0.7645
 5527TIP3   OH216544   5.959   2.233   5.168  0.0428  0.0393  0.1653
 5527TIP3    H116545   5.960   2.307   5.106  1.0157  0.7569  0.9988
 5527TIP3    H216546   6.048   2.230   5.203 -0.0072 -1.4861  0.2314
 5528TIP3   OH216547   3.787   5.279   1.802 -0.2900  0.1851 -0.1751
 5528TIP3    H116548   3.727   5.265   1.728  1.1199  0.4055 -1.3912
 5528TIP3    H216549   3.782   5.198   1.852 -2.2839  0.5289  0.2977
 5529TIP3   OH216550   2.137   3.912   2.807  0.6996  0.0573 -0.2747
 5529TIP3    H116551   2.174   3.902   2.720 -1.0852 -1.5562 -0.9364
 5529TIP3    H216552   2.167   3.834   2.855  3.3344  1.8985  1.3046
 5530TIP3   OH216553   5.331   0.331   4.238  0.3342  0.3304  0.3970
 5530TIP3    H116554   5.314   0.338   4.332 -1.3288 -2.1984  0.3918
 5530TIP3    H216555   5.385   0.252   4.230 -2.4916 -1.6566 -0.9175
 5531TIP3   OH216556   0.529   3.847   0.483 -0.0697  0.6168 -0.1146
 5531TIP3    H116557   0.567   3.921   0.531 -1.5696  0.7649  0.8962
 5531TIP3    H216558   0.561   3.769   0.530  0.9521  0.6303 -0.7642
 5532TIP3   OH216559   4.476   3.903   2.118 -0.1832  0.1195  0.1073
 5532TIP3    H116560   4.396   3.895   2.067  0.9175 -0.4100 -1.6461
 5532TIP3    H216561   4.538   3.948   2.060  0.6262  1.0601  1.6268
 5533TIP3   OH216562   5.668   6.260   5.628  0.1682 -0.4187  0.1590
 5533TIP3    H116563   5.666   6.250   5.723  1.0286  0.0274  0.2391
 5533TIP3    H216564   5.653   6.172   5.593 -1.7214 -0.3267  0.6764
 5534TIP3   OH216565   3.178   5.382   1.546  0.0303 -0.2086  0.0444
 5534TIP3    H116566   3.167   5.406   1.454 -0.5165  1.1743  0.4529
 5534TIP3    H216567   3.091   5.391   1.585  0.0071 -1.8788  0.4851
 5535TIP3   OH216568   0.261   5.937   5.513 -0.1522  0.0976  0.6170
 5535TIP3    H116569   0.327   5.939   5.444 -1.5764  2.3355 -0.8080
 5535TIP3    H216570   0.227   5.847   5.511  2.7578 -1.1420  1.4390
 5536TIP3   OH216571   4.522   3.324   0.118 -0.3283  0.0519  0.5326
 5536TIP3    H116572   4.613   3.305   0.142  0.1614 -0.9068 -1.7580
 5536TIP3    H216573   4.524   3.327   0.022 -2.9161 -1.1318  0.3703
 5537TIP3   OH216574   6.145   6.804   4.406  0.0530  0.0803 -0.3318
 5537TIP3    H116575   6.060   6.816   4.364  0.0198 -0.0866 -0.3110
 5537TIP3    H216576   6.178   6.722   4.371  0.1693  0.1041 -0.2777
 5538TIP3   OH216577   1.824   6.529   1.891 -0.0470  0.5891  0.7057
 5538TIP3    H116578   1.823   6.475   1.812 -0.6940 -0.7026  1.5681
 5538TIP3    H216579   1.917   6.536   1.913  0.0904  0.4035  0.2052
 5539TIP3   OH216580   1.978   1.026   3.528  0.4743 -0.0808 -0.0917
 5539TIP3    H116581   1.918   0.954   3.511  0.2962 -0.0192  0.2746
 5539TIP3    H216582   2.038   1.025   3.453  0.6548 -0.7938  0.0515
 5540TIP3   OH216583   1.606   1.662   3.676 -0.2302 -0.1976  0.0704
 5540TIP3    H116584   1.616   1.646   3.582  0.3936 -0.5209  0.1859
 5540TIP3    H216585   1.688   1.705   3.702 -0.1673 -0.6040  0.5655
 5541TIP3   OH216586   6.076   5.528   1.346 -0.0873  0.4319  0.0939
 5541TIP3    H116587   6.055   5.596   1.281  1.2738  1.7226  0.9275
 5541TIP3    H216588   6.036   5.561   1.427 -1.8989 -1.2333 -0.0522
 5542TIP3   OH216589   2.104   4.344   3.384  0.0003  0.4762 -0.4563
 5542TIP3    H116590   2.153   4.371   3.307  0.8302  1.6378  0.4465
 5542TIP3    H216591   2.056   4.423   3.411 -0.2518  0.1007  0.2224
 5543TIP3   OH216592   0.182   6.620   2.856  0.6441 -0.2536 -0.0284
 5543TIP3    H116593   0.143   6.555   2.915  1.3684 -1.8695 -1.2227
 5543TIP3    H216594   0.108   6.653   2.805  0.2972 -0.3124  0.4267
 5544TIP3   OH216595   2.791   4.304   0.764 -0.0707 -0.3932 -0.3892
 5544TIP3    H116596   2.706   4.275   0.799  0.4989  0.2443  1.6995
 5544TIP3    H216597   2.786   4.286   0.671 -1.6976 -2.3364  0.0079
 5545TIP3   OH216598   3.357   5.345   4.394 -0.1834  0.5778  0.4437
 5545TIP3    H116599   3.350   5.420   4.336  2.6989 -0.8488 -2.0289
 5545TIP3    H216600   3.440   5.358   4.441  0.0956 -0.7555  0.3725
 5546TIP3   OH216601   6.555   3.545   4.399  0.8447  0.1845 -0.5323
 5546TIP3    H116602   6.586   3.479   4.462  1.6580 -0.7324 -1.8555
 5546TIP3    H216603   6.571   3.629   4.443 -1.4623 -0.4337  1.7634
 5547TIP3   OH216604   1.883   6.394   5.081  0.1564  0.0871  0.1240
 5547TIP3    H116605   1.952   6.345   5.036  0.5247  0.1792  0.5792
 5547TIP3    H216606   1.900   6.486   5.060 -0.4010  0.0488 -0.5441
 5548TIP3   OH216607   3.260   4.671   0.166 -0.5379  0.0801  0.0456
 5548TIP3    H116608   3.252   4.632   0.253 -0.1584  2.3423  1.1689
 5548TIP3    H216609   3.348   4.709   0.165 -1.2428  1.8111 -0.5165
 5549TIP3   OH216610   2.060   4.628   5.133 -0.1871  0.2440 -0.2275
 5549TIP3    H116611   2.148   4.592   5.132 -1.3481 -2.9369 -0.4482
 5549TIP3    H216612   2.044   4.656   5.042 -0.7506 -3.2141 -1.3507
 5550TIP3   OH216613   0.905   4.858   2.323 -0.5687  0.1479 -0.1902
 5550TIP3    H116614   0.988   4.824   2.289 -1.2159 -0.0992 -1.5940
 5550TIP3    H216615   0.920   4.953   2.331  0.4543 -0.1157  1.4352
 5551TIP3   OH216616   0.376   2.223   3.157 -0.3652  0.2915 -0.5055
 5551TIP3    H116617   0.335   2.211   3.072 -2.1982  0.1133  0.3628
 5551TIP3    H216618   0.466   2.191   3.145  0.1019  2.2827 -2.9142
 5552TIP3   OH216619   2.667   4.990   4.184 -0.1546 -0.1070 -0.2760
 5552TIP3    H116620   2.687   5.040   4.105  0.2051  2.2638  1.1973
 5552TIP3    H216621   2.619   5.052   4.239 -2.4966 -2.4030  0.4723
 5553TIP3   OH216622   2.743   6.161   5.639  0.6177 -0.2475  0.2186
 5553TIP3    H116623   2.827   6.168   5.684  1.1817 -2.0713 -0.4756
 5553TIP3    H216624   2.683   6.127   5.705  0.4879  0.6869  0.6044
 5554TIP3   OH216625   4.534   0.442   5.213  0.0009 -0.3213  0.6381
 5554TIP3    H116626   4.475   0.489   5.272  0.7101  0.5941  0.6377
 5554TIP3    H216627   4.571   0.509   5.157  0.3020 -1.0195 -0.0163
 5555TIP3   OH216628   6.349   1.794   3.804 -0.1337 -0.4926  0.3699
 5555TIP3    H116629   6.392   1.764   3.884 -1.1545 -2.5421  0.2234
 5555TIP3    H216630   6.412   1.777   3.734  0.0125 -0.5623  0.5197
 5556TIP3   OH216631   6.223   4.126   5.744 -0.1447 -0.0579  0.2850
 5556TIP3    H116632   6.237   4.115   5.838 -3.1772 -0.9005  0.7370
 5556TIP3    H216633   6.141   4.079   5.726 -1.2344  2.5312 -2.2490
 5557TIP3   OH216634   6.042   2.417   1.144 -0.0397 -0.3498 -0.0818
 5557TIP3    H116635   6.132   2.449   1.158  0.5604 -1.4728 -1.1850
 5557TIP3    H216636   5.987   2.490   1.171  1.2468  1.2061 -1.3938
 5558TIP3   OH216637   3.501   0.484   3.227  0.2793  0.5261 -0.0307
 5558TIP3    H116638   3.568   0.552   3.231 -1.3101  2.2908 -1.4138
 5558TIP3    H216639   3.549   0.404   3.205  2.0028  1.5835 -0.2714
 5559TIP3   OH216640   0.298   2.936   3.730 -0.3266 -0.2152 -0.7612
 5559TIP3    H116641   0.273   2.861   3.676 -0.7938 -0.4657 -0.2191
 5559TIP3    H216642   0.228   2.999   3.717 -1.0787 -0.7614  0.4623
 5560TIP3   OH216643   6.425   5.482   1.247 -0.0586 -0.4133 -0.5099
 5560TIP3    H116644   6.497   5.420   1.235  0.5807 -0.0630  1.3059
 5560TIP3    H216645   6.463   5.556   1.294 -1.6219 -0.2853  0.6538
 5561TIP3   OH216646   0.717   6.207   4.737 -0.0283  0.1344 -0.0565
 5561TIP3    H116647   0.635   6.253   4.754 -0.1419  1.5109 -3.5449
 5561TIP3    H216648   0.786   6.267   4.766 -0.2342  1.0188 -1.3369
 5562TIP3   OH216649   6.174   6.439   2.104  0.2346  0.0976 -0.5254
 5562TIP3    H116650   6.187   6.454   2.010  0.3477 -0.7274 -0.6459
 5562TIP3    H216651   6.110   6.368   2.109  0.3516  0.0228  0.0169
 5563TIP3   OH216652   2.969   5.808   1.072  0.5686 -0.4390  0.1081
 5563TIP3    H116653   2.952   5.714   1.064  0.0468 -0.2912 -0.5950
 5563TIP3    H216654   3.037   5.826   1.007  0.7674 -0.3522  0.3389
 5564TIP3   OH216655   1.400   5.052   5.547 -0.4788  0.4138  0.0894
 5564TIP3    H116656   1.414   5.133   5.498  0.5927 -1.4172 -2.8985
 5564TIP3    H216657   1.478   5.043   5.602 -0.1533  0.9679 -0.2779
 5565TIP3   OH216658   0.417   2.383   5.721  0.4491  0.1667 -0.5075
 5565TIP3    H116659   0.509   2.411   5.724  0.6678 -0.5488 -0.2108
 5565TIP3    H216660   0.399   2.370   5.628  1.1899 -1.3543 -0.4655
 5566TIP3   OH216661   4.367   2.698   5.198 -0.1435  0.0444  0.0013
 5566TIP3    H116662   4.363   2.624   5.138  1.5313  0.8672 -1.1715
 5566TIP3    H216663   4.404   2.769   5.147 -1.1166  1.5519  1.2817
 5567TIP3   OH216664   2.319   5.503   5.000  0.1373 -0.5922  0.7814
 5567TIP3    H116665   2.233   5.535   4.972 -0.1349  0.1562  2.3540
 5567TIP3    H216666   2.378   5.527   4.929 -0.6173  0.6702  0.5472
 5568TIP3   OH216667   4.272   3.295   1.919  0.3302 -0.3158  0.8776
 5568TIP3    H116668   4.236   3.374   1.959 -1.5771 -0.8732  0.3603
 5568TIP3    H216669   4.365   3.295   1.944 -0.2393  0.6381  3.1916
 5569TIP3   OH216670   4.586   2.487   3.661  0.4657  0.7500  0.1501
 5569TIP3    H116671   4.511   2.498   3.603  0.1372 -0.5895  0.2918
 5569TIP3    H216672   4.585   2.566   3.716  0.5121  1.8258 -1.3138
 5570TIP3   OH216673   2.169   1.030   3.773 -0.4488 -0.0367  0.2912
 5570TIP3    H116674   2.184   0.936   3.785  0.6932 -0.1395 -1.5236
 5570TIP3    H216675   2.111   1.035   3.698  0.1700  0.7085 -0.1552
 5571TIP3   OH216676   4.403   6.188   1.062 -0.4575 -0.9873  0.3305
 5571TIP3    H116677   4.425   6.281   1.059 -1.2950 -0.7644  0.8284
 5571TIP3    H216678   4.391   6.170   1.156  0.6022 -1.8146  0.3229
 5572TIP3   OH216679   4.220   0.980   4.988  0.3298 -0.2293  0.0782
 5572TIP3    H116680   4.299   0.965   4.936  0.4371  0.0908  0.1471
 5572TIP3    H216681   4.149   0.942   4.936 -0.0918  2.9853 -1.9776
 5573TIP3   OH216682   1.821   2.335   3.784  0.0164  0.0825  0.0059
 5573TIP3    H116683   1.766   2.351   3.707 -1.1994  0.7999  0.9847
 5573TIP3    H216684   1.802   2.245   3.808  0.1434 -0.0375 -0.3333
 5574TIP3   OH216685   6.796   5.398   4.890 -0.6217  0.1902  0.3442
 5574TIP3    H116686   6.722   5.415   4.831 -1.6769 -0.0944  1.5318
 5574TIP3    H216687   6.792   5.468   4.954  1.1195  1.0633 -0.4438
 5575TIP3   OH216688   2.348   4.387   2.174 -0.1863 -0.3530 -0.2891
 5575TIP3    H116689   2.262   4.350   2.194 -1.3949  2.6154  0.4810
 5575TIP3    H216690   2.395   4.383   2.257  0.4771 -1.9079 -0.6933
 5576TIP3   OH216691   3.682   6.733   3.466  0.0223 -0.1118 -0.0451
 5576TIP3    H116692   3.666   6.643   3.436  0.5470 -0.1650 -0.1676
 5576TIP3    H216693   3.621   6.786   3.416  0.5742 -0.2527 -0.8832
 5577TIP3   OH216694   5.219   0.783   3.743  0.5801 -0.3251  0.3627
 5577TIP3    H116695   5.285   0.725   3.780  0.9717 -0.1195 -0.0004
 5577TIP3    H216696   5.163   0.726   3.691  0.0488 -0.6101  1.2271
 5578TIP3   OH216697   4.079   6.786   2.995 -0.4580  0.2501  0.0826
 5578TIP3    H116698   4.038   6.798   3.081 -0.1976  0.0111  0.2402
 5578TIP3    H216699   4.048   6.700   2.966  0.7325 -0.3977  0.6550
 5579TIP3   OH216700   5.836   4.955   5.822  0.4283 -0.0934  0.0082
 5579TIP3    H116701   5.906   4.937   5.885  0.0030 -2.1947 -0.0528
 5579TIP3    H216702   5.790   4.871   5.813 -0.7239  0.6740 -1.6242
 5580TIP3   OH216703   6.951   1.803   4.215  0.2160  0.5070  0.6427
 5580TIP3    H116704   6.956   1.882   4.270 -1.1688  0.3483  1.0515
 5580TIP3    H216705   6.894   1.744   4.264  3.2418 -1.8627  1.6303
 5581TIP3   OH216706   6.700   5.411   1.211  0.1180  0.4105  0.0910
 5581TIP3    H116707   6.783   5.393   1.167  0.4444  2.1517 -0.0913
 5581TIP3    H216708   6.704   5.361   1.293 -0.0417 -2.0163 -1.2808
 5582TIP3   OH216709   2.348   6.609   1.106  0.1466 -0.5477  0.1454
 5582TIP3    H116710   2.299   6.532   1.137  0.1964 -0.9579 -0.7565
 5582TIP3    H216711   2.299   6.639   1.029  1.1967 -0.8696 -0.6803
 5583TIP3   OH216712   0.927   4.523   0.149 -0.5009 -0.7401  0.0797
 5583TIP3    H116713   0.951   4.454   0.086  0.0489 -0.3523 -0.1444
 5583TIP3    H216714   0.984   4.596   0.126 -0.3361 -0.5760  1.0050
 5584TIP3   OH216715   6.403   0.259   4.825 -0.3101  0.6609 -0.3676
 5584TIP3    H116716   6.370   0.237   4.912  1.2403  1.1885  0.3868
 5584TIP3    H216717   6.375   0.186   4.770  1.2229 -1.2181  1.1978
 5585TIP3   OH216718   3.792   5.770   1.591 -0.7657 -0.1296  0.4937
 5585TIP3    H116719   3.828   5.758   1.679  0.1381  0.8639  0.2723
 5585TIP3    H216720   3.750   5.686   1.571  0.2606 -0.8545  1.2935
 5586TIP3   OH216721   7.161   1.556   4.471 -0.1765 -0.1317 -0.1985
 5586TIP3    H116722   7.111   1.484   4.434 -1.8359  0.0766  1.5380
 5586TIP3    H216723   7.176   1.615   4.397 -1.6786 -0.6658 -0.9609
 5587TIP3   OH216724   2.901   1.296   2.103 -0.3427  0.1261 -0.6063
 5587TIP3    H116725   2.867   1.374   2.148 -1.6831 -0.1843 -1.0309
 5587TIP3    H216726   2.973   1.329   2.050  1.2085  0.5334  1.6224
 5588TIP3   OH216727   0.806   3.308   5.546  0.0852  0.2084 -0.2441
 5588TIP3    H116728   0.757   3.233   5.512  2.4369 -2.2786  1.4367
 5588TIP3    H216729   0.879   3.320   5.484 -0.7742  1.8198 -1.0168
 5589TIP3   OH216730   5.164   0.598   1.475  0.2065  0.0127  0.4614
 5589TIP3    H116731   5.118   0.515   1.488 -2.3672  1.2697 -0.0139
 5589TIP3    H216732   5.141   0.650   1.552  1.8756  0.3028  0.7978
 5590TIP3   OH216733   4.891   2.513   3.896  0.2477 -0.1932 -0.3032
 5590TIP3    H116734   4.929   2.462   3.824 -0.9286 -1.1504 -0.2769
 5590TIP3    H216735   4.858   2.592   3.855 -0.0622 -0.5552 -0.7634
 5591TIP3   OH216736   2.992   2.744   5.094 -0.5810 -0.2576  0.1941
 5591TIP3    H116737   3.047   2.725   5.170 -0.9902  0.7397  0.7639
 5591TIP3    H216738   3.052   2.748   5.021  0.2071  1.3030  0.8834
 5592TIP3   OH216739   1.866   2.856   5.310  0.3858  0.0526 -0.1646
 5592TIP3    H116740   1.828   2.938   5.342 -0.9040 -0.2248 -0.9130
 5592TIP3    H216741   1.903   2.814   5.387 -0.6302  0.4546  0.5497
 5593TIP3   OH216742   2.328   5.547   3.115 -0.3683  0.4373 -0.2521
 5593TIP3    H116743   2.243   5.591   3.119  0.0225  1.1531  0.3911
 5593TIP3    H216744   2.350   5.529   3.207  0.3549  0.6011 -0.3898
 5594TIP3   OH216745   1.569   1.038   4.265  0.1179 -0.5040 -0.6222
 5594TIP3    H116746   1.479   1.050   4.296  0.0815 -2.7353  0.3309
 5594TIP3    H216747   1.622   1.084   4.330 -0.2244 -1.3218  0.2647
 5595TIP3   OH216748   5.559   2.473   2.891 -0.6269 -0.9068  0.2600
 5595TIP3    H116749   5.535   2.508   2.977  0.6624 -1.3303  0.8258
 5595TIP3    H216750   5.565   2.378   2.905  0.4456 -0.9014 -0.0447
 5596TIP3   OH216751   5.161   3.597   4.824  0.1841 -0.0243  0.5462
 5596TIP3    H116752   5.217   3.542   4.770 -0.4810 -1.9524  1.6968
 5596TIP3    H216753   5.161   3.555   4.910 -4.8255 -1.6915  0.0846
 5597TIP3   OH216754   3.320   4.882   0.461  0.1892  0.2297 -0.2120
 5597TIP3    H116755   3.406   4.897   0.421  1.1384 -0.8924  1.2594
 5597TIP3    H216756   3.306   4.788   0.453  0.2231  0.0247  1.5979
 5598TIP3   OH216757   4.405   0.071   4.849 -0.0649  0.1481  0.2333
 5598TIP3    H116758   4.377   0.132   4.917  1.3592 -0.4594  1.4375
 5598TIP3    H216759   4.363  -0.012   4.873 -0.4688  0.1911 -0.3027
 5599TIP3   OH216760   2.383   6.462  -0.010 -0.1796 -0.2641 -0.2627
 5599TIP3    H116761   2.364   6.371   0.010 -1.2681 -0.2439 -1.1039
 5599TIP3    H216762   2.360   6.510   0.070 -2.3029 -0.4378 -0.6998
 5600TIP3   OH216763   7.164   5.791   3.387  0.7952  0.1950 -0.4491
 5600TIP3    H116764   7.097   5.729   3.358  0.1033  0.4088  0.6589
 5600TIP3    H216765   7.231   5.736   3.429 -0.0125  0.2006  0.9026
 5601TIP3   OH216766   4.637   4.545   5.372  0.4438  0.4534  0.3334
 5601TIP3    H116767   4.704   4.584   5.315  0.4817  1.6767  1.1787
 5601TIP3    H216768   4.584   4.619   5.400  0.4717 -0.1164  1.9671
 5602TIP3   OH216769   5.097   5.158   1.815  0.2492  0.3433  0.6180
 5602TIP3    H116770   5.113   5.081   1.869 -1.4866  0.1974  0.9802
 5602TIP3    H216771   5.015   5.138   1.768  1.0610  0.9634 -1.1455
 5603TIP3   OH216772  -0.026   6.674   3.463  0.1806  0.2089 -0.0179
 5603TIP3    H116773  -0.035   6.603   3.400  1.1086  0.8014 -0.8495
 5603TIP3    H216774   0.068   6.680   3.480 -0.0373  0.0616  1.4539
 5604TIP3   OH216775   4.442   2.455   1.438 -0.1334  0.1854  0.0502
 5604TIP3    H116776   4.491   2.528   1.399  0.0216  0.5798  0.9460
 5604TIP3    H216777   4.510   2.396   1.470 -0.1897  0.9575  1.7153
 5605TIP3   OH216778   3.996   3.607   3.435 -0.2816  0.1295  0.1524
 5605TIP3    H116779   4.019   3.672   3.369 -0.9223  0.6447  0.4283
 5605TIP3    H216780   3.912   3.572   3.406  0.6311 -1.5256 -0.6845
 5606TIP3   OH216781   1.152   5.725   1.970  0.4412  0.4854  0.2492
 5606TIP3    H116782   1.232   5.681   1.942  0.2567  0.8591 -0.9257
 5606TIP3    H216783   1.084   5.688   1.914  0.1834  1.8034 -0.3458
 5607TIP3   OH216784   6.566   5.842   2.008  0.0443 -0.1768  0.0767
 5607TIP3    H116785   6.510   5.887   1.945  1.8889  0.8591 -0.9342
 5607TIP3    H216786   6.591   5.910   2.071 -1.3122 -1.0696  1.6721
 5608TIP3   OH216787   1.797   4.463   3.938 -0.2654  0.0014  0.0829
 5608TIP3    H116788   1.793   4.431   3.848 -0.2241  0.0034  0.0803
 5608TIP3    H216789   1.874   4.520   3.940 -0.9695  0.9833 -0.2002
 5609TIP3   OH216790   4.093   2.175   0.118 -0.4238 -0.1123  0.3243
 5609TIP3    H116791   4.095   2.197   0.211 -0.1733 -1.1040  0.5615
 5609TIP3    H216792   4.024   2.230   0.082 -0.0097  0.8462  0.9444
 5610TIP3   OH216793   1.594   4.455   2.798  0.1136 -0.0197  0.1019
 5610TIP3    H116794   1.683   4.490   2.790  0.0713 -0.2587 -1.8636
 5610TIP3    H216795   1.545   4.523   2.845  1.1259  0.4841  0.4511
 5611TIP3   OH216796   2.287   3.696   2.944 -0.0095 -0.3133  0.0647
 5611TIP3    H116797   2.213   3.636   2.936 -0.8552  0.5058  1.3723
 5611TIP3    H216798   2.329   3.672   3.027 -0.9575  1.4839  1.1213
 5612TIP3   OH216799   7.072   5.971   4.227  0.5530 -0.1704 -0.1726
 5612TIP3    H116800   7.059   5.891   4.278  1.8093  0.1700  0.7466
 5612TIP3    H216801   6.989   6.018   4.234  0.5905 -0.2838  1.3493
 5613TIP3   OH216802   0.447   5.080   3.838  0.5109  0.3317 -0.3769
 5613TIP3    H116803   0.529   5.109   3.799  1.2342 -2.2196 -0.9741
 5613TIP3    H216804   0.472   5.050   3.926  0.5177 -1.4645 -0.9383
 5614TIP3   OH216805   6.501   0.383   0.177  0.1070  0.7221  0.2316
 5614TIP3    H116806   6.419   0.432   0.172 -0.6793 -0.5083 -4.7043
 5614TIP3    H216807   6.566   0.441   0.136  0.8522  0.2726  0.7541
 5615TIP3   OH216808   1.000   0.787   3.886 -0.0316  0.1352 -0.2084
 5615TIP3    H116809   1.005   0.729   3.810 -3.3318 -1.6169  0.6977
 5615TIP3    H216810   1.089   0.789   3.921  0.7750 -2.1940 -1.8826
 5616TIP3   OH216811   0.423   4.923   0.242 -0.5609 -0.1255  0.1239
 5616TIP3    H116812   0.374   4.901   0.163  1.1773  0.2424 -1.1365
 5616TIP3    H216813   0.451   5.013   0.229  0.5835 -0.3728  0.6810
 5617TIP3   OH216814   5.086   1.037   3.404 -0.8448  0.5052  0.3184
 5617TIP3    H116815   5.009   1.000   3.447 -0.2552 -0.4230  0.6014
 5617TIP3    H216816   5.158   0.977   3.426 -0.6775 -0.5966 -2.7356
 5618TIP3   OH216817   5.087   5.775   3.811  0.1891 -0.1088  0.6322
 5618TIP3    H116818   4.994   5.791   3.797 -0.0154 -1.5545  0.2213
 5618TIP3    H216819   5.121   5.859   3.840 -1.0653  0.6882 -0.1045
 5619TIP3   OH216820   1.481   2.060   0.108 -0.3721 -0.0098 -0.4962
 5619TIP3    H116821   1.425   2.118   0.159 -0.9155 -0.6972 -0.2813
 5619TIP3    H216822   1.519   2.000   0.172 -0.2205 -0.2136 -0.7704
 5620TIP3   OH216823   3.408   5.074   4.354  0.3430 -0.0126 -0.8202
 5620TIP3    H116824   3.431   5.044   4.266 -0.2668  0.9586 -1.3241
 5620TIP3    H216825   3.406   5.169   4.347 -3.5048  0.0588 -0.8034
 5621TIP3   OH216826   1.107   4.398   0.331 -0.1947 -0.5011 -0.0154
 5621TIP3    H116827   1.036   4.425   0.272  1.5826 -1.0108 -2.5937
 5621TIP3    H216828   1.158   4.477   0.344  0.6023 -0.8227 -1.0126
 5622TIP3   OH216829   4.650   3.818   0.666 -0.1425  0.4487 -0.0587
 5622TIP3    H116830   4.557   3.797   0.673 -0.7405  0.8649 -4.1591
 5622TIP3    H216831   4.694   3.733   0.673 -0.9612  0.0508  0.3706
 5623TIP3   OH216832   5.798   5.883   4.978 -0.0506 -0.1362  0.5060
 5623TIP3    H116833   5.752   5.877   4.894 -0.8983  0.6628  0.8898
 5623TIP3    H216834   5.808   5.792   5.006 -1.5273 -0.3496  0.4497
 5624TIP3   OH216835   1.159   0.056   0.688 -0.0995 -0.4736  0.3407
 5624TIP3    H116836   1.178   0.007   0.768 -1.0952  0.2560  1.0480
 5624TIP3    H216837   1.103   0.128   0.717 -0.1646  0.0229 -0.9626
 5625TIP3   OH216838   5.448   2.007   1.730 -0.3945  0.3115  0.2907
 5625TIP3    H116839   5.455   2.100   1.709  1.9663  0.6517  2.1081
 5625TIP3    H216840   5.419   2.006   1.822 -0.4966 -0.7659  0.2557
 5626TIP3   OH216841   3.610   5.300   5.323  0.3086  0.0904  0.1949
 5626TIP3    H116842   3.534   5.355   5.337  1.3681  1.4753  0.6936
 5626TIP3    H216843   3.629   5.262   5.408 -0.1614 -0.7433 -0.0571
 5627TIP3   OH216844   2.914   4.469   0.937 -0.1604 -0.6707  0.0290
 5627TIP3    H116845   2.989   4.411   0.952 -1.4310 -2.4563 -0.2616
 5627TIP3    H216846   2.858   4.421   0.875 -0.4911  1.5918 -1.5509
 5628TIP3   OH216847   3.319   0.323   4.912 -0.0634  0.0563  0.5762
 5628TIP3    H116848   3.353   0.252   4.858 -0.5998  0.1584  0.0862
 5628TIP3    H216849   3.242   0.285   4.956 -0.5646  0.4214  0.0374
 5629TIP3   OH216850   0.922   6.258   0.719 -0.1576  0.1094  0.7911
 5629TIP3    H116851   0.848   6.217   0.676 -0.4779 -0.7050  2.0755
 5629TIP3    H216852   0.988   6.189   0.725  0.9275  0.9461 -0.7650
 5630TIP3   OH216853   3.026   6.615   2.837 -0.1755  0.2073  0.0681
 5630TIP3    H116854   3.096   6.577   2.890  0.1130 -0.0102 -0.4670
 5630TIP3    H216855   2.958   6.548   2.835 -0.0106  0.0473 -0.1883
 5631TIP3   OH216856   0.685   0.080   4.186  0.1333 -0.0615  0.1838
 5631TIP3    H116857   0.699   0.047   4.274  0.8647 -0.6283 -0.1338
 5631TIP3    H216858   0.605   0.037   4.156  0.0192 -0.0512  0.4773
 5632TIP3   OH216859   1.340   6.203   4.340 -0.0844 -0.1043 -0.0204
 5632TIP3    H116860   1.264   6.155   4.308  0.9149 -1.8957  0.1918
 5632TIP3    H216861   1.413   6.168   4.291  0.7875  0.7003  0.6653
 5633TIP3   OH216862   3.739   3.538   4.634 -0.2893  0.0907  0.5468
 5633TIP3    H116863   3.704   3.468   4.579 -0.0619  1.2444 -1.1646
 5633TIP3    H216864   3.771   3.603   4.571  0.4883  1.2406  2.0751
 5634TIP3   OH216865   3.814   1.917   5.767  0.2630 -0.2206  0.2763
 5634TIP3    H116866   3.801   1.906   5.673  1.4818  1.2516 -0.1019
 5634TIP3    H216867   3.858   1.837   5.795  1.8879  0.2117 -0.8663
 5635TIP3   OH216868   1.530   3.954   5.398  0.0451 -0.1021  0.2368
 5635TIP3    H116869   1.592   3.991   5.335 -0.1409  3.0950  1.7158
 5635TIP3    H216870   1.487   4.031   5.436 -3.7290 -2.1008  0.4310
 5636TIP3   OH216871   2.843   5.067   3.057 -0.4916 -0.1769 -0.0370
 5636TIP3    H116872   2.774   5.040   3.117  2.5349 -2.3989  2.7787
 5636TIP3    H216873   2.872   5.152   3.091 -1.4267  0.5067 -0.9026
 5637TIP3   OH216874   2.470   2.871   1.918 -0.3263  0.4269 -0.5920
 5637TIP3    H116875   2.539   2.807   1.908 -1.1902 -0.4884 -0.8826
 5637TIP3    H216876   2.425   2.872   1.834 -0.6723  0.9988 -0.4120
 5638TIP3   OH216877   6.981   5.390   2.960  0.3291  0.3174 -0.0366
 5638TIP3    H116878   6.931   5.312   2.984  0.4240  0.3762  0.3696
 5638TIP3    H216879   7.065   5.356   2.928 -0.0767  0.2054 -1.0162
 5639TIP3   OH216880   3.515   6.496   1.422 -0.8599 -0.5273  0.1962
 5639TIP3    H116881   3.488   6.542   1.342  1.4840 -1.3638 -1.1816
 5639TIP3    H216882   3.573   6.557   1.466  0.1252 -1.1213 -0.2499
 5640TIP3   OH216883   0.829   1.469   0.426 -0.2247 -0.2990  0.1191
 5640TIP3    H116884   0.771   1.446   0.498 -1.2745 -0.6999 -0.8187
 5640TIP3    H216885   0.770   1.501   0.357  0.5502 -1.7211 -1.2614
 5641TIP3   OH216886   4.224   5.728   0.215 -0.4311  0.2036 -0.9296
 5641TIP3    H116887   4.231   5.815   0.175 -1.9229  0.7923 -0.0137
 5641TIP3    H216888   4.132   5.705   0.204 -0.5951 -0.1691  0.9912
 5642TIP3   OH216889   5.376   4.591   2.780 -0.0133 -0.1177  0.2165
 5642TIP3    H116890   5.372   4.517   2.841 -2.0074  0.1706  0.5099
 5642TIP3    H216891   5.396   4.552   2.695  0.0625 -0.8550  0.5681
 5643TIP3   OH216892   7.155   5.088   0.997 -0.2206 -0.1598  0.0134
 5643TIP3    H116893   7.144   5.055   1.086  2.0467 -0.4197  0.2593
 5643TIP3    H216894   7.066   5.105   0.967 -1.1414 -1.5010  1.7706
 5644TIP3   OH216895   0.925   2.389   5.071  0.3973 -0.3023  0.4158
 5644TIP3    H116896   1.006   2.433   5.042  0.6957 -0.9735  0.2072
 5644TIP3    H216897   0.927   2.397   5.166  0.8921 -0.6189  0.4373
 5645TIP3   OH216898   4.377   6.778   2.617  0.1252  0.1188  0.6966
 5645TIP3    H116899   4.296   6.801   2.663  0.3302 -0.2584  1.2516
 5645TIP3    H216900   4.351   6.705   2.559 -0.2521  0.9366 -0.1871
 5646TIP3   OH216901   3.670   5.959   5.441 -0.4266  0.3988  0.1335
 5646TIP3    H116902   3.614   5.917   5.506 -0.9459  0.3730 -0.3194
 5646TIP3    H216903   3.654   6.053   5.453  0.7374  0.4843  1.1483
 5647TIP3   OH216904   4.065   4.935   5.354 -0.2408 -0.0954  0.1018
 5647TIP3    H116905   4.111   4.921   5.271 -1.7680 -1.2879 -0.6082
 5647TIP3    H216906   4.032   5.025   5.348  1.3712  0.5581  0.3598
 5648TIP3   OH216907   4.720   0.652   2.545  0.3201 -0.1388  0.0974
 5648TIP3    H116908   4.729   0.584   2.613  0.7000  0.2897  0.4882
 5648TIP3    H216909   4.805   0.653   2.502  0.1499 -0.2569 -0.2398
 5649TIP3   OH216910   3.940   2.127   5.875 -0.0032 -0.1041 -0.2834
 5649TIP3    H116911   3.897   2.046   5.844 -0.0940 -0.6133  1.1256
 5649TIP3    H216912   4.006   2.145   5.808 -0.4997 -0.9138 -1.0235
 5650TIP3   OH216913   0.209   2.618   1.393 -0.4522 -0.3220  0.1623
 5650TIP3    H116914   0.214   2.616   1.489  0.0008 -2.1936  0.1476
 5650TIP3    H216915   0.195   2.710   1.371 -0.3320  0.1757  2.0116
 5651TIP3   OH216916   1.930   0.977   1.492 -0.0604 -0.1463 -0.5123
 5651TIP3    H116917   1.839   0.948   1.494 -0.6006  1.4817  1.0652
 5651TIP3    H216918   1.925   1.072   1.480  1.3867  0.1229  0.6839
 5652TIP3   OH216919   5.851   6.465   5.769 -0.1026 -0.4936 -0.0576
 5652TIP3    H116920   5.780   6.409   5.738 -0.6089 -0.4895  1.0761
 5652TIP3    H216921   5.814   6.553   5.768  0.0243 -0.4375  0.1276
 5653TIP3   OH216922   6.644   1.557   2.818  0.3922  0.3909  0.4173
 5653TIP3    H116923   6.644   1.465   2.790  1.7348  0.3819  0.3581
 5653TIP3    H216924   6.553   1.586   2.807  0.1177 -0.6958 -0.3487
 5654TIP3   OH216925   3.692   1.686   3.672  0.4331  0.7830 -0.2140
 5654TIP3    H116926   3.735   1.693   3.758  0.4830 -0.4731 -0.1114
 5654TIP3    H216927   3.764   1.675   3.610  0.3476 -2.8019  0.1166
 5655TIP3   OH216928   4.133   0.149   1.478  0.3023  0.4308 -0.2111
 5655TIP3    H116929   4.216   0.118   1.441 -0.4174  0.2756 -1.8132
 5655TIP3    H216930   4.072   0.146   1.404 -0.8541  1.6194  0.6524
 5656TIP3   OH216931   6.828   3.699   4.099 -0.0706 -0.2406  0.0354
 5656TIP3    H116932   6.796   3.787   4.119  1.1950  0.6938 -1.8093
 5656TIP3    H216933   6.879   3.675   4.176 -0.2845  0.7013  0.4952
 5657TIP3   OH216934   6.183   6.707   4.053  0.4821 -0.4722  0.1672
 5657TIP3    H116935   6.099   6.710   4.098 -0.0101 -1.4110 -0.6348
 5657TIP3    H216936   6.174   6.768   3.980  0.1695 -1.1862 -0.4114
 5658TIP3   OH216937   1.365   1.115   2.637  0.3575  0.6862 -0.4223
 5658TIP3    H116938   1.436   1.096   2.576 -0.1000  1.0612 -1.0742
 5658TIP3    H216939   1.292   1.143   2.582 -0.4064  0.0026  0.2192
 5659TIP3   OH216940   4.405   5.739   1.025 -0.2140  0.3514 -0.1404
 5659TIP3    H116941   4.325   5.769   0.982  0.6571 -1.2674 -3.2382
 5659TIP3    H216942   4.380   5.657   1.068 -0.2711 -0.1994 -1.1806
 5660TIP3   OH216943   6.685   6.374   1.174  0.3676  0.1880 -0.7005
 5660TIP3    H116944   6.635   6.328   1.106  0.3660 -0.1540 -0.4699
 5660TIP3    H216945   6.757   6.314   1.196 -0.0186 -0.0134  0.0789
 5661TIP3   OH216946   2.899   1.455   3.821  0.4342 -0.1240 -0.5699
 5661TIP3    H116947   2.972   1.496   3.869  0.4936 -1.7365  0.8062
 5661TIP3    H216948   2.821   1.483   3.869  0.2154  0.8003 -1.4492
 5662TIP3   OH216949   0.951   3.654   2.518  0.1795 -0.0465  0.2865
 5662TIP3    H116950   0.970   3.610   2.435  2.9350  0.7089  0.3998
 5662TIP3    H216951   0.896   3.728   2.493 -0.0411 -0.5141 -0.6946
 5663TIP3   OH216952   3.783   4.238   3.371 -0.3787  0.0886  0.3252
 5663TIP3    H116953   3.704   4.285   3.345  0.4902  0.3873 -2.0147
 5663TIP3    H216954   3.851   4.305   3.375  0.0915 -0.3991  0.8183
 5664TIP3   OH216955   0.155   4.440   2.940  0.0708  0.3166  0.2589
 5664TIP3    H116956   0.160   4.385   3.018 -0.1854  2.1800  1.6608
 5664TIP3    H216957   0.098   4.392   2.880  0.3618 -1.2135  1.1589
 5665TIP3   OH216958   0.274   3.028   5.655  0.6461  0.0782  0.0840
 5665TIP3    H116959   0.221   2.951   5.635  0.1281  0.0142  1.5140
 5665TIP3    H216960   0.316   3.051   5.573  2.9862 -3.3257  0.1382
 5666TIP3   OH216961   0.581   5.851   4.937  0.1165  0.4154 -0.4182
 5666TIP3    H116962   0.623   5.870   5.021 -1.1504  0.0734  0.3379
 5666TIP3    H216963   0.651   5.818   4.881  0.7725 -0.6620  0.9605
 5667TIP3   OH216964   2.578   4.713   5.207  0.2429  0.1963  0.5304
 5667TIP3    H116965   2.632   4.653   5.258  0.0801  0.1364  0.6300
 5667TIP3    H216966   2.581   4.795   5.256  1.3127  0.5826 -0.1307
 5668TIP3   OH216967   0.398   0.790   0.303  0.1129  0.5717 -0.5769
 5668TIP3    H116968   0.479   0.803   0.353 -1.2538  1.6166  1.5103
 5668TIP3    H216969   0.375   0.877   0.272 -1.5180  0.7642  1.0518
 5669TIP3   OH216970   6.339   4.523   0.286 -0.1117 -0.3339  0.0185
 5669TIP3    H116971   6.334   4.552   0.377  1.3311  1.7715 -0.4994
 5669TIP3    H216972   6.414   4.569   0.250 -0.0959 -1.8100 -2.0302
 5670TIP3   OH216973   4.676   4.341   5.193  0.3125 -0.0964  0.7098
 5670TIP3    H116974   4.637   4.414   5.241 -1.2165 -0.2090 -0.2641
 5670TIP3    H216975   4.768   4.342   5.218  0.5432  2.6895  0.0741
 5671TIP3   OH216976   3.721   0.364   0.661 -0.1218 -0.4327 -0.0480
 5671TIP3    H116977   3.756   0.450   0.636 -0.1824 -0.5953 -0.7047
 5671TIP3    H216978   3.645   0.351   0.604 -0.5527 -0.6018  0.5570
 5672TIP3   OH216979   0.153   5.259   3.075 -0.4834 -0.1383 -0.1682
 5672TIP3    H116980   0.151   5.348   3.108 -0.2794 -1.0377  2.4976
 5672TIP3    H216981   0.208   5.211   3.136 -0.3727 -2.0676 -1.6631
 5673TIP3   OH216982   3.604   5.564   0.479  0.0087 -0.1705 -0.0381
 5673TIP3    H116983   3.567   5.636   0.530  2.1315  1.8711 -1.1979
 5673TIP3    H216984   3.614   5.493   0.543 -0.9028  0.9797  1.4723
 5674TIP3   OH216985   2.782   2.551   1.753  0.0966  0.5281  0.0305
 5674TIP3    H116986   2.742   2.611   1.690 -0.7338 -1.0514 -1.0098
 5674TIP3    H216987   2.848   2.504   1.703 -1.8388 -2.0653 -0.2640
 5675TIP3   OH216988   2.713   3.521   4.057 -0.4367  0.5305 -0.0853
 5675TIP3    H116989   2.750   3.434   4.040 -0.0824  0.8170 -0.7961
 5675TIP3    H216990   2.726   3.569   3.976 -1.7949  0.8505 -0.1377
 5676TIP3   OH216991   1.990   5.262   1.844  0.2823  0.3043  0.3277
 5676TIP3    H116992   1.991   5.357   1.829  1.0751  0.1756 -0.4806
 5676TIP3    H216993   1.898   5.237   1.834 -0.1189  1.1355  1.6174
 5677TIP3   OH216994   7.143   3.180   1.913  0.3005  0.3063  0.2472
 5677TIP3    H116995   7.219   3.121   1.914 -1.0087 -1.4446  1.4975
 5677TIP3    H216996   7.124   3.191   1.820  1.0963 -0.5609 -0.0435
 5678TIP3   OH216997   4.177   2.684   2.126 -0.3817 -0.0411 -0.2652
 5678TIP3    H116998   4.102   2.711   2.074 -0.0546 -0.1087 -0.7826
 5678TIP3    H216999   4.252   2.724   2.083 -0.2686  1.5042  1.2720
 5679TIP3   OH217000   0.081   6.606   1.498  0.4189 -0.0966 -0.0406
 5679TIP3    H117001   0.015   6.544   1.528 -0.3195  0.8138  0.2305
 5679TIP3    H217002   0.094   6.585   1.406  0.6461 -1.0674  0.2030
 5680TIP3   OH217003   2.643   4.430   4.849  0.0578  0.4919 -0.2204
 5680TIP3    H117004   2.729   4.389   4.856  0.0032  0.2512 -0.8992
 5680TIP3    H217005   2.661   4.524   4.849  0.1115  0.5406  2.3512
 5681TIP3   OH217006   3.132   4.651   4.672 -0.0589  0.6109 -0.5014
 5681TIP3    H117007   3.083   4.600   4.607 -0.6263 -0.5104  0.7406
 5681TIP3    H217008   3.085   4.734   4.677 -0.6122  0.3283 -0.8184
 5682TIP3   OH217009   4.036   0.102   4.122 -0.2905  0.2128  0.2788
 5682TIP3    H117010   3.992   0.079   4.040 -0.2868 -2.3797  0.9176
 5682TIP3    H217011   3.974   0.076   4.190  0.3398  0.8728  1.1150
 5683TIP3   OH217012   1.380   5.895   1.501  0.5216  0.2966 -0.1347
 5683TIP3    H117013   1.336   5.885   1.417 -0.4215  2.0129  0.1080
 5683TIP3    H217014   1.332   5.965   1.545  0.6884 -0.8683  2.0407
 5684TIP3   OH217015   0.953   0.971   4.830  0.8659 -0.3865 -0.4178
 5684TIP3    H117016   0.866   0.948   4.796  1.3736 -0.0496 -2.0094
 5684TIP3    H217017   0.940   1.056   4.873  0.4550 -0.2130 -0.8758
 5685TIP3   OH217018   6.382   6.158   5.568  0.1557  0.3771 -0.0922
 5685TIP3    H117019   6.419   6.091   5.626  0.4791  0.8591  0.2658
 5685TIP3    H217020   6.459   6.202   5.530 -0.0449 -0.0209 -0.9965
 5686TIP3   OH217021   2.638   4.310   2.134  0.6791 -0.2361 -0.2913
 5686TIP3    H117022   2.565   4.262   2.095  0.2635 -0.3735  0.6084
 5686TIP3    H217023   2.678   4.357   2.061 -1.2885  1.0965 -0.6231
 5687TIP3   OH217024   2.765   2.792   4.166 -0.0166  0.4979 -0.0714
 5687TIP3    H117025   2.817   2.869   4.145  2.1125 -0.2632  1.9830
 5687TIP3    H217026   2.811   2.719   4.124  0.2016 -0.0971  1.1500
 5688TIP3   OH217027   4.906   2.801   2.580 -0.1603 -0.0458  0.1036
 5688TIP3    H117028   4.872   2.863   2.645 -1.2242  0.9517 -1.3164
 5688TIP3    H217029   4.838   2.734   2.573 -0.5918  0.4586 -0.7519
 5689TIP3   OH217030   2.374   2.394   0.853  0.9094  0.5929 -0.0137
 5689TIP3    H117031   2.402   2.485   0.867  0.1290  0.9679 -0.7862
 5689TIP3    H217032   2.297   2.402   0.797 -0.2538 -0.4321  1.3612
 5690TIP3   OH217033   4.407   0.954   0.372  0.3277  0.7276  0.2501
 5690TIP3    H117034   4.477   0.888   0.376  1.0179  1.4054 -0.3114
 5690TIP3    H217035   4.352   0.926   0.299 -0.5193 -0.2897  1.2322
 5691TIP3   OH217036   0.581   3.770   3.479  0.2723  0.0893 -0.7844
 5691TIP3    H117037   0.586   3.831   3.553 -0.1555 -0.8458  0.0525
 5691TIP3    H217038   0.512   3.709   3.504  0.8003 -0.8309 -1.5192
 5692TIP3   OH217039   1.087   3.504   0.179  0.6441  0.0925  0.4559
 5692TIP3    H117040   1.023   3.575   0.180  1.5153  0.9053 -0.1283
 5692TIP3    H217041   1.108   3.490   0.272  1.7657  1.8316  0.5129
 5693TIP3   OH217042   4.252   0.840   0.174  0.1886 -0.0856  0.0826
 5693TIP3    H117043   4.193   0.802   0.109 -0.0935 -0.0633  0.3255
 5693TIP3    H217044   4.321   0.775   0.185  0.0365 -0.2551  0.0390
 5694TIP3   OH217045   4.885   2.676   2.868  0.0762  0.3077 -0.0669
 5694TIP3    H117046   4.915   2.626   2.792  2.4361  2.3193 -0.5657
 5694TIP3    H217047   4.839   2.751   2.832 -1.3694 -0.2280  0.6073
 5695TIP3   OH217048   4.842   1.167   3.671 -0.3649  0.2326 -0.6544
 5695TIP3    H117049   4.934   1.146   3.657 -0.3460 -0.6681  0.5886
 5695TIP3    H217050   4.826   1.142   3.762 -2.0156 -0.3317 -1.0652
 5696TIP3   OH217051   1.327   4.545   0.755  0.2527  0.4198  0.1955
 5696TIP3    H117052   1.413   4.557   0.714  0.2864  0.0713  0.1667
 5696TIP3    H217053   1.335   4.591   0.839  1.0410 -1.0249  0.9583
 5697TIP3   OH217054   6.521   0.041   5.202  0.0192  0.2592 -0.1049
 5697TIP3    H117055   6.594   0.001   5.155  0.2639  0.2936  0.2394
 5697TIP3    H217056   6.471  -0.033   5.237 -1.0496  0.1771 -1.7081
 5698TIP3   OH217057   0.681   5.142   0.092 -0.4469 -0.1489  0.7569
 5698TIP3    H117058   0.634   5.105   0.017 -0.7403 -0.1312  0.9282
 5698TIP3    H217059   0.623   5.211   0.124  0.3838  0.9001  0.0514
 5699TIP3   OH217060   3.372   3.920   5.092  0.1748 -0.1415 -0.0227
 5699TIP3    H117061   3.307   3.988   5.109 -0.5382 -0.8746  0.1936
 5699TIP3    H217062   3.367   3.862   5.168  0.5981 -0.5907 -0.3297
 5700TIP3   OH217063   5.645   0.388   1.426 -0.6545 -0.4451  0.1300
 5700TIP3    H117064   5.570   0.347   1.384 -0.0918 -0.2327 -1.1079
 5700TIP3    H217065   5.697   0.423   1.354  0.1531  0.2407  1.0225
 5701TIP3   OH217066   1.303   5.237   5.763 -0.2773 -0.2549  0.4592
 5701TIP3    H117067   1.398   5.240   5.779 -0.2648 -0.1709  0.3721
 5701TIP3    H217068   1.266   5.204   5.845 -0.1091 -1.0424  0.2308
 5702TIP3   OH217069   6.019   1.027   5.084  0.2088  0.2972  0.0371
 5702TIP3    H117070   6.031   0.946   5.133 -0.7823  0.0115 -0.1681
 5702TIP3    H217071   6.101   1.075   5.097  1.5504 -1.4750 -1.2566
 5703TIP3   OH217072   6.357   1.623   1.981  0.1853 -0.3090  0.2830
 5703TIP3    H117073   6.434   1.597   1.931  1.4576  0.5120  1.7036
 5703TIP3    H217074   6.381   1.707   2.020 -1.0990 -0.4493  1.4727
 5704TIP3   OH217075   6.119   1.826   2.253 -0.5109  0.0067 -0.5715
 5704TIP3    H117076   6.102   1.866   2.338  0.3897 -0.9899  0.0941
 5704TIP3    H217077   6.215   1.827   2.245 -0.4396 -2.2406 -0.4121
 5705TIP3   OH217078   5.743   5.100   0.640  0.3870 -0.0389 -0.4100
 5705TIP3    H117079   5.783   5.053   0.566 -0.2396 -1.9447  0.4028
 5705TIP3    H217080   5.770   5.050   0.717  0.2373  1.3591  0.5736
 5706TIP3   OH217081   5.475   2.346   4.291 -0.2141 -0.1876  0.5043
 5706TIP3    H117082   5.385   2.315   4.305 -0.5905  1.2963  1.6131
 5706TIP3    H217083   5.473   2.438   4.316  1.8181 -0.3260  1.3806
 5707TIP3   OH217084   6.471   0.766   4.739  0.6526  0.5668  0.2985
 5707TIP3    H117085   6.442   0.731   4.823  1.8411  0.5263  0.7148
 5707TIP3    H217086   6.520   0.845   4.762  0.1856  1.0834 -0.4385
 5708TIP3   OH217087   2.778   4.621   2.573 -0.7067  0.4988  0.4038
 5708TIP3    H117088   2.845   4.620   2.641 -1.2386 -2.6669  1.0457
 5708TIP3    H217089   2.827   4.636   2.492  1.1582 -2.9413  0.6778
 5709TIP3   OH217090   0.199   4.164   5.845  0.4908  1.0115 -0.2332
 5709TIP3    H117091   0.201   4.221   5.768 -0.4914  2.4505  0.7556
 5709TIP3    H217092   0.125   4.196   5.896  2.3083  1.4174  2.2901
 5710TIP3   OH217093   2.879   2.716   4.423  0.3194  0.7154  0.7981
 5710TIP3    H117094   2.833   2.719   4.339  0.7061  0.4321  0.5735
 5710TIP3    H217095   2.826   2.770   4.481 -0.3554  0.3110  0.5718
 5711TIP3   OH217096   5.542   4.825   5.686  0.4576  0.1511 -1.1269
 5711TIP3    H117097   5.581   4.897   5.637 -0.2854  0.3817 -1.3984
 5711TIP3    H217098   5.505   4.866   5.765  1.5229 -0.1973 -0.4342
 5712TIP3   OH217099   0.836   2.045   1.668 -0.0137 -0.5633  0.2982
 5712TIP3    H117100   0.883   2.087   1.596 -0.7376 -0.7559 -0.2895
 5712TIP3    H217101   0.878   1.960   1.677  0.4214 -0.3380  0.4591
 5713TIP3   OH217102   1.220   6.531   2.701  0.9970 -0.1533  0.2266
 5713TIP3    H117103   1.288   6.502   2.641 -1.4842 -0.6865 -2.5836
 5713TIP3    H217104   1.138   6.507   2.657 -1.0629  2.4579  2.3183
 5714TIP3   OH217105   1.381   3.345   4.576  0.6784 -0.4495 -0.0979
 5714TIP3    H117106   1.291   3.373   4.591  0.7835  0.5800 -1.2316
 5714TIP3    H217107   1.433   3.398   4.637  0.6638  0.2522 -0.6778
 5715TIP3   OH217108   3.496   1.368   1.765  0.1308  0.7890  0.6131
 5715TIP3    H117109   3.422   1.426   1.750 -0.7040 -0.7464 -1.7790
 5715TIP3    H217110   3.561   1.395   1.701 -0.2992 -0.8804 -0.5949
 5716TIP3   OH217111   4.187   1.105   4.593  0.5212 -0.5799  0.3877
 5716TIP3    H117112   4.093   1.097   4.581  0.1338  1.2633  1.6972
 5716TIP3    H217113   4.197   1.178   4.654  2.7328 -1.7424  1.5411
 5717TIP3   OH217114   1.999   0.105   5.387  0.3282 -0.0128  0.1536
 5717TIP3    H117115   1.912   0.128   5.420  0.6612  1.2983  0.1623
 5717TIP3    H217116   1.991   0.013   5.362 -0.9305 -0.0420  0.5801
 5718TIP3   OH217117   0.443   5.440   3.863  0.5613 -0.0483  0.2858
 5718TIP3    H117118   0.428   5.380   3.936 -0.6777  0.8085  0.7804
 5718TIP3    H217119   0.538   5.450   3.860  0.6320  0.5120  2.3395
 5719TIP3   OH217120   7.158   1.932   5.844  0.4233  0.1230  0.4172
 5719TIP3    H117121   7.094   1.985   5.891  0.6578  0.0584  0.8124
 5719TIP3    H217122   7.181   1.862   5.905 -1.2318 -1.5277 -0.7371
 5720TIP3   OH217123   3.397   0.615   3.859 -0.1021 -0.5196  0.0794
 5720TIP3    H117124   3.470   0.646   3.806  0.0751 -0.7853  0.1661
 5720TIP3    H217125   3.320   0.661   3.824  0.2583  0.5353  0.6549
 5721TIP3   OH217126   2.905   0.451   5.315  0.4021  0.4199 -0.3766
 5721TIP3    H117127   2.963   0.464   5.240  0.2779  1.4835 -0.3094
 5721TIP3    H217128   2.839   0.390   5.283  0.8486  0.1754 -0.8537
 5722TIP3   OH217129   5.282   6.695   1.571 -0.4450  0.3321  0.0953
 5722TIP3    H117130   5.331   6.770   1.537 -0.1841 -0.3339 -1.0548
 5722TIP3    H217131   5.335   6.619   1.548 -0.4575 -0.2014  1.6821
 5723TIP3   OH217132   6.410   5.764   4.515  0.4470  0.0004 -0.9742
 5723TIP3    H117133   6.385   5.805   4.598  2.0527 -0.0160 -0.4414
 5723TIP3    H217134   6.383   5.827   4.448  0.5591  0.7559 -0.3265
 5724TIP3   OH217135   4.132   2.956   0.154 -0.1590  0.0614  0.3803
 5724TIP3    H117136   4.057   3.012   0.136 -1.1705 -1.1270  0.7107
 5724TIP3    H217137   4.209   3.010   0.135 -1.0994  0.9628 -1.0298
 5725TIP3   OH217138   0.357   5.637   0.802 -0.2667  0.3128 -0.7330
 5725TIP3    H117139   0.268   5.647   0.836  0.3262  1.7298  0.5178
 5725TIP3    H217140   0.367   5.542   0.792 -1.3915  0.0073  0.6086
 5726TIP3   OH217141   2.320   4.765   2.812  0.2713  0.1774 -0.3152
 5726TIP3    H117142   2.376   4.732   2.741  1.2579  0.7176  0.1923
 5726TIP3    H217143   2.362   4.847   2.839 -0.3834  0.2391  0.5408
 5727TIP3   OH217144   1.994   5.499   1.704  0.7831  0.4841  0.2362
 5727TIP3    H117145   2.050   5.575   1.722  0.6871  0.8940 -1.0717
 5727TIP3    H217146   1.921   5.534   1.653  1.7476 -0.7370 -2.1748
 5728TIP3   OH217147   0.046   5.808   4.137  0.0150  0.4120  0.8084
 5728TIP3    H117148   0.098   5.866   4.082  0.2226 -0.1315  0.4276
 5728TIP3    H217149  -0.045   5.834   4.120 -0.0510 -0.8369 -1.0971
 5729TIP3   OH217150   5.919   1.603   3.417  0.0119  0.2700 -0.5336
 5729TIP3    H117151   5.922   1.698   3.407  0.6754  0.3689  0.4995
 5729TIP3    H217152   6.004   1.580   3.454 -0.2581 -0.6975 -0.4848
 5730TIP3   OH217153   6.955   4.354   2.151  0.0882  0.8281  0.3243
 5730TIP3    H117154   6.924   4.400   2.073 -0.0071 -0.2616 -0.2962
 5730TIP3    H217155   6.877   4.336   2.202 -0.0053  0.3894  0.0303
 5731TIP3   OH217156   1.082   1.586   1.392  0.0325 -0.4928 -0.7040
 5731TIP3    H117157   1.015   1.521   1.412 -0.2493  0.1637  0.5488
 5731TIP3    H217158   1.160   1.535   1.372 -0.5770 -1.2383 -1.2463
 5732TIP3   OH217159   1.213   4.864   5.521  0.0022  0.3866  0.6503
 5732TIP3    H117160   1.286   4.923   5.538 -0.9093  1.8965 -0.4321
 5732TIP3    H217161   1.251   4.776   5.524  1.4786  1.0393  1.8746
 5733TIP3   OH217162   3.418   3.072   2.107  0.1798 -0.0777  0.0513
 5733TIP3    H117163   3.497   3.125   2.102  1.5693 -2.1368 -1.9268
 5733TIP3    H217164   3.431   3.018   2.186  0.9601 -0.6541 -0.4547
 5734TIP3   OH217165   4.550   1.843   4.141 -0.2942 -0.0687  0.7322
 5734TIP3    H117166   4.511   1.823   4.055  0.2925 -2.2188  0.9044
 5734TIP3    H217167   4.608   1.917   4.124  0.2560 -0.8141 -0.8766
 5735TIP3   OH217168   6.911   1.587   4.027  0.2252  0.1369 -0.1177
 5735TIP3    H117169   6.990   1.534   4.019  1.4822  1.9602 -0.2370
 5735TIP3    H217170   6.939   1.665   4.075 -1.3308  1.1649 -0.8254
 5736TIP3   OH217171   3.073   3.599   4.666  0.1783  0.1260 -0.1038
 5736TIP3    H117172   2.981   3.622   4.680  0.0236 -0.1284 -0.6615
 5736TIP3    H217173   3.094   3.639   4.582  0.1082 -1.1600 -0.7578
 5737TIP3   OH217174   3.992   6.376   0.381 -0.0183 -0.2593 -0.4020
 5737TIP3    H117175   3.897   6.377   0.367  0.0311 -2.2505 -1.2241
 5737TIP3    H217176   4.023   6.454   0.335 -1.0412 -0.8717 -2.2470
 5738TIP3   OH217177   4.344   4.888   3.704 -0.0732 -0.0230  0.7836
 5738TIP3    H117178   4.273   4.940   3.667 -0.9988 -2.2983 -0.8976
 5738TIP3    H217179   4.309   4.854   3.787 -1.0091 -1.1264 -0.0322
 5739TIP3   OH217180   5.199   0.694   3.301 -0.1792 -0.2135 -0.4165
 5739TIP3    H117181   5.164   0.633   3.365 -1.3845  0.5192 -0.3390
 5739TIP3    H217182   5.241   0.762   3.353 -0.2866 -0.1305 -0.4376
 5740TIP3   OH217183   3.438   3.504   4.194 -0.1262 -0.7882  0.2651
 5740TIP3    H117184   3.457   3.410   4.197  1.1508 -0.5503  0.4911
 5740TIP3    H217185   3.524   3.546   4.195 -0.6547  0.3811 -0.4848
 5741TIP3   OH217186   1.069   0.574   4.161  0.1653  0.4836  0.4831
 5741TIP3    H117187   1.120   0.647   4.127  1.1613 -0.3654  0.1000
 5741TIP3    H217188   1.134   0.508   4.184 -0.7523 -0.5783  0.1077
 5742TIP3   OH217189   6.008   3.255   0.931 -0.0485  0.1551 -0.3176
 5742TIP3    H117190   5.944   3.308   0.979  0.9802  1.1492 -0.0016
 5742TIP3    H217191   5.964   3.171   0.917 -0.8474  0.2746  1.2654
 5743TIP3   OH217192   4.899   2.870   0.441  0.0399  0.6728 -0.5622
 5743TIP3    H117193   4.968   2.870   0.506 -0.9473  0.8893  0.5164
 5743TIP3    H217194   4.913   2.790   0.391 -0.9167 -1.1078  1.8361
 5744TIP3   OH217195   3.984   2.341   2.606 -0.1293 -0.0977  0.2245
 5744TIP3    H117196   3.940   2.281   2.666  0.3119 -0.8970 -0.2326
 5744TIP3    H217197   3.914   2.396   2.571 -0.5630 -0.4519  0.5280
 5745TIP3   OH217198   6.071   4.461   3.971 -0.0175 -0.2657  0.3129
 5745TIP3    H117199   6.105   4.428   4.055 -1.2780  1.2446  1.4777
 5745TIP3    H217200   6.029   4.544   3.993 -0.6535  0.0310 -1.7914
 5746TIP3   OH217201   1.240   1.699   3.925  0.3611 -0.0601  0.5852
 5746TIP3    H117202   1.149   1.725   3.938 -0.0229 -0.6376 -0.7971
 5746TIP3    H217203   1.236   1.607   3.901  1.4091 -0.3922  1.6324
 5747TIP3   OH217204   6.641   4.205   2.793 -0.1838  0.0620 -0.3251
 5747TIP3    H117205   6.617   4.285   2.840  1.9902  1.1998 -0.9743
 5747TIP3    H217206   6.652   4.233   2.702  2.3536 -0.4944 -0.2773
 5748TIP3   OH217207   5.378   4.769   5.453 -0.2823 -0.2919  0.4679
 5748TIP3    H117208   5.427   4.819   5.517  0.5904  1.0850 -1.1915
 5748TIP3    H217209   5.423   4.685   5.447  0.2442 -0.0392  0.8977
 5749TIP3   OH217210   0.355   2.262   2.495 -0.2116 -0.2801  0.0244
 5749TIP3    H117211   0.394   2.211   2.565  0.2417 -2.6104 -1.8019
 5749TIP3    H217212   0.421   2.261   2.425 -1.5919 -0.1452 -1.3263
 5750TIP3   OH217213   2.846   1.048   0.601  0.0761  0.8056  0.1234
 5750TIP3    H117214   2.817   1.005   0.520 -0.0777 -0.4049  0.7964
 5750TIP3    H217215   2.932   1.084   0.580  0.8661 -1.0849 -0.0748
 5751TIP3   OH217216   5.773   0.146   3.081  0.0717  0.3956  0.4222
 5751TIP3    H117217   5.678   0.147   3.068 -0.1056 -0.3032  1.5350
 5751TIP3    H217218   5.790   0.223   3.136  0.3709  1.3701 -0.9652
 5752TIP3   OH217219   5.398   5.096   0.789 -0.0578 -0.1177 -0.1537
 5752TIP3    H117220   5.377   5.179   0.747 -0.3098 -0.3174 -0.4311
 5752TIP3    H217221   5.314   5.062   0.819  0.0997 -0.0638  0.3557
 5753TIP3   OH217222   1.285   5.226   0.426 -0.0715  0.0355  0.1013
 5753TIP3    H117223   1.212   5.271   0.468 -0.7731 -0.3613 -0.6599
 5753TIP3    H217224   1.244   5.176   0.354  0.9527 -0.1362 -0.3784
 5754TIP3   OH217225   6.165   3.589   0.699 -0.0901 -0.3122  0.5564
 5754TIP3    H117226   6.245   3.536   0.709  1.7712  2.2579  0.4459
 5754TIP3    H217227   6.116   3.547   0.629  3.1952  0.1535 -2.3126
 5755TIP3   OH217228   4.927   2.295   5.830 -0.3405  0.0046 -0.5742
 5755TIP3    H117229   4.855   2.292   5.767 -1.3297 -0.2295  0.5148
 5755TIP3    H217230   4.891   2.342   5.905  0.7504  0.1516 -0.1204
 5756TIP3   OH217231   0.105   3.120   5.227 -0.1917  0.2928  0.0685
 5756TIP3    H117232   0.047   3.170   5.285 -0.9681 -1.7186  1.1191
 5756TIP3    H217233   0.137   3.048   5.281 -0.2023 -1.1297 -1.7104
 5757TIP3   OH217234   6.490   3.955   0.256 -0.3202  0.1136 -0.1815
 5757TIP3    H117235   6.461   3.893   0.322 -1.4648  1.3856  0.5510
 5757TIP3    H217236   6.479   4.041   0.297 -0.4991  0.9007 -1.7989
 5758TIP3   OH217237   0.565   1.600   1.312  0.2882 -0.5081 -0.4147
 5758TIP3    H117238   0.605   1.514   1.300  1.3625 -0.0617 -0.1468
 5758TIP3    H217239   0.540   1.602   1.404 -0.8518 -0.9799 -0.6967
 5759TIP3   OH217240   4.565   1.006   3.124 -0.0782 -0.2974 -0.4342
 5759TIP3    H117241   4.535   0.916   3.116  1.1737 -0.5883 -2.7155
 5759TIP3    H217242   4.638   1.003   3.185  1.0504 -1.1836 -1.7675
 5760TIP3   OH217243   1.904   3.659   4.994 -0.1797 -0.2388  0.0603
 5760TIP3    H117244   1.908   3.669   4.899 -0.7531 -1.2103 -0.0769
 5760TIP3    H217245   1.967   3.723   5.027 -0.7233  0.8629 -0.9243
 5761TIP3   OH217246   6.322   0.939   2.880  0.2563 -0.3441  0.4752
 5761TIP3    H117247   6.317   0.844   2.870  3.7154 -0.6672  0.6157
 5761TIP3    H217248   6.310   0.955   2.973  0.8262 -0.7697  0.6229
 5762TIP3   OH217249   2.457   4.351   5.023  0.0866 -0.2460 -0.2561
 5762TIP3    H117250   2.503   4.405   4.958 -1.8147  0.3522 -1.1821
 5762TIP3    H217251   2.455   4.404   5.102 -1.1643  0.8125 -0.9607
 5763TIP3   OH217252   7.113   4.301   0.483  0.2912 -0.4809  0.0994
 5763TIP3    H117253   7.083   4.392   0.493  0.0795 -0.5880  0.4445
 5763TIP3    H217254   7.079   4.274   0.398 -1.1852 -0.8263  0.7720
 5764TIP3   OH217255   6.512   5.544   2.069 -0.4561 -0.1049  0.3422
 5764TIP3    H117256   6.539   5.634   2.047 -0.0562 -0.4409 -0.5892
 5764TIP3    H217257   6.547   5.491   1.997 -0.7032 -1.0060  0.8829
 5765TIP3   OH217258   1.544   4.948   1.005 -0.3642  0.0848 -0.0284
 5765TIP3    H117259   1.542   5.038   1.035  1.4356 -0.8110  3.1894
 5765TIP3    H217260   1.635   4.931   0.982 -0.7542 -0.8137 -1.0261
 5766TIP3   OH217261   0.594   3.661   4.719 -0.0117 -0.1537 -0.0500
 5766TIP3    H117262   0.557   3.644   4.632  1.5498  0.7030 -0.9365
 5766TIP3    H217263   0.685   3.634   4.711  0.0267 -0.5451  1.5127
 5767TIP3   OH217264   6.831   1.593   5.211  0.0697  0.6099 -1.2366
 5767TIP3    H117265   6.856   1.501   5.221 -0.0756  0.7908  1.3257
 5767TIP3    H217266   6.752   1.602   5.263  1.0056  2.5557 -0.0558
 5768TIP3   OH217267   6.200   5.054   3.120  0.8007 -0.4417  0.0361
 5768TIP3    H117268   6.250   5.128   3.086 -0.1673  0.4878  0.5895
 5768TIP3    H217269   6.264   4.983   3.127  1.5005 -0.0255 -1.6169
 5769TIP3   OH217270   6.162   5.460   5.687  0.5106  0.4284 -0.6776
 5769TIP3    H117271   6.232   5.482   5.748  0.2972 -2.1824  0.6570
 5769TIP3    H217272   6.091   5.519   5.710  0.8724  0.3384  0.7686
 5770TIP3   OH217273   2.000   0.965   0.396  0.5787  0.0896  0.3422
 5770TIP3    H117274   1.951   0.889   0.427  2.1325 -0.8833  0.4910
 5770TIP3    H217275   1.936   1.036   0.397 -1.1288 -1.3468 -0.5054
 5771TIP3   OH217276   6.756   4.802   3.238 -0.1375  0.1099 -0.1391
 5771TIP3    H117277   6.746   4.897   3.242 -1.2728 -0.0229  0.6526
 5771TIP3    H217278   6.705   4.769   3.312  0.5044 -1.1058 -0.2128
 5772TIP3   OH217279   1.825   6.178   5.655  0.0973  0.3200 -0.3877
 5772TIP3    H117280   1.911   6.218   5.664  1.4064 -2.5650  1.4916
 5772TIP3    H217281   1.822   6.148   5.564  0.3241  1.9128 -0.9437
 5773TIP3   OH217282   6.194   5.433   0.296 -0.4448 -0.2115 -0.3511
 5773TIP3    H117283   6.134   5.420   0.223 -0.5957  3.1562 -0.9783
 5773TIP3    H217284   6.142   5.481   0.361  0.5123 -0.6129  0.7425
 5774TIP3   OH217285   1.382   3.917   3.569  0.0579  0.2345 -0.7621
 5774TIP3    H117286   1.353   3.857   3.501  1.7105  1.1491 -2.3504
 5774TIP3    H217287   1.376   3.866   3.650 -2.4340 -0.7242 -1.4598
 5775TIP3   OH217288   3.800   6.281   1.831 -0.3535 -0.4813 -0.2345
 5775TIP3    H117289   3.776   6.313   1.918  0.7929 -1.0354  0.3094
 5775TIP3    H217290   3.838   6.194   1.847 -0.5897 -0.8081 -1.3480
 5776TIP3   OH217291   3.448   5.253   3.206 -0.0266 -0.0553  0.0444
 5776TIP3    H117292   3.526   5.205   3.234  1.0846  0.9435 -1.2339
 5776TIP3    H217293   3.451   5.252   3.110 -1.9078 -0.4856 -0.0538
 5777TIP3   OH217294   5.852   6.471   2.326  0.7675  0.1252  0.9256
 5777TIP3    H117295   5.781   6.434   2.273  2.0265 -0.9843 -0.0716
 5777TIP3    H217296   5.833   6.442   2.415  1.0082 -1.9461  0.3701
 5778TIP3   OH217297   4.761   1.526   5.149 -0.2469  0.3699  0.9319
 5778TIP3    H117298   4.680   1.539   5.101 -0.7055  3.3160  2.2995
 5778TIP3    H217299   4.734   1.517   5.240  0.9210  0.9667  1.3586
 5779TIP3   OH217300   6.019   0.990   2.498  0.0294 -0.1403 -0.0380
 5779TIP3    H117301   5.946   0.936   2.466 -0.4385  0.6374 -0.3025
 5779TIP3    H217302   5.981   1.077   2.510  0.8064  0.1635  0.2818
 5780TIP3   OH217303   0.875   2.061   5.004  0.0773  0.2142  0.0073
 5780TIP3    H117304   0.958   2.073   4.958  0.6535 -1.3841  0.5974
 5780TIP3    H217305   0.824   2.138   4.979  1.5723  1.0348 -0.6802
 5781TIP3   OH217306   1.119   3.516   1.228  0.1894 -0.2751 -0.1958
 5781TIP3    H117307   1.084   3.558   1.149  0.7627  0.1217 -0.2462
 5781TIP3    H217308   1.145   3.429   1.199 -1.5123 -0.8860  0.0341
 5782TIP3   OH217309   6.138   4.490   0.107  0.0206  0.6933 -0.4428
 5782TIP3    H117310   6.213   4.493   0.165  0.4432 -0.6138 -0.8897
 5782TIP3    H217311   6.066   4.457   0.161  0.2864 -0.0314 -0.5278
 5783TIP3   OH217312   4.423   3.416   3.119 -0.2220  0.3970  0.7964
 5783TIP3    H117313   4.427   3.380   3.208 -1.8319  1.4496  1.3439
 5783TIP3    H217314   4.450   3.344   3.062  0.4327 -0.4237  2.0980
 5784TIP3   OH217315   2.283   0.982   1.390 -0.0727  0.2449 -0.6295
 5784TIP3    H117316   2.311   1.070   1.368  1.8702  0.3752  1.9956
 5784TIP3    H217317   2.197   0.993   1.432  0.7421  1.0767  0.8719
 5785TIP3   OH217318   5.031   0.404   5.128  0.4698 -0.3345 -0.7015
 5785TIP3    H117319   5.014   0.473   5.064  1.3432  1.1457  0.5912
 5785TIP3    H217320   4.950   0.352   5.130 -0.8908  1.6756 -0.4793
 5786TIP3   OH217321   0.578   3.878   4.888  0.3914  0.0172  0.0868
 5786TIP3    H117322   0.578   3.801   4.832  0.5418  0.9313 -1.1996
 5786TIP3    H217323   0.670   3.889   4.912  0.3567 -0.2518  0.3496
 5787TIP3   OH217324   7.069   5.539   1.862  0.2468  0.6192 -0.2811
 5787TIP3    H117325   7.019   5.469   1.818 -0.6046 -0.6887  2.5327
 5787TIP3    H217326   7.161   5.513   1.850 -0.0081 -0.3028 -0.3748
 5788TIP3   OH217327   1.322   4.413   0.121 -0.0757  0.4909 -0.2925
 5788TIP3    H117328   1.310   4.448   0.033 -1.4802  0.6556 -0.0420
 5788TIP3    H217329   1.299   4.484   0.180  2.0650  0.8124  0.2721
 5789TIP3   OH217330   2.377   2.659   2.140 -0.6329  0.0413 -0.0164
 5789TIP3    H117331   2.293   2.702   2.157 -0.5253 -0.4157  1.8701
 5789TIP3    H217332   2.434   2.730   2.111 -1.1832  0.6945  0.4489
 5790TIP3   OH217333   2.956   1.417   2.905  0.1797 -0.0844 -0.2776
 5790TIP3    H117334   2.982   1.340   2.955  0.4004 -0.6552 -1.2373
 5790TIP3    H217335   2.885   1.456   2.956  0.0394 -0.9484  0.2058
 5791TIP3   OH217336   6.723   3.091   0.217 -0.1412 -0.9765  0.4686
 5791TIP3    H117337   6.736   2.999   0.198 -2.3458 -0.9487 -1.6281
 5791TIP3    H217338   6.690   3.093   0.307 -0.3265 -2.2516  0.4389
 5792TIP3   OH217339   0.106   3.597   1.337  0.1978 -0.6137 -0.2446
 5792TIP3    H117340   0.096   3.576   1.244 -2.1550  0.1313 -0.2115
 5792TIP3    H217341   0.155   3.679   1.338 -1.2705  0.3071 -0.9475
 5793TIP3   OH217342   1.349   1.002   3.516 -0.2534  0.1048  0.7977
 5793TIP3    H117343   1.367   1.096   3.524  0.9714  0.6967 -4.7184
 5793TIP3    H217344   1.259   0.997   3.486  0.1187 -0.2797 -0.3131
 5794TIP3   OH217345   6.019   1.492   5.737 -0.3366  0.2998  0.6004
 5794TIP3    H117346   6.094   1.479   5.679 -1.3463 -0.3259 -0.6197
 5794TIP3    H217347   6.002   1.586   5.733 -1.0129  0.1515 -0.9878
 5795TIP3   OH217348   6.991   2.910   4.242 -0.4208  0.0410 -0.0560
 5795TIP3    H117349   6.942   2.992   4.250 -0.3321  0.1283 -0.4015
 5795TIP3    H217350   6.924   2.842   4.239 -0.4893  0.0862  0.4153
 5796TIP3   OH217351   3.035   0.528   4.233 -0.0337 -0.2683 -0.1819
 5796TIP3    H117352   3.064   0.482   4.155  1.9827  0.2825  0.1855
 5796TIP3    H217353   3.056   0.620   4.217  0.6907 -0.1826  1.1085
 5797TIP3   OH217354   1.018   2.255   2.445 -0.1431 -0.4169  0.7067
 5797TIP3    H117355   1.104   2.248   2.487  0.8586 -1.7767 -1.3600
 5797TIP3    H217356   1.016   2.345   2.411  0.7359 -0.5249  0.3165
 5798TIP3   OH217357   2.438   0.777   4.745  0.0421 -0.8026  0.1516
 5798TIP3    H117358   2.442   0.693   4.700  2.6386 -0.2655 -0.7742
 5798TIP3    H217359   2.522   0.786   4.789  0.0407  1.5065 -0.1688
 5799TIP3   OH217360   7.002   2.850   0.038  0.0935  0.0775  0.1622
 5799TIP3    H117361   7.072   2.915   0.037 -0.6817  0.9370  0.2911
 5799TIP3    H217362   7.006   2.809  -0.049  1.2856 -0.4896  0.4622
 5800TIP3   OH217363   1.317   2.412   3.650 -0.4730 -1.1078 -0.1045
 5800TIP3    H117364   1.264   2.492   3.644  1.7202  0.3801 -0.8619
 5800TIP3    H217365   1.336   2.389   3.559  0.3938 -1.4508  0.1552
 5801TIP3   OH217366   3.359   3.352   1.303  0.4757 -0.3318 -0.6033
 5801TIP3    H117367   3.283   3.385   1.255  0.9162 -0.4354 -1.3977
 5801TIP3    H217368   3.405   3.296   1.240  0.8254 -0.8488  0.0926
 5802TIP3   OH217369   4.316   3.500   5.581  0.5349 -0.0781 -0.1269
 5802TIP3    H117370   4.251   3.546   5.634  0.4151 -0.1291 -0.2293
 5802TIP3    H217371   4.391   3.489   5.639  0.4430 -0.0395 -0.0006
 5803TIP3   OH217372   3.935   0.750   2.853 -0.0602  0.4628 -0.5149
 5803TIP3    H117373   4.005   0.686   2.865 -1.0231 -0.5626 -0.0672
 5803TIP3    H217374   3.953   0.818   2.918 -0.2253 -0.5032  0.5948
 5804TIP3   OH217375   3.917   4.549   2.267  0.7000 -0.0001 -0.4022
 5804TIP3    H117376   3.955   4.507   2.189 -0.8696 -2.5108  0.0829
 5804TIP3    H217377   3.942   4.491   2.339  0.3055  1.1251  0.6571
 5805TIP3   OH217378   1.007   3.582   3.588 -0.1410  0.4232 -0.1209
 5805TIP3    H117379   0.991   3.658   3.645 -1.0202 -0.8897  1.4791
 5805TIP3    H217380   0.924   3.570   3.542 -0.8191 -0.9455  1.3937
 5806TIP3   OH217381   3.014   4.462   2.490 -0.1097 -0.2457  0.7540
 5806TIP3    H117382   2.958   4.441   2.415  1.1922  0.7181 -0.5272
 5806TIP3    H217383   3.042   4.376   2.523 -0.5867 -0.6835  0.0488
 5807TIP3   OH217384   0.639   3.888   3.053 -0.5535  0.1178 -0.2424
 5807TIP3    H117385   0.719   3.856   3.012  0.4555 -0.3745  1.9258
 5807TIP3    H217386   0.594   3.937   2.985  0.7637 -1.0043 -1.9984
 5808TIP3   OH217387   2.855   1.949   1.960  0.1686  0.1784 -0.2655
 5808TIP3    H117388   2.821   1.970   2.047 -2.4997 -0.2032 -1.1299
 5808TIP3    H217389   2.933   2.004   1.951 -0.4180  1.4376  1.7219
 5809TIP3   OH217390   2.420   1.063   3.539 -0.0055  0.5828  0.6232
 5809TIP3    H117391   2.467   1.114   3.472 -1.4849  0.7147 -0.3688
 5809TIP3    H217392   2.339   1.113   3.554 -0.5664 -0.4451  1.1036
 5810TIP3   OH217393   1.515   0.499   5.288 -0.2766 -0.3906 -0.3091
 5810TIP3    H117394   1.452   0.536   5.225  0.0765 -0.0644 -0.4713
 5810TIP3    H217395   1.471   0.507   5.372  0.3587  1.7431 -0.1354
 5811TIP3   OH217396   5.907   1.735   2.975 -0.1555  0.0924  0.2384
 5811TIP3    H117397   5.828   1.683   2.957  0.2267 -0.4532  0.1309
 5811TIP3    H217398   5.941   1.757   2.888 -1.4097  2.2583  0.2040
 5812TIP3   OH217399   2.016   4.886   4.013 -0.4792 -0.4594  0.6687
 5812TIP3    H117400   1.954   4.947   4.052 -1.6565 -1.3175  0.1924
 5812TIP3    H217401   2.097   4.898   4.063 -0.9344  0.8680  1.1232
 5813TIP3   OH217402   4.360   3.328   5.366  0.3644  0.3836  0.1157
 5813TIP3    H117403   4.297   3.366   5.305  0.0095  0.3596  0.4648
 5813TIP3    H217404   4.345   3.374   5.449  0.8454  0.4199  0.1841
 5814TIP3   OH217405   5.460   3.868   5.493 -0.8699 -0.1080  0.0347
 5814TIP3    H117406   5.377   3.914   5.479 -0.6946  0.1890 -0.0430
 5814TIP3    H217407   5.470   3.812   5.417 -1.2786 -0.5683  0.3186
 5815TIP3   OH217408   4.101   6.484   0.712 -0.0734 -0.0500 -0.7074
 5815TIP3    H117409   4.038   6.413   0.700  1.0083 -0.8502 -1.8959
 5815TIP3    H217410   4.187   6.441   0.708  0.6609  1.4679 -2.8487
 5816TIP3   OH217411   2.773   5.172   4.472  0.2274  0.2321 -0.9696
 5816TIP3    H117412   2.803   5.099   4.419  1.5624  2.3053 -3.2863
 5816TIP3    H217413   2.836   5.178   4.543 -0.4192 -1.3539 -0.2133
 5817TIP3   OH217414   2.379   0.398   1.776 -0.3143  0.4391 -0.1336
 5817TIP3    H117415   2.335   0.380   1.860  0.3367 -1.9957 -0.2464
 5817TIP3    H217416   2.339   0.337   1.714  1.6118 -0.2557 -0.7629
 5818TIP3   OH217417   7.019   1.585   1.112  0.1410 -0.1023  0.0963
 5818TIP3    H117418   7.084   1.631   1.164  0.1491 -0.1360  0.1164
 5818TIP3    H217419   6.988   1.515   1.170 -0.6112  0.4973  0.4426
 5819TIP3   OH217420   6.912   1.873   0.353  0.5039 -0.4511  0.0048
 5819TIP3    H117421   6.880   1.786   0.377  1.2765 -0.9284 -0.6157
 5819TIP3    H217422   6.894   1.927   0.430 -2.2037 -0.5286 -0.4793
 5820TIP3   OH217423   2.522   2.772   4.341  0.2560  0.1549 -0.3814
 5820TIP3    H117424   2.606   2.769   4.295  1.4837 -0.6426  1.7804
 5820TIP3    H217425   2.517   2.688   4.387 -1.0986  0.7320  0.5901
 5821TIP3   OH217426   6.100   0.959   4.153  0.4847 -0.1160  0.2870
 5821TIP3    H117427   6.107   1.043   4.197 -1.1535 -0.5061  1.3732
 5821TIP3    H217428   6.074   0.898   4.221  1.0589 -1.4032 -0.6021
 5822TIP3   OH217429   4.588   2.696   4.983  0.1463 -0.3802  0.1842
 5822TIP3    H117430   4.524   2.753   4.941  0.4662 -0.7159 -0.7799
 5822TIP3    H217431   4.651   2.675   4.914  1.6543  0.4334  1.2421
 5823TIP3   OH217432   7.077   4.740   5.005  0.3155  0.5128  0.2658
 5823TIP3    H117433   6.993   4.697   4.991 -0.0843  0.9092  1.3951
 5823TIP3    H217434   7.077   4.812   4.941  0.0923  0.1199 -0.1881
 5824TIP3   OH217435   1.884   3.988   4.599  0.5015 -0.0117 -0.4389
 5824TIP3    H117436   1.841   3.910   4.634  0.5449 -0.5767 -1.6197
 5824TIP3    H217437   1.953   4.008   4.662 -0.4120 -0.0712  0.6145
 5825TIP3   OH217438   3.296   0.551   2.810  0.0891 -0.5620  0.0755
 5825TIP3    H117439   3.212   0.596   2.807  1.1503  1.5354  0.0929
 5825TIP3    H217440   3.295   0.505   2.894 -0.2954  1.0148  0.9674
 5826TIP3   OH217441   4.786   0.248   4.518  0.1921  0.5956 -0.0809
 5826TIP3    H117442   4.818   0.181   4.457  2.0580  1.2833  0.0882
 5826TIP3    H217443   4.706   0.281   4.477 -0.4490 -1.2708 -0.4745
 5827TIP3   OH217444   0.521   0.131   5.871  0.1079  0.0671 -0.7393
 5827TIP3    H117445   0.479   0.045   5.871  0.8748 -0.3162 -0.7765
 5827TIP3    H217446   0.585   0.126   5.800  1.3853  0.0539  0.3777
 5828TIP3   OH217447   1.775   3.115   5.396 -0.0699 -0.4840  0.1946
 5828TIP3    H117448   1.798   3.179   5.463 -0.4350  0.3996 -0.5089
 5828TIP3    H217449   1.680   3.117   5.393 -0.0367  0.4026 -1.1917
 5829TIP3   OH217450   3.569   4.509   0.972  0.3769 -0.0597  0.0534
 5829TIP3    H117451   3.618   4.518   1.053  0.1557 -1.0062  0.3057
 5829TIP3    H217452   3.623   4.553   0.906  1.1690 -0.3688  0.4783
 5830TIP3   OH217453   6.262   3.382   0.958 -0.3576  0.0508 -0.0581
 5830TIP3    H117454   6.304   3.414   0.878 -0.4709 -1.2418 -0.6606
 5830TIP3    H217455   6.181   3.341   0.928 -0.9497  0.5280  0.8505
 5831TIP3   OH217456   2.923   1.279   3.293  0.2702  0.3623  0.1876
 5831TIP3    H117457   3.008   1.302   3.333  0.0907 -1.6249  1.9063
 5831TIP3    H217458   2.946   1.243   3.207  1.1232  0.3306  0.4197
 5832TIP3   OH217459   0.532   0.979   5.094 -0.6336 -0.2896 -0.4239
 5832TIP3    H117460   0.592   0.949   5.162  0.2114  1.0639 -0.5093
 5832TIP3    H217461   0.492   1.058   5.131 -2.7417 -1.4059 -0.2045
 5833TIP3   OH217462   2.119   6.232   5.190 -0.7030 -0.4049  0.0850
 5833TIP3    H117463   2.076   6.235   5.275  0.6240 -1.3412  0.8264
 5833TIP3    H217464   2.202   6.278   5.203  0.5964 -2.5997  0.0042
 5834TIP3   OH217465   5.072   0.540   1.861  0.5003 -0.1699  0.2693
 5834TIP3    H117466   5.031   0.466   1.907 -0.6130  1.4088  1.9701
 5834TIP3    H217467   5.009   0.563   1.793  0.2182  0.0414  0.5996
 5835TIP3   OH217468   3.797   0.294   2.027 -0.0274 -0.4648 -0.1414
 5835TIP3    H117469   3.877   0.340   2.053 -1.1347  1.4530  0.0883
 5835TIP3    H217470   3.743   0.293   2.106 -0.7107 -0.6729 -0.6054
 5836TIP3   OH217471   3.638   3.979   4.677  0.1877  0.2310  0.2371
 5836TIP3    H117472   3.655   3.946   4.589  1.2219 -1.2822  0.9656
 5836TIP3    H217473   3.707   4.043   4.692  0.0715  0.4161 -0.0063
 5837TIP3   OH217474   2.733   2.331   1.980  0.2728  0.7160 -0.4496
 5837TIP3    H117475   2.643   2.321   1.947 -0.1753  0.6433  0.7455
 5837TIP3    H217476   2.788   2.293   1.912 -0.6925 -0.3435 -0.6607
 5838TIP3   OH217477   3.549   6.566   4.991  0.1983  0.3814  0.3415
 5838TIP3    H117478   3.615   6.628   4.960  1.3254 -0.5540  0.8061
 5838TIP3    H217479   3.521   6.520   4.912  0.6183  0.2970  0.2412
 5839TIP3   OH217480   0.545   5.573   3.002  0.1001 -0.0797  0.6383
 5839TIP3    H117481   0.557   5.593   2.910  1.2619 -0.1358  0.7576
 5839TIP3    H217482   0.598   5.495   3.017  2.7638  1.8211  2.0525
 5840TIP3   OH217483   0.054   2.067   1.812  0.1765  0.0521 -0.0086
 5840TIP3    H117484  -0.011   2.038   1.748 -0.7749  0.7476  0.6136
 5840TIP3    H217485   0.078   2.155   1.784 -0.4394  0.4625  0.7186
 5841TIP3   OH217486   2.075   3.706   5.346 -0.1831  0.0531  0.0025
 5841TIP3    H117487   1.983   3.680   5.341  0.0797 -0.9957  0.3776
 5841TIP3    H217488   2.123   3.632   5.310  0.5118  0.7456 -0.5533
 5842TIP3   OH217489   7.151   5.028   4.271 -0.5040 -0.1154 -0.3805
 5842TIP3    H117490   7.094   5.105   4.284 -2.3447 -1.7653  2.4191
 5842TIP3    H217491   7.220   5.039   4.336 -1.5913 -1.4236  1.0780
 5843TIP3   OH217492   0.978   6.040   4.807  0.0470 -0.6129 -0.3284
 5843TIP3    H117493   0.941   6.123   4.838  1.7851  0.6062 -1.3446
 5843TIP3    H217494   0.955   5.977   4.875  0.4491  1.1300  1.5147
 5844TIP3   OH217495   5.173   0.419   3.823 -0.6302  0.5270  0.0026
 5844TIP3    H117496   5.150   0.447   3.735 -0.4741  0.7766  0.0417
 5844TIP3    H217497   5.181   0.500   3.873  2.7249  0.6480 -0.5583
 5845TIP3   OH217498   1.404   3.086   0.819 -0.1335  0.1933 -0.2869
 5845TIP3    H117499   1.453   3.087   0.736  1.2145  0.3124  0.4813
 5845TIP3    H217500   1.429   3.168   0.862 -1.0549  0.2704  0.1085
 5846TIP3   OH217501   4.936   4.098   3.758  0.2196 -0.1182 -0.0481
 5846TIP3    H117502   5.016   4.131   3.798 -0.2398  0.1020  0.7259
 5846TIP3    H217503   4.876   4.085   3.832 -1.0489  1.3824 -0.7473
 5847TIP3   OH217504   3.350   0.286   2.365  0.1309 -0.2099  0.1096
 5847TIP3    H117505   3.365   0.307   2.457 -0.8334 -0.4081  0.3196
 5847TIP3    H217506   3.271   0.335   2.341  0.4587 -0.0410 -0.6514
 5848TIP3   OH217507   6.077   1.844   3.961  0.2243 -0.1264  0.5812
 5848TIP3    H117508   6.000   1.898   3.946  0.1235 -0.7033 -1.1584
 5848TIP3    H217509   6.149   1.892   3.921  0.2769 -0.8598 -0.2409
 5849TIP3   OH217510   3.173   3.060   3.137  0.2476  0.2532  0.0281
 5849TIP3    H117511   3.099   3.028   3.189  0.5350 -0.9674 -0.2899
 5849TIP3    H217512   3.165   3.156   3.141 -1.1812  0.1532  0.2342
 5850TIP3   OH217513   2.463   3.838   5.104  0.3644  0.0454 -0.0934
 5850TIP3    H117514   2.550   3.877   5.101  0.4640 -0.1774 -0.0383
 5850TIP3    H217515   2.476   3.747   5.078  0.2320 -0.1436  0.4997
 5851TIP3   OH217516   2.264   1.783   2.640 -0.1690 -0.3885  0.9618
 5851TIP3    H117517   2.289   1.704   2.688  1.6703 -0.7337 -0.4837
 5851TIP3    H217518   2.224   1.839   2.707  2.7338 -0.6436  3.1018
 5852TIP3   OH217519   3.681   5.938   3.134  0.0414 -0.3687  0.6874
 5852TIP3    H117520   3.753   5.995   3.109 -1.3254  0.9952 -0.3478
 5852TIP3    H217521   3.717   5.849   3.127  1.5706  0.2625  0.1163
 5853TIP3   OH217522   0.221   2.936   0.060  0.3387 -0.0238 -0.0201
 5853TIP3    H117523   0.265   2.953   0.144  0.7643 -0.4248 -0.1543
 5853TIP3    H217524   0.216   2.840   0.056  1.8129 -0.0973 -1.1901
 5854TIP3   OH217525   6.736   0.350   0.838  0.2826  0.9710  0.0462
 5854TIP3    H117526   6.690   0.357   0.755  1.4091  0.8952 -0.6025
 5854TIP3    H217527   6.722   0.259   0.866 -0.9917  1.2871  0.4941
 5855TIP3   OH217528   4.075   1.537   3.040 -0.6195 -0.0380  0.0838
 5855TIP3    H117529   4.077   1.516   2.946  1.4682 -1.9494  0.4774
 5855TIP3    H217530   4.111   1.625   3.045  1.3923 -0.7655 -0.7768
 5856TIP3   OH217531   7.187   3.729   2.344  0.7335 -0.3242 -0.0671
 5856TIP3    H117532   7.153   3.807   2.387  0.9890 -0.6914  0.8049
 5856TIP3    H217533   7.282   3.736   2.350  0.7582 -0.7425  0.0913
 5857TIP3   OH217534   4.128   3.760   3.261  0.3114 -0.6023  0.3232
 5857TIP3    H117535   4.167   3.819   3.325 -0.0539  2.1082 -1.7578
 5857TIP3    H217536   4.202   3.718   3.218  0.6548 -0.4548  0.7667
 5858TIP3   OH217537   5.973   0.983   2.935  0.2748 -0.1361 -0.2269
 5858TIP3    H117538   5.941   0.894   2.943  0.7050 -0.3943 -1.2886
 5858TIP3    H217539   6.033   0.994   3.009  1.9946 -1.5112 -1.3375
 5859TIP3   OH217540   5.754   3.299   3.619  0.0139  0.0927 -0.0827
 5859TIP3    H117541   5.778   3.297   3.526 -0.7414  2.5616 -0.4021
 5859TIP3    H217542   5.790   3.382   3.651 -2.6074  0.9062  0.9704
 5860TIP3   OH217543   4.515   0.803   1.617 -0.5107  0.0728 -0.2788
 5860TIP3    H117544   4.502   0.764   1.703  0.5295  0.1959 -0.0499
 5860TIP3    H217545   4.477   0.740   1.556  1.1906 -1.3569  0.0736
 5861TIP3   OH217546   1.715   6.369   2.614 -0.1129  0.0913  0.2855
 5861TIP3    H117547   1.769   6.423   2.556 -0.0421  1.0588  1.2166
 5861TIP3    H217548   1.626   6.405   2.604 -0.5777 -1.3054 -1.0212
 5862TIP3   OH217549   3.381   2.614   4.395  0.0871 -0.7362 -0.0857
 5862TIP3    H117550   3.413   2.640   4.309 -1.4872  0.1273 -0.4520
 5862TIP3    H217551   3.346   2.526   4.382 -1.2529 -0.1457 -0.6617
 5863TIP3   OH217552   5.090   4.105   0.147  1.2101  0.2876 -0.0577
 5863TIP3    H117553   5.121   4.038   0.086 -2.1039 -0.6520 -0.8960
 5863TIP3    H217554   5.035   4.057   0.209 -0.4559  2.0584 -0.0859
 5864TIP3   OH217555   4.227   2.549   5.803  0.2261 -0.8402  0.4057
 5864TIP3    H117556   4.277   2.629   5.816  0.1206 -0.7661  0.3575
 5864TIP3    H217557   4.284   2.494   5.748  0.2864 -0.7885  0.4165
 5865TIP3   OH217558   4.752   6.335   5.875  0.2107 -0.3069 -0.3577
 5865TIP3    H117559   4.759   6.263   5.813  1.2327  0.6194 -1.3607
 5865TIP3    H217560   4.658   6.346   5.889  0.0294 -1.4165 -0.6755
 5866TIP3   OH217561   4.660   2.310   2.968  0.2581 -0.0008  0.3291
 5866TIP3    H117562   4.653   2.403   2.947 -0.3208 -0.3305 -1.0582
 5866TIP3    H217563   4.578   2.289   3.012  0.2158  0.0630  0.2815
 5867TIP3   OH217564   4.096   1.929   2.205 -0.7031 -0.2285 -0.1839
 5867TIP3    H117565   4.034   1.867   2.242 -0.0852 -0.0489  1.2534
 5867TIP3    H217566   4.062   2.015   2.231 -1.5021  0.0653 -2.0721
 5868TIP3   OH217567   1.324   0.702   4.368 -0.1387 -0.1923  0.0226
 5868TIP3    H117568   1.328   0.778   4.427  0.5919  0.8867 -1.3508
 5868TIP3    H217569   1.409   0.659   4.378  0.4993  0.7420 -1.1557
 5869TIP3   OH217570   1.586   3.336   1.282  0.0154  0.6077 -0.2075
 5869TIP3    H117571   1.666   3.388   1.281  0.5417 -0.1687  0.3707
 5869TIP3    H217572   1.540   3.364   1.361  1.2055 -1.0923  1.1606
 5870TIP3   OH217573   2.952   5.664   4.858 -0.3870 -0.4182 -0.2526
 5870TIP3    H117574   2.975   5.604   4.786  0.4092 -2.0222  1.2459
 5870TIP3    H217575   2.870   5.630   4.893  0.0449 -0.6397  0.5823
 5871TIP3   OH217576   2.700   6.522   4.481 -0.7576 -0.0130 -0.1264
 5871TIP3    H117577   2.737   6.499   4.566  0.2398  0.5663 -0.3796
 5871TIP3    H217578   2.609   6.492   4.485 -0.8823  0.4633  1.3342
 5872TIP3   OH217579   4.017   2.138   2.912  0.0961  0.1098  0.0375
 5872TIP3    H117580   3.952   2.201   2.880  1.7144  1.3599 -0.9617
 5872TIP3    H217581   4.045   2.091   2.833 -0.9459 -1.7905  0.7413
 5873TIP3   OH217582   0.350   3.013   1.510 -0.5324  0.0872 -0.3492
 5873TIP3    H117583   0.306   2.960   1.444 -1.9157  0.1955  0.4495
 5873TIP3    H217584   0.436   2.972   1.520 -1.5897 -2.1158  0.3326
 5874TIP3   OH217585   0.292   6.103   1.148 -0.4248 -0.4991  0.4373
 5874TIP3    H117586   0.347   6.181   1.153 -1.1402 -0.0013  0.7028
 5874TIP3    H217587   0.243   6.104   1.230 -2.2223  0.1309 -0.5953
 5875TIP3   OH217588   6.808   3.147   2.248  0.3465 -1.3690  0.5712
 5875TIP3    H117589   6.880   3.091   2.217 -0.5194 -2.1116 -0.1633
 5875TIP3    H217590   6.729   3.106   2.212 -0.3810 -0.1201  0.7035
 5876TIP3   OH217591   2.131   3.663   2.601 -0.0685  0.2110  0.0986
 5876TIP3    H117592   2.097   3.612   2.528  1.0120 -1.0691  0.4537
 5876TIP3    H217593   2.059   3.664   2.665 -0.7512  0.7146 -0.6589
 5877TIP3   OH217594   4.360   5.777   3.592  0.1590  0.2946 -0.0664
 5877TIP3    H117595   4.285   5.754   3.647  0.8246 -0.2759  0.6244
 5877TIP3    H217596   4.325   5.840   3.529 -1.0489 -0.4151 -0.1428
 5878TIP3   OH217597   2.627   1.393   1.245  0.4422 -0.7197  0.2226
 5878TIP3    H117598   2.545   1.352   1.270  1.6977 -2.2101  2.2372
 5878TIP3    H217599   2.639   1.463   1.309 -0.0453  0.6285 -1.1167
 5879TIP3   OH217600   6.427   5.762   3.771 -0.6454  0.0466  0.3375
 5879TIP3    H117601   6.430   5.730   3.862 -2.8481 -0.6634  0.2274
 5879TIP3    H217602   6.477   5.697   3.722 -0.6867 -0.3810  0.8493
 5880TIP3   OH217603   5.987   3.491   2.491 -0.1967  1.0308 -0.2745
 5880TIP3    H117604   5.978   3.427   2.420  0.4163  2.0848 -1.3424
 5880TIP3    H217605   5.943   3.450   2.566  1.1472 -1.1379 -0.5643
 5881TIP3   OH217606   3.170   5.559   3.095 -0.3884  0.4039  0.6743
 5881TIP3    H117607   3.157   5.464   3.097 -0.7508  0.3751 -1.3595
 5881TIP3    H217608   3.262   5.571   3.117  0.3272 -0.6463 -1.4565
 5882TIP3   OH217609   1.114   4.969   0.974  0.0180 -0.1409 -0.1651
 5882TIP3    H117610   1.082   4.881   0.955 -0.8507 -0.0103  0.5979
 5882TIP3    H217611   1.183   4.956   1.040  1.9790 -0.4655 -2.1783
 5883TIP3   OH217612   4.697   5.145   5.340  0.1596 -0.6741 -0.3265
 5883TIP3    H117613   4.608   5.116   5.321 -0.1983  0.2322 -0.0630
 5883TIP3    H217614   4.687   5.212   5.408  0.7920  1.4146 -2.1996
 5884TIP3   OH217615   6.018   4.149   2.279  0.5185 -0.4559  0.1677
 5884TIP3    H117616   6.041   4.079   2.341  0.6177 -1.5556 -1.0491
 5884TIP3    H217617   6.072   4.223   2.305  0.4940 -0.8675  1.4441
 5885TIP3   OH217618   5.828   2.493   4.545  0.1626  0.0179 -0.4090
 5885TIP3    H117619   5.755   2.554   4.548 -0.8052 -1.0968 -0.8448
 5885TIP3    H217620   5.837   2.462   4.636 -0.3743 -0.3824 -0.4909
 5886TIP3   OH217621   0.658   1.709   1.889  0.0717  0.0386 -0.0778
 5886TIP3    H117622   0.643   1.660   1.808  1.0071  0.7988 -0.7231
 5886TIP3    H217623   0.753   1.707   1.901 -0.1650 -2.6420  2.6313
 5887TIP3   OH217624   5.132   4.600   3.231 -0.7206  0.0764  0.2326
 5887TIP3    H117625   5.094   4.594   3.143 -0.9933 -2.7934  0.4664
 5887TIP3    H217626   5.226   4.595   3.216 -0.7483  0.0045  0.0715
 5888TIP3   OH217627   1.974   5.901   5.374  0.1961  0.2582  0.2712
 5888TIP3    H117628   1.938   5.853   5.449 -0.1274 -0.4939 -0.3492
 5888TIP3    H217629   2.040   5.842   5.337 -0.8439 -0.1250 -1.0420
 5889TIP3   OH217630   4.745   0.342   0.080  0.2576  0.1179 -0.6084
 5889TIP3    H117631   4.812   0.380   0.023  1.4189  0.7356  1.1087
 5889TIP3    H217632   4.729   0.255   0.044  2.1852 -0.1476 -0.8967
 5890TIP3   OH217633   1.495   4.809   5.443  0.2992  0.2303  0.1513
 5890TIP3    H117634   1.524   4.814   5.534  0.6083  0.0908  0.0610
 5890TIP3    H217635   1.475   4.899   5.419  2.1251  0.5681 -0.2607
 5891TIP3   OH217636   0.190   5.439   1.413 -0.0061  0.2229 -0.3798
 5891TIP3    H117637   0.175   5.498   1.487  1.2167  0.3047 -0.1743
 5891TIP3    H217638   0.133   5.364   1.430 -1.3095  1.1544 -0.4571
 5892TIP3   OH217639   5.029   1.763   3.193 -0.0699 -0.1215 -0.1283
 5892TIP3    H117640   5.073   1.751   3.277 -0.0006 -0.6282 -0.2335
 5892TIP3    H217641   5.058   1.850   3.163  0.6345 -0.3253 -0.0601
 5893TIP3   OH217642   1.329   6.174   2.488 -0.7258 -0.1414  0.1148
 5893TIP3    H117643   1.238   6.173   2.458 -0.8513 -2.4084  0.3968
 5893TIP3    H217644   1.372   6.108   2.434  0.9607  1.3769 -0.4982
 5894TIP3   OH217645   3.690   0.835   2.755  0.0804  0.0574  0.1866
 5894TIP3    H117646   3.690   0.838   2.660 -0.1896 -0.5717  0.1562
 5894TIP3    H217647   3.776   0.799   2.779  0.0885  0.0667  0.1708
 5895TIP3   OH217648   5.936   5.144   2.705 -0.1338  0.5002 -0.0196
 5895TIP3    H117649   5.994   5.213   2.739 -1.2837  1.0700  0.8241
 5895TIP3    H217650   5.986   5.063   2.718  1.2706  1.1423 -1.0920
 5896TIP3   OH217651   2.848   6.093   2.714 -0.3026  0.1759 -0.0289
 5896TIP3    H117652   2.818   6.107   2.804 -3.0558  0.7996 -0.9368
 5896TIP3    H217653   2.902   6.014   2.719 -1.6172 -0.6886  1.9407
 5897TIP3   OH217654   6.949   1.896   5.633  0.2080 -0.4831  0.0572
 5897TIP3    H117655   7.040   1.909   5.659 -0.1689 -0.3613  1.4429
 5897TIP3    H217656   6.948   1.909   5.539  1.3913  0.8581  0.1977
 5898TIP3   OH217657   0.847   5.844   0.780  0.3963 -0.0191 -0.2853
 5898TIP3    H117658   0.756   5.877   0.782  0.3547 -0.1497  0.4338
 5898TIP3    H217659   0.878   5.865   0.692 -0.2508  0.2564 -0.4588
 5899TIP3   OH217660   0.274   2.101   3.910  0.4303 -0.0244 -0.1672
 5899TIP3    H117661   0.201   2.097   3.971  0.7039  0.6395  0.2190
 5899TIP3    H217662   0.331   2.170   3.946 -0.1672  1.5123 -2.0012
 5900TIP3   OH217663   6.094   2.632   1.766  0.1992  0.0618  0.1442
 5900TIP3    H117664   6.027   2.669   1.708  0.8654  1.2701  0.1146
 5900TIP3    H217665   6.050   2.622   1.850 -0.7741 -1.6803 -0.4966
 5901TIP3   OH217666   4.375   6.484   0.945 -0.2902 -0.3849  0.6321
 5901TIP3    H117667   4.386   6.459   0.853  2.7759  0.4803  0.6292
 5901TIP3    H217668   4.353   6.577   0.942  2.7119  0.4311  0.6711
 5902TIP3   OH217669   6.020   0.630   2.353  0.2335 -0.0482  0.6315
 5902TIP3    H117670   5.932   0.665   2.364  0.3339  1.1436 -1.8337
 5902TIP3    H217671   6.076   0.692   2.400  0.0169  0.9075 -0.3298
 5903TIP3   OH217672   6.764   4.399   4.480  0.0144 -0.8394 -0.5468
 5903TIP3    H117673   6.758   4.482   4.433  0.5016  0.3028  1.2941
 5903TIP3    H217674   6.837   4.411   4.542  0.3465 -2.7726 -0.4742
 5904TIP3   OH217675   1.422   5.483   2.127  0.2962 -0.0525  0.6432
 5904TIP3    H117676   1.392   5.552   2.186 -1.0803  1.6709 -1.8628
 5904TIP3    H217677   1.506   5.515   2.093 -1.0898  1.3045 -1.7333
 5905TIP3   OH217678   2.855   2.851   3.486  0.2222 -0.3576  0.1795
 5905TIP3    H117679   2.885   2.772   3.530 -1.7281 -0.6061  1.1753
 5905TIP3    H217680   2.855   2.829   3.393  0.6510 -1.1832  0.3712
 5906TIP3   OH217681   4.849   3.929   4.533 -0.0162 -0.5949  0.0277
 5906TIP3    H117682   4.928   3.976   4.506  0.3965 -1.0225  0.4465
 5906TIP3    H217683   4.875   3.884   4.614 -0.4633 -1.3479 -0.2391
 5907TIP3   OH217684   2.834   6.036   0.382 -0.3518 -0.0706 -0.6716
 5907TIP3    H117685   2.748   5.998   0.364 -0.6183  0.4076 -0.4440
 5907TIP3    H217686   2.825   6.128   0.355 -0.3689  0.3437  0.6669
 5908TIP3   OH217687   4.665   4.117   4.612  0.9645  0.0399 -0.0384
 5908TIP3    H117688   4.720   4.163   4.676  0.7765 -0.0013  0.1568
 5908TIP3    H217689   4.709   4.034   4.597  0.3243 -0.5251  1.0589
 5909TIP3   OH217690   6.885   6.345   2.664 -0.6199  0.7516 -0.2239
 5909TIP3    H117691   6.964   6.394   2.689  0.2869 -0.7673  0.0114
 5909TIP3    H217692   6.820   6.367   2.731  0.5970 -0.3806  1.3948
 5910TIP3   OH217693   4.273   2.254   1.715 -0.2527 -0.0481  0.0460
 5910TIP3    H117694   4.274   2.189   1.645  1.6663  0.8626 -0.8336
 5910TIP3    H217695   4.357   2.242   1.760 -0.3255  1.1393  0.5228
 5911TIP3   OH217696   2.245   0.189   1.073  0.3223 -0.4829  0.3017
 5911TIP3    H117697   2.270   0.245   1.146 -0.3812  0.8263 -0.4186
 5911TIP3    H217698   2.162   0.225   1.043  0.2798 -1.3957 -0.7333
 5912TIP3   OH217699   1.631   2.085   0.409  0.3178  0.2933 -0.1221
 5912TIP3    H117700   1.635   1.995   0.376 -2.6554 -0.5666  1.4941
 5912TIP3    H217701   1.721   2.105   0.435  1.2864 -1.7448 -1.6012
 5913TIP3   OH217702   5.061   1.258   5.713  0.1017 -0.0486 -0.2763
 5913TIP3    H117703   5.112   1.316   5.769 -3.0550  2.0208  0.6757
 5913TIP3    H217704   5.090   1.170   5.738  0.3976  0.8684  3.0747
 5914TIP3   OH217705   3.945   6.145   1.127  0.2750 -0.2203 -0.6254
 5914TIP3    H117706   4.009   6.099   1.182 -0.8567  0.0509  1.0071
 5914TIP3    H217707   3.982   6.233   1.116  0.3815 -0.1837 -0.0272
 5915TIP3   OH217708   3.121   2.465   0.410  0.5994 -0.7562 -0.1341
 5915TIP3    H117709   3.052   2.414   0.453  1.7873 -3.0673 -0.7880
 5915TIP3    H217710   3.074   2.529   0.356 -0.9327  0.7599  2.7711
 5916TIP3   OH217711   2.078   5.732   0.289  0.6000 -0.0032 -0.2468
 5916TIP3    H117712   2.160   5.769   0.322  0.8515 -0.3498 -0.4782
 5916TIP3    H217713   2.020   5.729   0.365  0.9075 -0.0470 -0.0142
 5917TIP3   OH217714   7.065   5.349   2.449  0.1946 -0.2147 -0.3233
 5917TIP3    H117715   7.101   5.437   2.432 -1.1223  0.6396  1.0326
 5917TIP3    H217716   6.992   5.341   2.388  1.5250 -1.2562 -1.8751
 5918TIP3   OH217717   2.999   4.417   3.004  0.1078 -0.2783 -0.1328
 5918TIP3    H117718   2.934   4.394   3.071  0.9074 -0.6308  0.5314
 5918TIP3    H217719   2.979   4.509   2.983 -2.3771 -1.1058 -1.9862
 5919TIP3   OH217720   6.475   5.917   2.847 -0.0350  0.5252 -0.2182
 5919TIP3    H117721   6.380   5.926   2.839 -0.2615 -1.3144 -0.1231
 5919TIP3    H217722   6.502   5.993   2.898 -1.6904  0.3275  1.0759
 5920TIP3   OH217723   2.903   6.575   3.874 -0.4361  0.0241  0.8346
 5920TIP3    H117724   2.814   6.609   3.884 -0.5234  1.1711 -2.4522
 5920TIP3    H217725   2.955   6.653   3.852 -0.0953 -1.2434 -4.1578
 5921TIP3   OH217726   5.329   4.812   1.981  0.1312  0.0194 -0.0380
 5921TIP3    H117727   5.249   4.863   1.970 -0.0591 -0.3259 -0.2721
 5921TIP3    H217728   5.320   4.740   1.918 -0.0370 -0.8422  0.9514
 5922TIP3   OH217729   6.835   0.394   1.250  0.1217 -0.0904  0.8448
 5922TIP3    H117730   6.898   0.394   1.322 -0.7164  1.5252  1.6432
 5922TIP3    H217731   6.768   0.456   1.278  0.5305  1.7928 -2.0102
 5923TIP3   OH217732   1.048   5.792   1.033  0.3400 -0.1435  0.2330
 5923TIP3    H117733   0.968   5.834   1.063  0.8334  0.8443  0.2199
 5923TIP3    H217734   1.025   5.751   0.950 -0.6194 -1.4875  1.1208
 5924TIP3   OH217735   2.678   0.044   2.261  0.2801  0.5469  0.2190
 5924TIP3    H117736   2.685   0.094   2.180  2.1071  1.3656  0.8257
 5924TIP3    H217737   2.624   0.098   2.319  1.3440  1.3493  0.4958
 5925TIP3   OH217738   4.138   5.547   2.199 -0.4286  0.3849  0.1088
 5925TIP3    H117739   4.106   5.490   2.128  0.4797  0.9997 -0.8278
 5925TIP3    H217740   4.228   5.568   2.174 -0.6481  2.0065  0.5675
 5926TIP3   OH217741   5.943   6.755   5.160  0.2025  0.1602  0.2776
 5926TIP3    H117742   6.019   6.745   5.217 -0.4881  2.5670  1.7946
 5926TIP3    H217743   5.946   6.846   5.132 -0.6382 -0.4238 -1.9350
 5927TIP3   OH217744   0.834   1.190   3.343 -0.1258  0.5127 -0.3619
 5927TIP3    H117745   0.799   1.129   3.409  0.6024 -0.4797 -0.8763
 5927TIP3    H217746   0.814   1.277   3.379  1.5857  0.0569  1.9438
 5928TIP3   OH217747   6.816   1.826   1.115 -0.1689  0.1356 -0.6091
 5928TIP3    H117748   6.779   1.781   1.039 -0.5759 -0.3850 -0.1107
 5928TIP3    H217749   6.770   1.788   1.190  0.6140  0.2489 -0.0593
 5929TIP3   OH217750   1.486   1.127   0.539 -0.3812  0.1910  0.4509
 5929TIP3    H117751   1.529   1.057   0.589  0.8695  0.1345 -0.6259
 5929TIP3    H217752   1.411   1.084   0.498 -1.3014  0.1930  2.0607
 5930TIP3   OH217753   2.800   3.457   1.754  0.2644  0.0250 -0.1218
 5930TIP3    H117754   2.719   3.410   1.736  0.8578 -0.1884 -2.6439
 5930TIP3    H217755   2.771   3.543   1.784 -0.9162  0.0371 -1.2001
 5931TIP3   OH217756   0.917   4.420   5.211 -0.1138  0.2082  0.1391
 5931TIP3    H117757   0.951   4.500   5.170  0.2018  0.8544  1.6270
 5931TIP3    H217758   0.936   4.351   5.146  2.9578  0.7204  0.3331
 5932TIP3   OH217759   6.173   2.237   3.484  0.5872  0.3489 -0.1184
 5932TIP3    H117760   6.085   2.201   3.494  0.3607  0.7190 -0.7146
 5932TIP3    H217761   6.196   2.268   3.571  0.6815 -0.9717  0.3526
 5933TIP3   OH217762   3.042   6.672   4.514 -0.1377  0.5233  0.6013
 5933TIP3    H117763   3.021   6.705   4.602 -1.1341 -2.9603  1.8440
 5933TIP3    H217764   3.058   6.578   4.528  2.2874  0.3307 -2.5883
 5934TIP3   OH217765   5.499   0.561   1.213 -0.5699  0.3311 -0.1028
 5934TIP3    H117766   5.467   0.610   1.289  1.3407  0.6244  0.5768
 5934TIP3    H217767   5.594   0.565   1.221 -0.3470 -1.2157 -1.5272
 5935TIP3   OH217768   5.680   6.203   3.847  0.1638 -0.3105  0.3066
 5935TIP3    H117769   5.636   6.279   3.811  1.5813  0.3685 -0.0634
 5935TIP3    H217770   5.727   6.164   3.773  0.5103 -0.7703  0.7547
 5936TIP3   OH217771   4.195   4.420   0.255 -0.0177  0.1581 -0.3361
 5936TIP3    H117772   4.198   4.371   0.173  0.2495 -2.8657  1.3457
 5936TIP3    H217773   4.284   4.455   0.265 -0.0839  0.6544 -1.3569
 5937TIP3   OH217774   1.685   1.088   0.232 -0.4537 -0.3438  0.0095
 5937TIP3    H117775   1.671   0.994   0.243 -0.3460 -0.2263  1.2760
 5937TIP3    H217776   1.688   1.101   0.137 -1.0378 -1.5298 -0.1843
 5938TIP3   OH217777   1.551   3.971   2.891 -0.2282 -0.0277 -0.1350
 5938TIP3    H117778   1.605   4.048   2.910 -1.2243  0.5927  0.2551
 5938TIP3    H217779   1.510   3.991   2.807  0.8610 -0.9103 -0.9005
 5939TIP3   OH217780   0.050   6.511   5.356  0.0792 -0.3783  0.0950
 5939TIP3    H117781   0.053   6.466   5.441  1.3986 -0.5298 -0.0168
 5939TIP3    H217782  -0.028   6.566   5.361  1.2216  1.1908  2.2369
 5940TIP3   OH217783   1.433   4.194   4.046 -0.8745 -0.4615  0.1418
 5940TIP3    H117784   1.404   4.238   4.126 -0.3353 -0.9069  0.5957
 5940TIP3    H217785   1.517   4.155   4.069 -2.3244 -3.7411  0.5468
 5941TIP3   OH217786   0.698   1.480   5.687 -0.1093  0.3052  0.1167
 5941TIP3    H117787   0.769   1.450   5.744 -1.2307  2.4934  2.9497
 5941TIP3    H217788   0.742   1.515   5.610  1.8274  0.5971  1.2814
 5942TIP3   OH217789   5.282   5.750   1.280  0.5904 -0.1554  0.2721
 5942TIP3    H117790   5.218   5.680   1.293 -0.1300  0.1121 -1.6554
 5942TIP3    H217791   5.310   5.740   1.189  1.2250  1.4538  0.2754
 5943TIP3   OH217792   5.857   4.380   3.844  0.0914  0.6390 -0.0610
 5943TIP3    H117793   5.837   4.305   3.901 -1.2317  1.3896  0.4938
 5943TIP3    H217794   5.948   4.402   3.866  0.7205 -1.1595 -0.6767
 5944TIP3   OH217795   6.562   0.496   2.151  0.1644  0.2609  0.4350
 5944TIP3    H117796   6.514   0.524   2.073 -1.1483 -0.3603  0.9879
 5944TIP3    H217797   6.561   0.400   2.147  1.1779  0.2370  0.5739
 5945TIP3   OH217798   6.290   5.886   3.566  0.4469 -0.0341 -0.2692
 5945TIP3    H117799   6.339   5.826   3.510  0.5852  0.0619 -0.2500
 5945TIP3    H217800   6.313   5.860   3.655  0.1565 -0.2450 -0.2555
 5946TIP3   OH217801   4.193   0.047   0.388  0.6310 -0.2287 -0.3479
 5946TIP3    H117802   4.205  -0.036   0.435 -0.9220 -0.3152 -0.0596
 5946TIP3    H217803   4.098   0.057   0.380  0.5665  2.9522  2.2410
 5947TIP3   OH217804   3.691   3.622   2.647 -0.5317 -1.1049 -0.1176
 5947TIP3    H117805   3.606   3.585   2.626 -0.7215 -1.2073  0.7963
 5947TIP3    H217806   3.739   3.621   2.564 -1.1178 -1.8327 -0.4555
 5948TIP3   OH217807   5.300   4.953   3.214  0.3483 -0.3072  0.0622
 5948TIP3    H117808   5.356   5.028   3.195  1.3723 -1.5828 -2.4238
 5948TIP3    H217809   5.310   4.895   3.138 -2.4086 -1.7807  0.6774
 5949TIP3   OH217810   1.732   1.010   2.760 -0.2303  0.1613  0.2756
 5949TIP3    H117811   1.812   0.958   2.768 -0.2782 -0.2905 -1.6597
 5949TIP3    H217812   1.666   0.961   2.808  0.2361 -0.4093  0.3494
 5950TIP3   OH217813   6.010   5.691   3.765 -0.2780  0.1120  0.3044
 5950TIP3    H117814   6.020   5.669   3.672 -1.1947 -0.0930  0.2405
 5950TIP3    H217815   5.932   5.642   3.792  0.3786 -0.3749  1.3554
 5951TIP3   OH217816   3.319   3.569   0.688  0.0609 -0.1679 -0.5463
 5951TIP3    H117817   3.382   3.583   0.759 -0.7833  0.0799  0.1621
 5951TIP3    H217818   3.334   3.643   0.629  0.6377 -0.2731 -0.5365
 5952TIP3   OH217819   5.883   3.680   4.101  0.0027  0.0202 -0.2690
 5952TIP3    H117820   5.958   3.729   4.135 -0.0346 -0.1744  0.0965
 5952TIP3    H217821   5.918   3.594   4.081  0.0773  0.2077 -0.9564
 5953TIP3   OH217822   3.017   5.946   4.473  0.6702  0.5385 -0.2127
 5953TIP3    H117823   3.003   5.984   4.560 -1.1978 -2.3542  0.9029
 5953TIP3    H217824   3.107   5.969   4.451  1.0458  1.7601  2.2711
 5954TIP3   OH217825   5.429   1.835   0.294 -0.5875  0.2343  0.0105
 5954TIP3    H117826   5.352   1.842   0.351 -0.7603  0.0454 -0.1946
 5954TIP3    H217827   5.484   1.909   0.318 -0.3441 -0.2085  0.8869
 5955TIP3   OH217828   4.254   3.825   1.649 -0.4499 -0.0020  0.4418
 5955TIP3    H117829   4.220   3.857   1.565 -2.7352 -2.3034  0.3899
 5955TIP3    H217830   4.345   3.803   1.630 -0.6280  0.4701 -1.1675
 5956TIP3   OH217831   2.544   5.590   1.167 -0.4571  0.2441 -1.0402
 5956TIP3    H117832   2.610   5.654   1.192 -0.5034 -0.6642  1.8368
 5956TIP3    H217833   2.590   5.506   1.166 -1.2138 -0.2017 -0.4823
 5957TIP3   OH217834   4.955   2.527   2.333 -0.2659 -0.2836 -0.0281
 5957TIP3    H117835   4.890   2.491   2.273 -1.0650 -0.9338  1.1995
 5957TIP3    H217836   4.908   2.539   2.415  0.7285  0.8733  0.4074
 5958TIP3   OH217837   5.539   5.061   5.515 -0.3531 -0.1265  0.3142
 5958TIP3    H117838   5.549   5.150   5.548 -1.8789 -0.1325  0.8857
 5958TIP3    H217839   5.513   5.072   5.424 -0.4978  0.0119  0.3726
 5959TIP3   OH217840   4.956   4.821   5.533 -0.3767 -0.1935  0.0111
 5959TIP3    H117841   4.870   4.841   5.568 -0.5441 -1.2224  0.2087
 5959TIP3    H217842   5.012   4.811   5.610 -0.1541  0.1199 -0.1059
 5960TIP3   OH217843   4.327   0.204   3.667  0.9190 -0.4854  0.5686
 5960TIP3    H117844   4.409   0.218   3.620 -0.1890  1.1230 -1.0306
 5960TIP3    H217845   4.280   0.139   3.615  1.3080 -1.7501  1.7262
 5961TIP3   OH217846   1.784   4.681   2.504 -0.7206  0.6444  0.6376
 5961TIP3    H117847   1.762   4.696   2.596  0.4382  1.4570  0.8042
 5961TIP3    H217848   1.867   4.635   2.507 -1.3090 -0.5086 -0.0060
 5962TIP3   OH217849   4.595   4.789  -0.005  0.1047  0.1387 -0.1507
 5962TIP3    H117850   4.670   4.733   0.016  0.6154 -0.6240 -3.4961
 5962TIP3    H217851   4.605   4.865   0.052  1.6667 -1.3152  1.6397
 5963TIP3   OH217852   6.086   2.117   4.929 -0.0754  0.0545 -0.4540
 5963TIP3    H117853   6.102   2.141   5.021 -0.7441  0.0178 -0.3270
 5963TIP3    H217854   6.158   2.057   4.908  1.1935  1.5647 -0.5525
 5964TIP3   OH217855   4.261   1.952   0.168  0.5396  0.0884 -0.3833
 5964TIP3    H117856   4.242   2.039   0.133 -1.1811 -0.0955 -0.0232
 5964TIP3    H217857   4.208   1.947   0.248 -0.6101 -1.8215 -1.2034
 5965TIP3   OH217858   4.841   1.879   1.995 -0.0834 -0.1531 -0.3682
 5965TIP3    H117859   4.820   1.973   2.001 -1.1207 -0.3784 -0.1396
 5965TIP3    H217860   4.827   1.857   1.903 -1.2726 -0.3771 -0.1516
 5966TIP3   OH217861   3.477   5.992   0.067 -0.0514 -0.0147 -0.3454
 5966TIP3    H117862   3.525   5.915   0.099 -2.7064 -0.6765  2.6400
 5966TIP3    H217863   3.483   6.054   0.140  0.2218  1.8063 -1.8595
 5967TIP3   OH217864   5.053   5.331   4.219  0.2699  0.3183  0.4236
 5967TIP3    H117865   5.088   5.331   4.130  2.3290 -0.5759  1.1850
 5967TIP3    H217866   4.971   5.381   4.212  1.3612  1.9892 -1.5740
 5968TIP3   OH217867   6.415   4.956   4.244  0.4187  0.1419  0.0101
 5968TIP3    H117868   6.404   5.048   4.220  1.0956  0.0582 -0.6601
 5968TIP3    H217869   6.371   4.908   4.173  0.8766 -0.0724 -0.1280
 5969TIP3   OH217870   1.597   6.447   3.270  0.0321  0.1621  0.3140
 5969TIP3    H117871   1.562   6.372   3.319 -1.1727  0.8073  0.4875
 5969TIP3    H217872   1.519   6.494   3.240  0.7202  2.0824  1.3547
 5970TIP3   OH217873   6.587   6.683   0.739  0.4745  0.5663  0.2700
 5970TIP3    H117874   6.623   6.745   0.676  0.1753  0.1667 -0.3071
 5970TIP3    H217875   6.631   6.704   0.821  1.4347  0.6061 -0.2395
 5971TIP3   OH217876   1.230   5.215   1.850 -0.0163  0.4096  0.1242
 5971TIP3    H117877   1.216   5.240   1.759 -1.6049  3.4841  1.0443
 5971TIP3    H217878   1.141   5.204   1.886  0.5885 -2.1836  1.0183
 5972TIP3   OH217879   2.470   1.441   4.951 -0.1253  0.7472 -0.1465
 5972TIP3    H117880   2.411   1.485   5.013  0.9645  0.7604  0.9222
 5972TIP3    H217881   2.533   1.508   4.925  0.3033  0.3636 -0.1160
 5973TIP3   OH217882   0.269   1.066   0.611 -0.1099 -0.4178  0.0529
 5973TIP3    H117883   0.324   1.027   0.679  0.8052  0.1200 -0.3688
 5973TIP3    H217884   0.249   1.154   0.643 -0.4066 -0.4730  0.0233
 5974TIP3   OH217885   2.955   6.229   5.182 -0.2721  0.0465  0.3473
 5974TIP3    H117886   3.042   6.188   5.184  0.3044  0.9603 -2.1755
 5974TIP3    H217887   2.973   6.323   5.184 -1.4280  0.2909  2.9028
 5975TIP3   OH217888   0.064   5.312   5.423 -0.6561  0.2333  0.4251
 5975TIP3    H117889   0.125   5.246   5.391  2.7729  2.6365  1.3703
 5975TIP3    H217890   0.076   5.311   5.518 -4.5623 -1.2772  1.0552
 5976TIP3   OH217891   2.939   0.403   3.275  0.2351 -0.3141 -0.4031
 5976TIP3    H117892   2.951   0.443   3.189 -0.3095 -0.0629 -0.3709
 5976TIP3    H217893   3.028   0.387   3.307  0.5282  1.6057 -0.0898
 5977TIP3   OH217894   1.029   1.162   4.096 -0.7057  0.2447 -0.2322
 5977TIP3    H117895   0.998   1.246   4.062  0.2750 -0.2012 -2.4501
 5977TIP3    H217896   0.950   1.108   4.102 -1.3675  1.3260  1.3684
 5978TIP3   OH217897   1.538   5.526   5.550  0.1490 -0.1199 -0.2259
 5978TIP3    H117898   1.514   5.575   5.472  0.0553  0.2326  0.0233
 5978TIP3    H217899   1.560   5.439   5.518  2.1273  0.5884 -0.9139
 5979TIP3   OH217900   6.072   2.834   1.025 -0.1762 -0.5207 -0.1780
 5979TIP3    H117901   5.996   2.889   1.042  1.1382  1.4959 -0.5941
 5979TIP3    H217902   6.054   2.795   0.939 -0.2461  0.8168 -0.7831
 5980TIP3   OH217903   6.529   0.740   3.698  0.0279 -0.0566  0.4313
 5980TIP3    H117904   6.455   0.695   3.657 -0.6331  2.3933 -1.3134
 5980TIP3    H217905   6.606   0.694   3.665 -0.6247 -0.2756 -0.8581
 5981TIP3   OH217906   0.190   1.980   3.282 -0.3283  0.7727 -0.4462
 5981TIP3    H117907   0.188   1.917   3.210  1.9542  1.4060 -1.1437
 5981TIP3    H217908   0.228   2.059   3.244 -3.1007  2.6673  0.3989
 5982TIP3   OH217909   2.064   5.528   2.529  0.4510 -0.0933  0.0560
 5982TIP3    H117910   2.061   5.586   2.605 -0.1860 -1.6429  1.2659
 5982TIP3    H217911   2.012   5.573   2.462 -0.5557  0.4437  1.1710
 5983TIP3   OH217912   2.572   3.380   2.678  0.0215  0.2238 -0.2656
 5983TIP3    H117913   2.565   3.441   2.751  1.0109  2.0859 -1.6220
 5983TIP3    H217914   2.550   3.433   2.601 -1.4025 -1.7532 -1.3239
 5984TIP3   OH217915   1.312   6.592   4.336 -0.5738  0.0332 -0.2269
 5984TIP3    H117916   1.237   6.544   4.372 -1.2272  0.1510 -1.3729
 5984TIP3    H217917   1.384   6.573   4.396 -1.3205 -0.7438  0.4522
 5985TIP3   OH217918   5.116   1.431   4.882 -0.4022 -0.5757 -0.5389
 5985TIP3    H117919   5.052   1.498   4.859  0.7837  2.0583  2.9517
 5985TIP3    H217920   5.195   1.456   4.835 -0.2567 -0.0960 -0.0521
 5986TIP3   OH217921   4.519   5.899   3.757  0.0982 -0.1179 -0.1777
 5986TIP3    H117922   4.471   5.840   3.699 -1.4725  1.6823 -0.8005
 5986TIP3    H217923   4.482   5.986   3.740  2.8086  1.2072  0.1823
 5987TIP3   OH217924   6.282   4.713   3.349 -0.1409  0.0845 -0.1883
 5987TIP3    H117925   6.259   4.708   3.442 -2.7300 -0.9560 -0.8132
 5987TIP3    H217926   6.318   4.627   3.329  0.7907  0.4405 -0.0842
 5988TIP3   OH217927   0.737   0.522   2.266  0.0800 -0.0170 -0.4506
 5988TIP3    H117928   0.800   0.582   2.306  0.1270 -0.3951  0.0402
 5988TIP3    H217929   0.788   0.443   2.247 -0.6760 -1.1368  1.8664
 5989TIP3   OH217930   5.611   2.168   3.489  0.1281 -0.8493  0.1373
 5989TIP3    H117931   5.540   2.210   3.440 -0.0934 -1.6767 -0.2664
 5989TIP3    H217932   5.612   2.213   3.573  0.0185  0.0828 -0.3416
 5990TIP3   OH217933   0.188   4.255   0.795  0.0890  0.0660 -0.1453
 5990TIP3    H117934   0.130   4.214   0.730  0.4380  0.7194 -0.8983
 5990TIP3    H217935   0.222   4.332   0.750 -1.7635  2.1203  1.7365
 5991TIP3   OH217936   7.124   0.828   3.899 -0.4105 -0.0766 -0.6109
 5991TIP3    H117937   7.150   0.877   3.820  1.7773  1.4386  0.9084
 5991TIP3    H217938   7.052   0.879   3.936 -0.0384  0.4176 -0.5523
 5992TIP3   OH217939   6.848   6.674   2.691  0.0058  0.3722  0.1922
 5992TIP3    H117940   6.875   6.678   2.600 -0.2009  1.3081  0.1633
 5992TIP3    H217941   6.904   6.606   2.729  1.9598  1.7563 -0.0336
 5993TIP3   OH217942   1.171   4.921   2.566  0.4909 -0.8140  0.2164
 5993TIP3    H117943   1.096   4.940   2.622  0.1301 -1.3597 -0.0767
 5993TIP3    H217944   1.183   4.826   2.573  0.6215 -0.8484 -0.4065
 5994TIP3   OH217945   6.976   6.779   2.158 -0.0240 -0.5336  0.2179
 5994TIP3    H117946   6.942   6.702   2.113  1.2271 -1.4860  0.8253
 5994TIP3    H217947   6.968   6.757   2.251 -1.0112  0.6959  0.4505
 5995TIP3   OH217948   2.085   5.065   4.317  0.2087  0.0589 -0.2320
 5995TIP3    H117949   2.115   5.156   4.316 -0.7798  0.4060  0.2854
 5995TIP3    H217950   2.007   5.066   4.262  1.3150 -0.9099 -1.9024
 5996TIP3   OH217951   6.789   0.113   0.506  0.0712  0.0392  0.0376
 5996TIP3    H117952   6.757   0.097   0.595  0.3636  0.4610  0.2223
 5996TIP3    H217953   6.884   0.122   0.516  0.1344 -0.1513 -0.3557
 5997TIP3   OH217954   1.860   4.949   3.488  0.6462 -0.2730  0.2594
 5997TIP3    H117955   1.941   4.942   3.539  2.5922 -2.4873 -2.8119
 5997TIP3    H217956   1.813   4.868   3.507  1.8831 -1.6296 -2.0061
 5998TIP3   OH217957   4.355   0.052   3.249 -0.0385  0.3004 -0.6284
 5998TIP3    H117958   4.297   0.128   3.252 -0.3894  0.0040  0.4051
 5998TIP3    H217959   4.297  -0.024   3.250  0.3344  0.0018 -0.8573
 5999TIP3   OH217960   0.244   1.701   5.760 -0.0412 -0.3169  0.0825
 5999TIP3    H117961   0.298   1.637   5.806  2.2202  2.5532  1.8105
 5999TIP3    H217962   0.162   1.703   5.808  1.0452  0.2403  2.0151
 6000TIP3   OH217963   3.976   1.152   4.343  0.4003  0.2952  0.2958
 6000TIP3    H117964   3.938   1.239   4.359 -1.9020 -0.3840 -0.9907
 6000TIP3    H217965   4.052   1.169   4.288  1.1457  1.6136  1.6612
 6001TIP3   OH217966   5.536   2.667   3.134  0.1164  0.7989  0.2448
 6001TIP3    H117967   5.529   2.653   3.229 -1.4331  1.7522  0.3168
 6001TIP3    H217968   5.491   2.750   3.119 -0.7103  0.0891 -1.4815
 6002TIP3   OH217969   2.998   3.739   0.131  0.2240 -0.1230 -0.1237
 6002TIP3    H117970   2.971   3.720   0.221  0.5720 -1.0324 -0.1957
 6002TIP3    H217971   3.005   3.653   0.089  1.9332  0.1348 -0.4680
 6003TIP3   OH217972   4.562   3.011   4.398 -0.2525 -0.0251 -0.2212
 6003TIP3    H117973   4.511   3.088   4.426  0.7658  0.8901 -0.8031
 6003TIP3    H217974   4.607   3.040   4.319 -1.6062 -1.9674 -1.8048
 6004TIP3   OH217975   5.416   2.929   1.489 -0.1057 -0.3038  0.1249
 6004TIP3    H117976   5.342   2.933   1.428 -0.3518 -1.2164  0.3539
 6004TIP3    H217977   5.384   2.972   1.568  0.1747  0.7776 -0.3265
 6005TIP3   OH217978   4.548   0.972   0.720 -0.5346 -0.0404  0.1986
 6005TIP3    H117979   4.487   1.027   0.670  1.1871  0.2602 -1.6852
 6005TIP3    H217980   4.607   1.034   0.763  0.7648 -0.3393 -1.0871
 6006TIP3   OH217981   3.877   0.049   0.295  0.3359 -0.1305  0.4429
 6006TIP3    H117982   3.839  -0.029   0.335 -1.4761  1.0413  1.1568
 6006TIP3    H217983   3.835   0.054   0.208  1.1786 -0.4555  0.0080
 6007TIP3   OH217984   3.764   3.586   1.645  0.2913  0.6119 -0.0984
 6007TIP3    H117985   3.737   3.678   1.641  2.5226  1.3111 -0.5912
 6007TIP3    H217986   3.849   3.584   1.601 -0.1332 -1.8914 -0.9536
 6008TIP3   OH217987   3.477   3.773   0.171 -0.4285  0.6321  0.1333
 6008TIP3    H117988   3.492   3.685   0.205 -0.6343 -0.1324 -1.6003
 6008TIP3    H217989   3.470   3.828   0.248 -2.6031 -1.2441  1.4067
 6009TIP3   OH217990   1.044   3.575   1.515 -0.1644  0.1810 -0.3766
 6009TIP3    H117991   0.988   3.503   1.544  3.6565 -1.8179  3.2126
 6009TIP3    H217992   1.071   3.550   1.426 -0.3636 -1.9799  0.1112
 6010TIP3   OH217993   1.584   0.609   0.185 -0.3648  0.2075 -0.2915
 6010TIP3    H117994   1.494   0.623   0.215 -0.6925 -0.4101 -0.9834
 6010TIP3    H217995   1.622   0.697   0.185 -0.2418  0.2511  2.1803
 6011TIP3   OH217996   0.393   4.126   0.589  0.7087 -0.0110  0.0261
 6011TIP3    H117997   0.328   4.056   0.596  0.0546  0.6987  1.2644
 6011TIP3    H217998   0.357   4.187   0.525 -0.4172  0.9375  1.5049
 6012TIP3   OH217999   3.697   1.822   1.898  0.0568  0.2136  0.0620
 6012TIP3    H118000   3.706   1.835   1.803  0.0328 -0.0241  0.0252
 6012TIP3    H218001   3.631   1.753   1.906  0.9903 -0.6973  0.2026
 6013TIP3   OH218002   2.939   4.099   3.836  0.5564 -0.0588 -0.3852
 6013TIP3    H118003   3.033   4.103   3.818  0.7432 -0.6346  0.4188
 6013TIP3    H218004   2.929   4.147   3.918  0.4301 -1.5451  0.5063
 6014TIP3   OH218005   0.391   2.406   2.849 -0.3946 -0.1411  0.0207
 6014TIP3    H118006   0.483   2.404   2.822 -0.9838 -0.0519 -2.1558
 6014TIP3    H218007   0.381   2.491   2.892  0.3010  0.2939 -0.6599
 6015TIP3   OH218008   2.841   4.767   4.722 -1.1746  0.4042 -0.2340
 6015TIP3    H118009   2.858   4.673   4.709 -0.4165  0.5522 -0.3809
 6015TIP3    H218010   2.881   4.809   4.646  1.7402  1.1395  1.5416
 6016TIP3   OH218011   5.088   2.259   3.157 -0.6800  0.0473  0.0735
 6016TIP3    H118012   4.995   2.240   3.167 -0.3766 -0.5799  2.2260
 6016TIP3    H218013   5.106   2.325   3.224  0.4392  0.1180 -0.2808
 6017TIP3   OH218014   6.328   2.405   3.226  0.4999  0.5126  0.4599
 6017TIP3    H118015   6.417   2.418   3.256  0.8605  1.7624 -1.0047
 6017TIP3    H218016   6.327   2.316   3.191  1.1489  0.4511  0.5976
 6018TIP3   OH218017   4.171   4.685   1.319  0.3232 -0.1544  0.7878
 6018TIP3    H118018   4.255   4.706   1.279 -0.3204  0.8052 -0.0883
 6018TIP3    H218019   4.179   4.716   1.409 -0.0254  2.5511 -0.0246
 6019TIP3   OH218020   6.148   3.393   4.700 -0.0971  0.1145 -0.2774
 6019TIP3    H118021   6.195   3.476   4.708 -0.7324  0.3327  1.8216
 6019TIP3    H218022   6.216   3.326   4.705  0.1776  0.4658  1.2542
 6020TIP3   OH218023   6.818   1.620   4.385 -0.5969  0.3113 -1.0045
 6020TIP3    H118024   6.850   1.552   4.444  0.9715  0.9351 -1.0883
 6020TIP3    H218025   6.773   1.682   4.442  2.0610  1.6070 -0.1913
 6021TIP3   OH218026   1.354   0.832   5.628  0.7228 -0.3537  0.3436
 6021TIP3    H118027   1.333   0.808   5.537 -0.3523  2.5506 -0.2771
 6021TIP3    H218028   1.276   0.806   5.678  1.5697 -2.5418  0.6153
 6022TIP3   OH218029   4.031   1.758   0.889  0.0395  0.1078 -0.1303
 6022TIP3    H118030   3.984   1.759   0.805  1.6706  0.4690 -1.0949
 6022TIP3    H218031   4.120   1.732   0.865  0.6298  0.5946  1.4522
 6023TIP3   OH218032   6.523   2.245   0.081 -0.4141 -0.4927 -0.0275
 6023TIP3    H118033   6.473   2.180   0.031  2.1744 -0.6196 -2.7220
 6023TIP3    H218034   6.458   2.311   0.107 -2.6253 -2.6697  0.3544
 6024TIP3   OH218035   2.388   4.761   3.180  0.6250  0.4231  0.2459
 6024TIP3    H118036   2.341   4.841   3.205 -0.3349 -0.0964  0.1333
 6024TIP3    H218037   2.329   4.716   3.120  1.7849  0.3449 -0.8922
 6025TIP3   OH218038   5.720   4.482   0.126  0.3651  0.3166 -0.3573
 6025TIP3    H118039   5.795   4.436   0.163  0.3909 -0.0825 -0.9077
 6025TIP3    H218040   5.696   4.432   0.048  0.2839  1.1290 -0.8655
 6026TIP3   OH218041   6.027   5.369   0.080 -0.0161  0.1024 -0.1458
 6026TIP3    H118042   5.948   5.406   0.042 -1.7115 -1.8504  1.2433
 6026TIP3    H218043   6.076   5.335   0.005 -0.3220  1.5665 -1.0533
 6027TIP3   OH218044   3.362   6.258   1.368  0.2787  0.1950 -0.0840
 6027TIP3    H118045   3.444   6.301   1.391  0.5189  0.4457 -1.3582
 6027TIP3    H218046   3.379   6.165   1.379  0.4991  0.2888  0.3795
 6028TIP3   OH218047   3.435   4.228   3.560 -0.0593  0.4112  0.3293
 6028TIP3    H118048   3.512   4.285   3.553 -0.4569  0.8842 -0.3292
 6028TIP3    H218049   3.411   4.210   3.469  0.1491 -0.9433  0.5322
 6029TIP3   OH218050   5.967   2.992   2.992 -0.4362  0.2962 -0.2895
 6029TIP3    H118051   6.039   2.997   3.055 -0.8289  2.1428  0.0618
 6029TIP3    H218052   5.939   2.900   2.995  0.8054 -0.0831  0.7811
 6030TIP3   OH218053   3.435   6.504   0.761 -0.0310 -0.3999  0.1249
 6030TIP3    H118054   3.414   6.442   0.831 -0.7662  0.0072  0.2808
 6030TIP3    H218055   3.373   6.576   0.775 -0.6565 -0.6254 -1.3674
 6031TIP3   OH218056   1.398   4.812   3.903  0.0170  0.2263 -0.5552
 6031TIP3    H118057   1.371   4.737   3.850  1.1261 -0.1801 -0.5817
 6031TIP3    H218058   1.482   4.786   3.941 -0.0266  1.0998  0.1895
 6032TIP3   OH218059   0.956   1.570   0.064 -0.1353 -0.4406  0.4928
 6032TIP3    H118060   1.029   1.599   0.117 -0.2043 -1.4050  1.1334
 6032TIP3    H218061   0.940   1.643   0.003 -0.6980  1.1552  2.4118
 6033TIP3   OH218062   5.649   4.277   2.720  0.2094 -0.8425 -0.6347
 6033TIP3    H118063   5.606   4.196   2.746  0.6142 -0.5377  1.1674
 6033TIP3    H218064   5.724   4.249   2.668  1.4255 -1.7970  1.5176
 6034TIP3   OH218065   1.684   1.247   3.629  0.5838  0.3890  0.3240
 6034TIP3    H118066   1.670   1.166   3.678  0.4890  0.7770  0.9552
 6034TIP3    H218067   1.597   1.286   3.621  0.5368  0.1249 -0.5307
 6035TIP3   OH218068   0.630   6.021   5.752  0.0420  0.3072  0.3294
 6035TIP3    H118069   0.656   6.034   5.843  0.2891 -0.0591  0.3138
 6035TIP3    H218070   0.641   6.107   5.711 -1.1867  0.7683  0.9089
 6036TIP3   OH218071   3.604   3.619   3.723 -0.1405 -0.8772  0.0656
 6036TIP3    H118072   3.627   3.710   3.742 -1.2334 -0.6711  0.4782
 6036TIP3    H218073   3.615   3.574   3.807 -2.8003 -0.4207  0.7573
 6037TIP3   OH218074   4.301   2.944   1.668  0.0293  0.2939  0.0657
 6037TIP3    H118075   4.314   2.909   1.580 -0.9404  0.6545 -0.2363
 6037TIP3    H218076   4.379   2.918   1.716 -0.2596 -1.5357 -0.3775
 6038TIP3   OH218077   4.884   5.429   1.480 -0.0314  0.3741 -0.0359
 6038TIP3    H118078   4.940   5.353   1.463  1.1614  1.6842 -2.3755
 6038TIP3    H218079   4.797   5.401   1.449 -0.3344 -0.9887  1.8386
 6039TIP3   OH218080   1.417   4.381   0.473 -0.1899 -0.0106  0.0266
 6039TIP3    H118081   1.488   4.407   0.533  1.3655  0.2298 -1.7915
 6039TIP3    H218082   1.364   4.460   0.464 -1.1449 -0.3822  1.9244
 6040TIP3   OH218083   3.677   1.454   1.570 -0.0471  0.1249 -0.0534
 6040TIP3    H118084   3.666   1.548   1.556 -0.8567  0.0608  0.0779
 6040TIP3    H218085   3.733   1.426   1.498 -0.8154  0.5029 -0.8266
 6041TIP3   OH218086   3.225   3.571   3.498  0.1670 -0.5215 -0.2016
 6041TIP3    H118087   3.154   3.527   3.545  0.7878 -1.7667 -0.3878
 6041TIP3    H218088   3.264   3.630   3.563  0.7930 -1.9614  0.7825
 6042TIP3   OH218089   3.220   2.669   5.297 -0.0490 -0.0231 -0.0676
 6042TIP3    H118090   3.299   2.630   5.333  0.4811  1.2714  0.2577
 6042TIP3    H218091   3.250   2.751   5.257 -0.7928 -0.9044 -2.5789
 6043TIP3   OH218092   3.764   6.658   0.336  0.0905 -0.0820 -0.0002
 6043TIP3    H118093   3.685   6.692   0.293  1.0728 -1.0745 -2.8116
 6043TIP3    H218094   3.739   6.570   0.364 -0.4187  0.4044  1.1344
 6044TIP3   OH218095   1.959   5.687   2.338  0.3172 -0.0770  0.1761
 6044TIP3    H118096   1.878   5.717   2.298  0.1031  0.9922  1.3417
 6044TIP3    H218097   2.028   5.738   2.295  0.3533 -0.7344 -0.5669
 6045TIP3   OH218098   2.444   1.828   1.195  0.5679  0.2817  0.0063
 6045TIP3    H118099   2.384   1.883   1.144  1.9039  0.9560 -0.9015
 6045TIP3    H218100   2.515   1.887   1.220  0.7470 -0.4365  1.2911
 6046TIP3   OH218101   0.230   6.402   0.188  0.4926 -0.6716 -0.0463
 6046TIP3    H118102   0.176   6.334   0.148 -0.2852 -0.7536  1.0885
 6046TIP3    H218103   0.269   6.360   0.265 -0.4075  0.2706  0.9632
 6047TIP3   OH218104   0.943   4.566   2.528  0.4806  0.0120  0.6597
 6047TIP3    H118105   0.876   4.503   2.501  0.8327 -0.8842  1.7632
 6047TIP3    H218106   0.895   4.646   2.548 -0.1894 -0.4308  0.8490
 6048TIP3   OH218107   4.352   5.219   3.759 -0.0195 -0.0680  0.1043
 6048TIP3    H118108   4.325   5.306   3.730  1.5556  1.1255  2.0026
 6048TIP3    H218109   4.270   5.170   3.766 -1.0681  1.5774  0.0095
 6049TIP3   OH218110   2.357   0.346   5.206  0.5444 -0.7749  0.2695
 6049TIP3    H118111   2.397   0.259   5.201  0.0561 -0.9425 -1.1950
 6049TIP3    H218112   2.365   0.382   5.118 -3.7925 -1.4522 -0.6337
 6050TIP3   OH218113   5.980   0.268   1.670 -0.1135 -0.1201 -0.2380
 6050TIP3    H118114   6.017   0.182   1.692 -3.1048 -1.0236  1.8332
 6050TIP3    H218115   5.892   0.249   1.640 -1.0863  2.2210  0.8811
 6051TIP3   OH218116   5.414   2.306   0.334  0.5108  0.3764 -0.6035
 6051TIP3    H118117   5.376   2.326   0.249 -0.4741  0.9972 -0.0489
 6051TIP3    H218118   5.420   2.211   0.336  1.0237  0.3862 -1.5600
 6052TIP3   OH218119   2.273   3.905   2.356  0.4519  0.0493  0.6385
 6052TIP3    H118120   2.279   3.868   2.444 -2.6165 -0.9091  0.5563
 6052TIP3    H218121   2.314   3.840   2.300 -0.1089 -0.7007  1.0820
 6053TIP3   OH218122   4.013   3.660   4.666 -0.5160  0.0624  0.6253
 6053TIP3    H118123   3.953   3.624   4.731 -0.0771  1.3778  1.7913
 6053TIP3    H218124   3.964   3.730   4.623 -0.1965  0.3880  0.7877
 6054TIP3   OH218125   4.513   6.194   2.643  0.2266  0.0203 -0.2175
 6054TIP3    H118126   4.431   6.148   2.625  0.6162 -0.6952 -0.1953
 6054TIP3    H218127   4.564   6.185   2.563 -0.2543  1.6977 -0.7657
 6055TIP3   OH218128   4.146   4.149   1.145 -0.1666  0.3142  0.1607
 6055TIP3    H118129   4.055   4.173   1.123 -0.5254 -1.2784 -0.2785
 6055TIP3    H218130   4.190   4.144   1.060 -0.3291 -1.2808  0.1354
 6056TIP3   OH218131   5.211   2.446   0.146 -0.0490  0.3017 -0.5304
 6056TIP3    H118132   5.168   2.498   0.079 -2.0850 -1.7688 -0.9460
 6056TIP3    H218133   5.141   2.415   0.203  1.1645 -1.0928  0.3111
 6057TIP3   OH218134   6.572   6.238   5.357 -0.3500 -0.2811  0.3354
 6057TIP3    H118135   6.640   6.280   5.304 -0.2730 -0.9890 -0.1385
 6057TIP3    H218136   6.495   6.293   5.345 -0.3340 -0.4384 -0.5158
 6058TIP3   OH218137   3.647   2.030   4.112  1.0077 -0.3409  0.0350
 6058TIP3    H118138   3.710   1.959   4.127  0.1227 -1.0869  0.2730
 6058TIP3    H218139   3.594   2.000   4.038 -0.1174 -0.4544  0.8663
 6059TIP3   OH218140   4.148   5.587   5.387 -0.5587  0.5208  0.1171
 6059TIP3    H118141   4.230   5.618   5.425 -0.9554  0.9289  0.6506
 6059TIP3    H218142   4.086   5.586   5.460 -0.7381 -0.8817 -0.0406
 6060TIP3   OH218143   0.942   3.792   5.332 -0.1905  0.3595  0.2035
 6060TIP3    H118144   0.940   3.856   5.262  0.6251  0.2744  0.0830
 6060TIP3    H218145   0.989   3.717   5.295  0.3268  0.3453  0.8504
 6061TIP3   OH218146   1.013   1.562   3.904  0.6661  0.3132  0.1498
 6061TIP3    H118147   0.975   1.476   3.921  4.4508 -1.3620  1.0785
 6061TIP3    H218148   0.937   1.618   3.886 -2.0160 -3.0220  0.0182
 6062TIP3   OH218149   1.909   3.092   5.806 -0.1856 -0.0693 -0.2436
 6062TIP3    H118150   1.932   3.092   5.899  1.4927  3.0309 -0.5392
 6062TIP3    H218151   1.833   3.149   5.799  0.8812  1.3315 -0.9369
 6063TIP3   OH218152   0.821   6.492   4.213 -0.0346 -0.0095 -0.4100
 6063TIP3    H118153   0.778   6.547   4.279  0.0605 -0.3304 -0.0768
 6063TIP3    H218154   0.899   6.542   4.189  0.1857 -0.1061  0.0781
 6064TIP3   OH218155   5.926   2.378   1.708 -0.1876 -0.6137  0.0170
 6064TIP3    H118156   5.890   2.289   1.698  3.0309 -2.1157  0.4595
 6064TIP3    H218157   5.955   2.402   1.620  0.6374 -0.8471  0.2133
 6065TIP3   OH218158   7.005   6.217   5.195 -0.0382  0.2693  0.2377
 6065TIP3    H118159   7.040   6.215   5.285 -0.6389  0.5418  0.4790
 6065TIP3    H218160   7.048   6.292   5.154  0.3431  0.0625  0.2481
 6066TIP3   OH218161   1.586   3.847   3.948  0.3148 -0.2995 -0.3181
 6066TIP3    H118162   1.675   3.813   3.958  0.6330  0.7714  0.7491
 6066TIP3    H218163   1.588   3.931   3.994 -0.4792  1.1000 -2.6962
 6067TIP3   OH218164   6.797   0.780   4.339 -0.1323  0.1353 -0.2944
 6067TIP3    H118165   6.864   0.717   4.313 -0.1372 -0.0069  0.0237
 6067TIP3    H218166   6.837   0.866   4.324  0.4144  0.0595  0.5916
 6068TIP3   OH218167   5.695   0.364   5.142 -0.1374 -0.2447 -0.1925
 6068TIP3    H118168   5.765   0.424   5.117 -0.8272  0.5811 -0.1923
 6068TIP3    H218169   5.621   0.422   5.165 -1.0567 -1.1063 -0.9130
 6069TIP3   OH218170   2.125   1.341   3.314  0.5479  0.5247  0.0023
 6069TIP3    H118171   2.191   1.399   3.276  1.3077 -0.4813 -0.2444
 6069TIP3    H218172   2.061   1.401   3.354  0.8569  1.5466 -0.9784
 6070TIP3   OH218173   3.289   3.734   2.405 -0.2163 -0.5203  0.3341
 6070TIP3    H118174   3.203   3.766   2.431 -0.0929  0.4242 -0.3657
 6070TIP3    H218175   3.286   3.732   2.310  1.7614  3.2488  0.0305
 6071TIP3   OH218176   3.049   5.827   5.175 -0.0493  0.2084  0.4473
 6071TIP3    H118177   3.004   5.907   5.146 -0.0838  0.4748  1.2175
 6071TIP3    H218178   2.993   5.756   5.143 -0.7925  0.5305  1.0107
 6072TIP3   OH218179   5.524   0.185   0.780 -0.0240  0.2353 -0.4595
 6072TIP3    H118180   5.540   0.116   0.844  1.2450  0.4354 -0.5333
 6072TIP3    H218181   5.588   0.253   0.801 -0.7778  1.0867 -0.8378
 6073TIP3   OH218182   4.182   3.724   4.114 -0.2247 -0.2855 -0.1154
 6073TIP3    H118183   4.228   3.745   4.196 -0.3477 -0.3937 -0.0208
 6073TIP3    H218184   4.212   3.792   4.053  0.4697 -0.6579 -0.2023
 6074TIP3   OH218185   0.092   4.026   4.412 -0.2034 -0.7413  0.4847
 6074TIP3    H118186   0.098   3.960   4.481  2.4586 -0.1397  0.9368
 6074TIP3    H218187   0.163   4.087   4.431 -2.4315  2.2538  0.0027
 6075TIP3   OH218188   3.741   5.406   4.820  0.2147 -0.0560 -0.2807
 6075TIP3    H118189   3.822   5.452   4.797 -0.9277  2.7513  0.8988
 6075TIP3    H218190   3.745   5.396   4.915 -0.0925 -1.4910 -0.3906
 6076TIP3   OH218191   3.827   0.302   0.342 -0.3478  0.0108  0.6083
 6076TIP3    H118192   3.827   0.208   0.326  0.9307  0.2950 -1.4740
 6076TIP3    H218193   3.895   0.315   0.408  0.8966 -0.3750 -0.5502
 6077TIP3   OH218194   4.259   6.246   0.748  0.1218  0.2195 -0.5453
 6077TIP3    H118195   4.241   6.236   0.842 -1.7050  0.4071 -0.8354
 6077TIP3    H218196   4.181   6.211   0.705  0.5726  0.9116 -1.9788
 6078TIP3   OH218197   4.199   0.495   5.060 -0.4618  0.3063 -0.1492
 6078TIP3    H118198   4.263   0.526   4.996 -0.4123 -0.1296 -0.3157
 6078TIP3    H218199   4.119   0.543   5.040 -0.0168  1.3590  0.4900
 6079TIP3   OH218200   2.353   5.620   2.348 -0.1492  0.3703  0.0143
 6079TIP3    H118201   2.447   5.638   2.342  0.1666 -0.7911  1.0467
 6079TIP3    H218202   2.338   5.609   2.442 -0.9846 -1.1258 -0.2781
 6080TIP3   OH218203   3.170   0.427   1.038 -0.5253 -0.1930 -0.1877
 6080TIP3    H118204   3.112   0.468   1.102 -1.4428 -1.0242 -0.4806
 6080TIP3    H218205   3.210   0.501   0.992 -0.3556  0.4035  0.8723
 6081TIP3   OH218206   0.938   4.511   3.250 -0.0556 -0.5917 -0.4951
 6081TIP3    H118207   0.884   4.532   3.174  1.6059 -0.6815 -1.7629
 6081TIP3    H218208   1.019   4.476   3.213  1.3566  0.6363  1.2581
 6082TIP3   OH218209   2.093   3.022   3.986 -0.2191  0.7760 -0.4517
 6082TIP3    H118210   2.056   2.986   3.905 -0.8017  1.0328 -0.3078
 6082TIP3    H218211   2.066   3.114   3.986  3.5797  2.0917 -2.2163
 6083TIP3   OH218212   4.806   6.289   4.163  0.1006 -0.2574  0.0499
 6083TIP3    H118213   4.882   6.334   4.126 -0.4402  0.8220  0.1943
 6083TIP3    H218214   4.817   6.298   4.258  0.1351 -0.6880  0.0880
 6084TIP3   OH218215   1.807   2.015   4.691  0.2469 -0.5413  0.2247
 6084TIP3    H118216   1.868   2.066   4.744 -0.2339  1.3438 -0.9512
 6084TIP3    H218217   1.734   1.995   4.749  0.7606 -0.4987  0.8938
 6085TIP3   OH218218   4.276   3.735   5.356 -0.1973  0.7129 -0.1080
 6085TIP3    H118219   4.352   3.679   5.369 -0.4058  0.5775  0.5576
 6085TIP3    H218220   4.217   3.713   5.428 -1.6525 -0.4616 -1.5984
 6086TIP3   OH218221   1.768   0.320   1.287  0.2660  0.0192  0.4935
 6086TIP3    H118222   1.816   0.345   1.208  1.8471 -1.3633  0.9671
 6086TIP3    H218223   1.814   0.364   1.359 -0.3802  0.2527  0.7733
 6087TIP3   OH218224   4.718   0.524   4.755  0.6921  0.0701 -0.3447
 6087TIP3    H118225   4.649   0.586   4.729  0.4569 -0.6505 -1.5197
 6087TIP3    H218226   4.670   0.448   4.787  0.9338 -0.2627 -0.7564
 6088TIP3   OH218227   5.408   1.190   5.558  0.1405 -0.2781  0.3868
 6088TIP3    H118228   5.370   1.276   5.577 -0.8274 -0.3977 -0.8891
 6088TIP3    H218229   5.344   1.148   5.500  1.8793 -0.7636 -1.2830
 6089TIP3   OH218230   6.384   1.010   4.392  0.0232  0.1658 -0.1671
 6089TIP3    H118231   6.467   1.019   4.439  0.3309  0.6075 -0.7842
 6089TIP3    H218232   6.326   0.967   4.455  0.0106  1.9314  1.1008
 6090TIP3   OH218233   7.097   5.793   0.500  0.3435  0.2614 -0.0933
 6090TIP3    H118234   7.019   5.752   0.461 -2.7653  3.1664  2.5138
 6090TIP3    H218235   7.121   5.862   0.438 -0.0139  0.2117 -0.2915
 6091TIP3   OH218236   0.181   5.257   5.680  0.1425 -0.3417 -0.1096
 6091TIP3    H118237   0.141   5.198   5.743 -0.2115  1.6825  1.6722
 6091TIP3    H218238   0.259   5.290   5.723 -0.0695  1.0490 -0.7058
 6092TIP3   OH218239   2.240   6.657   2.857 -0.5682 -0.3208  0.3889
 6092TIP3    H118240   2.167   6.595   2.855 -0.1354 -0.8079 -0.7011
 6092TIP3    H218241   2.273   6.659   2.768  1.1643 -0.6001  0.9777
 6093TIP3   OH218242   4.025   6.473   1.572  0.4203  0.1640 -0.5434
 6093TIP3    H118243   4.088   6.403   1.552 -0.7837 -1.2377  0.3971
 6093TIP3    H218244   3.942   6.428   1.583 -0.6046  1.8863 -0.9012
 6094TIP3   OH218245   3.903   3.637   4.983 -0.3444  0.3132  0.4585
 6094TIP3    H118246   3.833   3.690   4.945  0.8222  1.4385 -0.2458
 6094TIP3    H218247   3.941   3.693   5.050  0.3042  0.0041  0.3586
 6095TIP3   OH218248   3.541   3.662   4.460 -0.3329 -0.7605 -0.4171
 6095TIP3    H118249   3.463   3.647   4.407 -1.5403  1.1573  0.7128
 6095TIP3    H218250   3.524   3.615   4.542 -0.8021  0.4776  0.2224
 6096TIP3   OH218251   0.832   5.571   0.734 -0.2174 -0.2749 -0.1334
 6096TIP3    H118252   0.776   5.531   0.800  1.3489  0.5399  1.7959
 6096TIP3    H218253   0.809   5.664   0.737  1.8792  0.2937  1.5438
 6097TIP3   OH218254   3.506   2.332   1.635 -0.3533  0.0456 -0.5027
 6097TIP3    H118255   3.576   2.271   1.614  0.8773  1.5178 -0.8542
 6097TIP3    H218256   3.515   2.349   1.728  0.5002  1.0813 -0.7545
 6098TIP3   OH218257   0.264   1.129   5.813 -0.1520  0.0840 -0.2328
 6098TIP3    H118258   0.264   1.058   5.748  0.9221  1.0579 -1.3581
 6098TIP3    H218259   0.335   1.187   5.785  0.2879  0.5861  1.8085
 6099TIP3   OH218260   5.646   4.158   0.335 -0.1283  0.2294 -0.3803
 6099TIP3    H118261   5.722   4.163   0.277  1.0189  1.7777  1.1755
 6099TIP3    H218262   5.592   4.088   0.297  1.9696 -0.8266 -1.6091
 6100TIP3   OH218263   4.820   5.625   5.038  0.4122 -0.4541  0.1999
 6100TIP3    H118264   4.799   5.675   4.959 -0.8890 -0.2261  0.6567
 6100TIP3    H218265   4.744   5.567   5.051  1.0916 -1.2695  0.6806
 6101TIP3   OH218266   0.873   4.692   1.837 -0.7962  0.0540 -0.7752
 6101TIP3    H118267   0.858   4.630   1.765 -1.7783 -0.6511  0.0057
 6101TIP3    H218268   0.800   4.676   1.897  1.0474 -0.7641  1.3640
 6102TIP3   OH218269   4.913   5.830   1.409  0.1926  0.2402  0.4192
 6102TIP3    H118270   4.944   5.791   1.490 -1.4389 -0.1293  0.9094
 6102TIP3    H218271   4.931   5.764   1.342 -1.2242 -0.8112  1.0098
 6103TIP3   OH218272   2.825   5.409   3.741  0.1496  0.5016 -0.2580
 6103TIP3    H118273   2.902   5.382   3.791 -1.0831  0.2772  1.5938
 6103TIP3    H218274   2.784   5.477   3.794 -2.3640 -1.2123  0.1391
 6104TIP3   OH218275   6.197   1.732   4.630 -0.0553 -0.3228  0.2376
 6104TIP3    H118276   6.174   1.701   4.718  0.3656  0.8088  0.7783
 6104TIP3    H218277   6.263   1.800   4.646  0.9074 -0.9277 -1.0371
 6105TIP3   OH218278   7.131   2.292   0.385 -0.6725  0.6159  0.1848
 6105TIP3    H118279   7.037   2.311   0.387 -0.4819  1.5562  0.9147
 6105TIP3    H218280   7.168   2.346   0.455  0.4026  0.1949 -0.0420
 6106TIP3   OH218281   5.914   1.669   4.139 -0.1633  0.3392 -0.6471
 6106TIP3    H118282   5.960   1.736   4.090  0.9267  0.4417  0.4712
 6106TIP3    H218283   5.894   1.601   4.074  1.8496  0.1466 -1.1081
 6107TIP3   OH218284   5.830   1.064   1.124 -0.1230  0.1317 -0.4487
 6107TIP3    H118285   5.857   1.152   1.099  0.6171  0.5944  1.7248
 6107TIP3    H218286   5.741   1.074   1.156  0.3009  0.3132  0.7243
 6108TIP3   OH218287   6.281   5.343   1.468 -0.3689  0.2636  0.1754
 6108TIP3    H118288   6.232   5.404   1.413 -2.4280 -1.3828  0.0897
 6108TIP3    H218289   6.359   5.322   1.416  0.7380  3.1510  0.4473
 6109TIP3   OH218290   2.976   4.960   1.570  0.4018 -0.4150 -0.1747
 6109TIP3    H118291   2.898   4.935   1.619 -0.4153 -2.4070 -2.2900
 6109TIP3    H218292   3.049   4.949   1.631 -0.8982  1.2162  1.7620
 6110TIP3   OH218293   1.613   6.212   4.911  0.2849 -0.4326  0.4301
 6110TIP3    H118294   1.651   6.294   4.880  1.1064  0.0496  2.5671
 6110TIP3    H218295   1.602   6.160   4.831  0.1517  1.5490 -0.9334
 6111TIP3   OH218296   0.608   4.168   0.187 -0.3118  0.8668  0.5505
 6111TIP3    H118297   0.581   4.260   0.197  0.7579  1.1499  0.9259
 6111TIP3    H218298   0.542   4.131   0.128 -0.7965  1.8610  0.4323
 6112TIP3   OH218299   7.070   0.058   1.436 -0.2043  0.7088 -0.2633
 6112TIP3    H118300   6.991   0.041   1.487 -0.8549  1.0715 -1.1172
 6112TIP3    H218301   7.140   0.060   1.501 -0.8124 -0.1323  0.4518
 6113TIP3   OH218302   2.525   0.485   5.000  0.0668 -0.3788  0.1605
 6113TIP3    H118303   2.536   0.395   4.970 -0.0214 -0.3564  0.0602
 6113TIP3    H218304   2.611   0.525   4.987  0.1129 -0.4560  0.2295
 6114TIP3   OH218305   3.955   1.408   4.549 -0.1180  0.8843  0.0501
 6114TIP3    H118306   3.875   1.449   4.583 -0.0159  0.8402  0.3528
 6114TIP3    H218307   4.014   1.406   4.625 -0.0775  0.2896  0.0056
 6115TIP3   OH218308   6.797   0.041   1.514  0.0076 -0.7402 -0.4295
 6115TIP3    H118309   6.711   0.082   1.507  0.5231  0.3653 -0.4806
 6115TIP3    H218310   6.780  -0.052   1.499 -1.2139 -0.5860 -0.1365
 6116TIP3   OH218311   2.677   4.000   0.832 -0.0973  0.1427  0.1137
 6116TIP3    H118312   2.689   3.953   0.749  1.6603  0.8343 -0.0596
 6116TIP3    H218313   2.606   4.062   0.815 -0.9941 -0.9659 -0.2970
 6117TIP3   OH218314   1.887   4.190   0.649  0.0303 -0.0712 -0.2447
 6117TIP3    H118315   1.929   4.159   0.569  0.2548  0.7224 -0.4366
 6117TIP3    H218316   1.957   4.190   0.714 -0.0945 -0.4755 -0.1069
 6118TIP3   OH218317   6.467   3.956   4.875  0.1831 -0.0355 -0.5291
 6118TIP3    H118318   6.382   3.966   4.832 -0.2952 -2.2428 -0.2265
 6118TIP3    H218319   6.485   3.862   4.871  0.8084 -0.1738  2.7523
 6119TIP3   OH218320   0.327   5.555   1.811 -0.0256  0.7300  0.2664
 6119TIP3    H118321   0.283   5.634   1.782  1.2017  1.7042  0.9659
 6119TIP3    H218322   0.379   5.527   1.736 -1.5776 -0.2867 -0.4789
 6120TIP3   OH218323   1.077   3.586   3.874 -0.2641  0.4630 -0.4650
 6120TIP3    H118324   1.045   3.499   3.853 -0.1155  0.2114  0.3319
 6120TIP3    H218325   1.103   3.623   3.790  3.0354 -1.5716 -0.4908
 6121TIP3   OH218326   5.062   5.151   4.430  0.4143 -0.4585 -0.3221
 6121TIP3    H118327   5.044   5.185   4.343  0.2480 -0.9916 -0.5004
 6121TIP3    H218328   5.141   5.098   4.420 -0.0604 -1.1793 -0.3234
 6122TIP3   OH218329   3.438   5.990   2.454  0.1264  0.0431 -0.1250
 6122TIP3    H118330   3.411   6.082   2.453  1.5571  0.5247  0.6234
 6122TIP3    H218331   3.376   5.948   2.513 -0.8558  0.4070 -0.8712
 6123TIP3   OH218332   4.252   3.492   2.148 -1.1707 -0.8068 -0.2809
 6123TIP3    H118333   4.343   3.508   2.175 -1.0815 -3.8728  1.6903
 6123TIP3    H218334   4.225   3.574   2.107  2.8356 -0.1450 -2.0797
 6124TIP3   OH218335   0.762   5.200   4.980 -0.5249 -0.1517  0.3434
 6124TIP3    H118336   0.707   5.141   4.929 -2.1605  1.7376 -0.2175
 6124TIP3    H218337   0.706   5.231   5.050  0.5246  0.1795  1.0651
 6125TIP3   OH218338   5.579   0.883   3.331  0.3491  0.1422 -0.3904
 6125TIP3    H118339   5.571   0.939   3.254 -0.3530  2.3780  1.2204
 6125TIP3    H218340   5.632   0.933   3.393  0.1418 -1.1923  0.9353
 6126TIP3   OH218341   4.885   6.371   4.417  0.6832  0.0830 -0.0949
 6126TIP3    H118342   4.964   6.344   4.465  1.1019  1.3473 -0.0334
 6126TIP3    H218343   4.896   6.466   4.405  0.0417 -0.0332 -1.7164
 6127TIP3   OH218344   6.258   3.008   3.064 -0.4726  0.1441 -0.5353
 6127TIP3    H118345   6.263   3.048   3.151  1.2909  0.4602 -0.7451
 6127TIP3    H218346   6.348   3.008   3.032 -0.9342 -0.9246 -1.9493
 6128TIP3   OH218347   3.417   1.659   3.238 -0.2720  0.5040 -0.0167
 6128TIP3    H118348   3.492   1.717   3.251 -0.1300  0.4330 -0.5055
 6128TIP3    H218349   3.454   1.571   3.236 -0.4511  0.4167  0.4157
 6129TIP3   OH218350   1.970   0.738   2.482 -0.7298  0.2752 -0.2340
 6129TIP3    H118351   1.943   0.830   2.477 -0.2239  0.4064 -0.5208
 6129TIP3    H218352   2.001   0.716   2.394 -2.4079 -0.6603 -0.6382
 6130TIP3   OH218353   0.569   6.532   2.977  0.6079 -0.1496  0.4908
 6130TIP3    H118354   0.595   6.485   2.898 -1.4285 -0.2558 -0.1734
 6130TIP3    H218355   0.648   6.576   3.007  1.7292 -1.2022 -0.8441
 6131TIP3   OH218356   3.157   0.749   3.369  0.2570  0.3149 -0.2024
 6131TIP3    H118357   3.068   0.779   3.349  0.6234  2.0530  0.5841
 6131TIP3    H218358   3.213   0.804   3.315  0.8990 -0.4116 -0.2929
 6132TIP3   OH218359   6.611   4.855   4.400  0.0981  0.2577  0.3327
 6132TIP3    H118360   6.541   4.887   4.343 -0.3950  0.0413  0.8006
 6132TIP3    H218361   6.686   4.844   4.343 -1.4537 -4.0169 -1.2564
 6133TIP3   OH218362   6.909   2.410   2.166  0.0547 -0.0094 -0.2890
 6133TIP3    H118363   6.882   2.492   2.208 -2.2849 -0.5589 -0.5966
 6133TIP3    H218364   6.957   2.363   2.234  0.1486  0.9804  0.3544
 6134TIP3   OH218365   7.223   2.231   3.984  0.0357  0.1417 -0.0511
 6134TIP3    H118366   7.235   2.233   4.079  1.4185 -1.2562 -0.1738
 6134TIP3    H218367   7.128   2.221   3.972 -0.0915 -0.2646  1.1930
 6135TIP3   OH218368   7.043   6.811   4.876 -0.1367 -0.1498  0.3957
 6135TIP3    H118369   7.038   6.827   4.970  1.0936 -1.8787  0.8127
 6135TIP3    H218370   7.045   6.715   4.868  0.5545 -0.0319 -1.3174
 6136TIP3   OH218371   1.402   2.854   3.697  0.4029  0.2465  0.3340
 6136TIP3    H118372   1.330   2.814   3.745 -0.6577  0.3516 -1.1145
 6136TIP3    H218373   1.360   2.910   3.632  1.6253 -1.6652 -2.2942
 6137TIP3   OH218374   2.310   4.095   4.070 -0.3961  0.4103  0.4393
 6137TIP3    H118375   2.332   4.185   4.093  0.9458  0.7702 -1.9602
 6137TIP3    H218376   2.222   4.099   4.034 -0.0920  0.8911 -0.2617
 6138TIP3   OH218377   0.290   2.496   1.126  0.0754  0.1954  0.1935
 6138TIP3    H118378   0.279   2.540   1.210  2.2454  1.9389 -0.3571
 6138TIP3    H218379   0.353   2.426   1.144 -0.9880 -0.7377  0.3995
 6139TIP3   OH218380   1.484   1.458   2.690  0.7324  0.6635  0.0134
 6139TIP3    H118381   1.496   1.363   2.693  0.6380  0.6734  1.6965
 6139TIP3    H218382   1.442   1.474   2.606 -0.2946 -0.9297  0.1807
 6140TIP3   OH218383   1.561   2.356   5.293 -0.6270  0.0864 -0.3010
 6140TIP3    H118384   1.613   2.314   5.225 -0.1181  0.5938 -0.2327
 6140TIP3    H218385   1.521   2.431   5.249  2.0344  2.1910  0.5808
 6141TIP3   OH218386   4.840   4.272   4.767  0.2330  0.0798 -0.5002
 6141TIP3    H118387   4.822   4.366   4.756  0.5352  0.2630  0.4670
 6141TIP3    H218388   4.924   4.259   4.725 -0.6407 -0.1493 -2.2717
 6142TIP3   OH218389   6.787   2.524   4.087  0.3510 -0.1846 -0.0901
 6142TIP3    H118390   6.703   2.491   4.053  0.6207 -1.3899  0.3852
 6142TIP3    H218391   6.841   2.535   4.009  0.2578 -0.8997 -0.2639
 6143TIP3   OH218392   3.401   2.407   0.364  0.1569  1.1872  0.6197
 6143TIP3    H118393   3.396   2.346   0.438 -0.4867 -1.2533 -1.3090
 6143TIP3    H218394   3.310   2.435   0.350 -0.2779 -0.8426 -1.0996
 6144TIP3   OH218395   0.617   6.220   1.604 -0.4121 -0.5966 -0.1641
 6144TIP3    H118396   0.555   6.181   1.543  0.6501 -1.6235 -0.6261
 6144TIP3    H218397   0.694   6.241   1.551 -0.8245  1.9856  0.0962
 6145TIP3   OH218398   3.737   4.452   1.195  0.7440 -0.3266 -0.4037
 6145TIP3    H118399   3.762   4.380   1.253  0.5693 -0.4519 -0.4828
 6145TIP3    H218400   3.818   4.475   1.149  0.8759 -0.2499 -0.1359
 6146TIP3   OH218401   6.115   3.586   2.271 -0.1167  0.4317  0.4171
 6146TIP3    H118402   6.160   3.502   2.280  0.1516  0.4941 -0.2250
 6146TIP3    H218403   6.053   3.589   2.343  0.6006  0.1432  1.0590
 6147TIP3   OH218404   7.098   1.832   2.735 -0.1843  0.5208 -0.4588
 6147TIP3    H118405   7.142   1.750   2.759 -0.2814  0.5139 -0.3033
 6147TIP3    H218406   7.007   1.819   2.761  0.0410  1.1338  0.7132
 6148TIP3   OH218407   6.487   1.595   3.406  0.5105  0.3732  0.2373
 6148TIP3    H118408   6.508   1.679   3.448  1.5805  0.3502 -0.2042
 6148TIP3    H218409   6.471   1.535   3.478 -1.9052  1.3171  0.5638
 6149TIP3   OH218410   2.265   3.606   1.970 -0.4241 -0.3798  0.0895
 6149TIP3    H118411   2.272   3.641   2.058  0.3587  0.3033 -0.2298
 6149TIP3    H218412   2.244   3.513   1.982 -4.5118  0.4620  0.9833
 6150TIP3   OH218413   2.755   4.569   2.083  0.3661  0.1546 -0.0488
 6150TIP3    H118414   2.825   4.528   2.031 -0.4095 -0.4609 -0.6416
 6150TIP3    H218415   2.708   4.624   2.021  0.0393  0.1960  0.2292
 6151TIP3   OH218416   1.660   1.941   3.486  0.4223  0.0149  0.3890
 6151TIP3    H118417   1.605   2.001   3.537  0.9367 -0.7755  1.9567
 6151TIP3    H218418   1.598   1.876   3.451 -0.1663  1.5060 -1.4978
 6152TIP3   OH218419   4.225   3.641   5.823 -0.0330 -0.5569 -0.1550
 6152TIP3    H118420   4.179   3.681   5.897 -0.0403  2.3070 -1.5985
 6152TIP3    H218421   4.303   3.602   5.863 -0.6908 -0.2629  1.5337
 6153TIP3   OH218422   5.866   4.099   4.290  0.3267 -0.1010 -0.1836
 6153TIP3    H118423   5.958   4.091   4.266  0.9263  1.6936  1.2575
 6153TIP3    H218424   5.868   4.110   4.385 -1.2679  1.1500 -0.2593
 6154TIP3   OH218425   0.084   4.582   4.654 -0.3657 -0.1769 -0.4384
 6154TIP3    H118426   0.066   4.613   4.743 -1.6423  0.3488 -0.8552
 6154TIP3    H218427   0.125   4.657   4.611  0.7263 -0.6024 -0.1571
 6155TIP3   OH218428   1.630   6.199   1.956 -0.9877  0.5305  0.3561
 6155TIP3    H118429   1.643   6.169   1.866 -0.5254  0.9571  0.2722
 6155TIP3    H218430   1.700   6.156   2.006  0.5962  2.5172 -0.0215
 6156TIP3   OH218431   2.306   3.481   5.692  0.4016  0.0543 -0.3360
 6156TIP3    H118432   2.395   3.447   5.703  0.5774  0.5329 -0.2780
 6156TIP3    H218433   2.250   3.404   5.700  0.6074  0.0904  2.2591
 6157TIP3   OH218434   4.887   6.611   3.321 -0.0014 -0.3988 -0.3051
 6157TIP3    H118435   4.887   6.537   3.382 -3.4275  0.5910  1.1354
 6157TIP3    H218436   4.893   6.571   3.234  0.9436 -2.1423  0.5261
 6158TIP3   OH218437   4.805   1.751   5.324  0.2766 -0.3470 -0.2335
 6158TIP3    H118438   4.729   1.693   5.331 -0.0159 -0.0549 -0.8914
 6158TIP3    H218439   4.787   1.822   5.386 -1.0431  0.8662 -1.9084
 6159TIP3   OH218440   6.602   3.502   5.506 -0.0428  0.0716  0.0626
 6159TIP3    H118441   6.565   3.433   5.561 -0.3916  0.1709 -0.0453
 6159TIP3    H218442   6.692   3.510   5.536 -0.3543  0.4403  0.9434
 6160TIP3   OH218443   2.880   0.183   4.307  0.2332 -0.2713  0.0713
 6160TIP3    H118444   2.946   0.238   4.349 -0.4850  1.4405 -0.9460
 6160TIP3    H218445   2.913   0.169   4.218 -1.3757  1.8530 -0.9503
 6161TIP3   OH218446   0.331   1.050   2.026  0.1904 -0.5698  0.5698
 6161TIP3    H118447   0.386   1.114   1.981 -1.7189 -0.0078 -1.1722
 6161TIP3    H218448   0.372   0.966   2.008  1.5533 -0.0261  1.0398
 6162TIP3   OH218449   4.680   1.365   1.067 -0.6004  0.1310 -0.1141
 6162TIP3    H118450   4.718   1.436   1.118 -0.9743 -0.6187  1.2696
 6162TIP3    H218451   4.684   1.289   1.125  1.3197 -1.4232 -2.0923
 6163TIP3   OH218452   4.924   6.296   1.450  0.2749  0.4755 -0.4253
 6163TIP3    H118453   4.992   6.321   1.388 -0.8181  2.0465 -1.0498
 6163TIP3    H218454   4.876   6.225   1.406 -0.3195  1.3895 -1.2962
 6164TIP3   OH218455   6.982   4.823   4.470  0.1193  0.0742 -0.3447
 6164TIP3    H118456   6.982   4.865   4.384  0.6323  0.4871 -0.1515
 6164TIP3    H218457   7.042   4.749   4.460  1.0371  0.7547 -0.0585
 6165TIP3   OH218458   3.026   6.600   3.530  0.2237  0.0485 -0.3324
 6165TIP3    H118459   2.947   6.616   3.582  0.0145  0.2127 -0.7031
 6165TIP3    H218460   3.045   6.684   3.489  2.3195  0.8987  2.1243
 6166TIP3   OH218461   2.762   1.662   3.288  0.0723 -0.1060  0.0313
 6166TIP3    H118462   2.705   1.710   3.348  0.9138  0.5505  0.3129
 6166TIP3    H218463   2.844   1.650   3.337  0.3698 -0.5747 -0.5694
 6167TIP3   OH218464   5.473   6.455   1.898  0.3474 -0.1288  0.2200
 6167TIP3    H118465   5.437   6.543   1.898 -0.7373 -0.5464 -0.3593
 6167TIP3    H218466   5.506   6.442   1.809 -1.1575 -0.9183 -0.2628
 6168TIP3   OH218467   6.243   4.052   3.571  0.5499  0.5865 -0.0745
 6168TIP3    H118468   6.229   3.988   3.641 -0.9619  1.0355  0.0756
 6168TIP3    H218469   6.326   4.095   3.594  1.9308 -1.6725 -0.5172
 6169TIP3   OH218470   0.338   1.600   0.349  0.7757 -0.3109 -0.0251
 6169TIP3    H118471   0.306   1.668   0.289 -0.2136 -1.3665 -0.7431
 6169TIP3    H218472   0.284   1.523   0.329  0.1492 -0.6158  2.4707
 6170TIP3   OH218473   3.778   3.789   2.051 -0.1626  0.2689  0.4897
 6170TIP3    H118474   3.804   3.803   2.142 -1.6627  1.6260  0.7528
 6170TIP3    H218475   3.756   3.695   2.047 -0.9537  0.3711  1.7932
 6171TIP3   OH218476   3.303   5.056   0.667 -0.0195  0.4068 -0.4185
 6171TIP3    H118477   3.214   5.061   0.703 -0.1428 -0.7264 -0.5226
 6171TIP3    H218478   3.300   4.982   0.606  0.6918  1.1113 -1.3343
 6172TIP3   OH218479   3.388   4.107   2.102  0.1111 -0.0704  0.1218
 6172TIP3    H118480   3.435   4.029   2.074  0.5091  0.6697 -1.3500
 6172TIP3    H218481   3.332   4.129   2.028 -0.4703  0.6859  0.7697
 6173TIP3   OH218482   2.712   0.410   0.393  0.2693  0.5371 -0.4420
 6173TIP3    H118483   2.659   0.469   0.446  0.4900 -0.2670  0.7231
 6173TIP3    H218484   2.774   0.372   0.455  2.0182  1.2095 -1.6904
 6174TIP3   OH218485   5.390   6.065   4.446  0.3027  0.3865 -0.0630
 6174TIP3    H118486   5.325   6.038   4.381  1.1480 -1.4671 -0.2047
 6174TIP3    H218487   5.433   6.142   4.408 -1.0983  1.0306 -0.3980
 6175TIP3   OH218488   2.986   6.078   4.107  0.2089  0.2798 -0.1740
 6175TIP3    H118489   2.930   6.124   4.045 -1.4232 -1.7011 -0.2766
 6175TIP3    H218490   3.052   6.035   4.053 -0.5367 -0.5280 -0.4635
 6176TIP3   OH218491   3.063   3.744   4.431 -0.3158  0.6983 -0.2785
 6176TIP3    H118492   3.067   3.839   4.447 -1.9984  1.6512 -4.1479
 6176TIP3    H218493   3.146   3.724   4.388  0.6621  0.0062  1.8253
 6177TIP3   OH218494   7.147   6.097   4.585 -0.5775 -0.2582  0.1906
 6177TIP3    H118495   7.086   6.154   4.539 -0.1878  0.2941  0.3530
 6177TIP3    H218496   7.222   6.088   4.526 -1.1111 -1.5238 -0.3245
 6178TIP3   OH218497   3.658   3.907   4.109 -0.2170 -0.4013 -0.1317
 6178TIP3    H118498   3.737   3.927   4.059  0.1860 -0.8861  0.2881
 6178TIP3    H218499   3.616   3.836   4.060  0.0717 -0.7386  0.1034
 6179TIP3   OH218500   1.271   6.391   0.025 -0.4703  0.5066  0.1073
 6179TIP3    H118501   1.262   6.486   0.014 -1.1186  0.6745  1.6884
 6179TIP3    H218502   1.270   6.379   0.120  0.6860 -1.0031 -0.0362
 6180TIP3   OH218503   6.032   1.612   1.589 -0.0893 -0.5440 -0.1572
 6180TIP3    H118504   6.037   1.588   1.681  1.1068 -0.9818 -0.3173
 6180TIP3    H218505   5.948   1.657   1.580 -0.0903 -0.2455  1.1936
 6181TIP3   OH218506   6.081   0.298   0.647  0.4767 -0.0515  0.0703
 6181TIP3    H118507   6.056   0.387   0.671 -0.1312 -0.4470  0.9302
 6181TIP3    H218508   6.102   0.255   0.730 -0.9623 -1.2365 -0.1247
 6182TIP3   OH218509   7.124   5.351   3.497 -0.2044  0.5800  0.1451
 6182TIP3    H118510   7.097   5.435   3.461  0.9271  1.2780  0.8501
 6182TIP3    H218511   7.057   5.330   3.561 -2.0844 -0.5354 -2.0475
 6183TIP3   OH218512   3.538   4.287   0.426 -0.2254  0.8247 -0.1529
 6183TIP3    H118513   3.569   4.364   0.475 -0.5033 -0.1701  1.6729
 6183TIP3    H218514   3.593   4.285   0.348  0.3776  2.3703  0.1886
 6184TIP3   OH218515   2.095   5.731   2.713 -0.5420 -0.1364 -0.0643
 6184TIP3    H118516   2.142   5.796   2.660  0.1760 -1.1243 -0.6763
 6184TIP3    H218517   2.121   5.751   2.803  1.0049 -0.5885 -0.3807
 6185TIP3   OH218518   0.444   1.206   1.606 -0.0100  0.7335  0.2945
 6185TIP3    H118519   0.354   1.178   1.589  1.7338 -4.8741 -2.0103
 6185TIP3    H218520   0.480   1.137   1.662  3.2294  1.9979 -0.0342
 6186TIP3   OH218521   6.540   5.358   2.326 -0.1764 -0.0547 -0.3677
 6186TIP3    H118522   6.562   5.430   2.385 -3.6499 -1.2892  2.7835
 6186TIP3    H218523   6.536   5.399   2.239  0.6250  2.9276  0.8953
 6187TIP3   OH218524   2.396   0.803   5.840 -0.0499 -0.2738 -0.0483
 6187TIP3    H118525   2.318   0.817   5.787 -0.6724  0.0753  0.9182
 6187TIP3    H218526   2.379   0.852   5.921  1.2329 -0.0758  0.1307
 6188TIP3   OH218527   4.117   1.671   4.116 -0.5232 -0.1658 -0.0715
 6188TIP3    H118528   4.173   1.612   4.065 -1.6088 -1.6197  0.3660
 6188TIP3    H218529   4.146   1.658   4.207 -0.1492  0.7024 -0.0505
 6189TIP3   OH218530   1.032   5.747   4.649  0.1215 -0.1741  0.2691
 6189TIP3    H118531   1.065   5.689   4.717  0.9092  0.8810  0.8117
 6189TIP3    H218532   1.008   5.688   4.577 -0.3449 -1.2730  1.2843
 6190TIP3   OH218533   2.984   2.843   1.362 -0.1477  0.2551  0.1115
 6190TIP3    H118534   3.067   2.797   1.375  0.1434  0.5087 -0.7464
 6190TIP3    H218535   2.931   2.819   1.437  1.2936  1.4399  1.5771
 6191TIP3   OH218536   4.310   1.203   1.416  0.3607 -0.5090  0.2086
 6191TIP3    H118537   4.316   1.286   1.463 -0.3477 -0.1300 -0.3469
 6191TIP3    H218538   4.301   1.229   1.324  1.5931 -1.2304 -0.1265
 6192TIP3   OH218539   5.196   1.935   0.032  0.6856 -0.4174  0.4461
 6192TIP3    H118540   5.195   2.014  -0.022 -3.0784 -0.5418  0.0464
 6192TIP3    H218541   5.239   1.962   0.113  1.0838  1.5286 -0.3614
 6193TIP3   OH218542   1.481   3.641   4.276 -0.3467 -0.1983 -0.2182
 6193TIP3    H118543   1.409   3.678   4.326  0.2445 -0.3202  0.7442
 6193TIP3    H218544   1.551   3.705   4.283 -0.2681 -0.1972 -0.9332
 6194TIP3   OH218545   1.723   2.236   4.301  0.2786  0.2327 -0.5023
 6194TIP3    H118546   1.773   2.197   4.373  2.3054  1.4746 -1.1531
 6194TIP3    H218547   1.701   2.324   4.333  0.7315  0.5981 -1.1700
 6195TIP3   OH218548   4.812   5.113   5.682  0.0447 -0.1513 -0.7109
 6195TIP3    H118549   4.833   5.058   5.606  0.2928  0.4364 -1.0736
 6195TIP3    H218550   4.879   5.090   5.746  0.2525 -0.1503 -0.9245
 6196TIP3   OH218551   4.085   3.723   1.154  0.0646 -0.1910  0.5062
 6196TIP3    H118552   4.016   3.667   1.117 -1.7702  1.8732  0.5823
 6196TIP3    H218553   4.144   3.740   1.081 -1.5068  0.8609 -0.5924
 6197TIP3   OH218554   5.331   5.233   0.150 -0.1502  0.8376 -0.0471
 6197TIP3    H118555   5.411   5.193   0.184  0.7019  1.2211 -1.4983
 6197TIP3    H218556   5.309   5.301   0.214 -2.0309 -2.2115  2.8366
 6198TIP3   OH218557   4.977   2.082   2.782  0.4058  0.1870 -0.0651
 6198TIP3    H118558   4.985   1.990   2.807 -1.5892  0.1770  0.6974
 6198TIP3    H218559   5.037   2.128   2.841 -0.3006 -0.4106  1.1691
 6199TIP3   OH218560   1.038   5.949   4.283 -0.4994 -0.0959 -0.1818
 6199TIP3    H118561   1.060   5.978   4.371  0.1967 -0.1364 -0.3388
 6199TIP3    H218562   0.980   6.016   4.249  0.5569  0.7822 -0.2990
 6200TIP3   OH218563   5.385   0.675   2.385 -0.0635 -0.1924  0.2350
 6200TIP3    H118564   5.471   0.648   2.352  0.4000  1.2785  0.1699
 6200TIP3    H218565   5.354   0.599   2.434 -0.2799 -2.0466 -2.5651
 6201TIP3   OH218566   3.351   5.706   2.328  0.4668  0.3091 -0.2976
 6201TIP3    H118567   3.334   5.633   2.268  0.2842 -0.0359  0.1691
 6201TIP3    H218568   3.413   5.761   2.281  1.0896 -0.4672 -0.4014
 6202TIP3   OH218569   5.317   0.991   5.294  0.1917 -0.4127 -0.6319
 6202TIP3    H118570   5.345   0.999   5.202  0.0273 -0.9080 -0.7234
 6202TIP3    H218571   5.281   1.077   5.314 -0.9738 -0.6927 -1.4352
 6203TIP3   OH218572   5.558   4.910   3.418 -0.7576  0.0108 -0.4841
 6203TIP3    H118573   5.592   4.875   3.501 -2.4035 -0.5699 -0.0064
 6203TIP3    H218574   5.496   4.977   3.445  0.0337  1.1292 -1.3302
 6204TIP3   OH218575   5.972   1.141   3.497  0.0732  0.1076  0.1790
 6204TIP3    H118576   6.054   1.095   3.516 -0.6698 -1.5814 -0.5456
 6204TIP3    H218577   5.997   1.234   3.498  2.2683 -0.3861 -1.2509
 6205TIP3   OH218578   3.868   4.570   1.753 -1.3203 -0.4251  0.1619
 6205TIP3    H118579   3.829   4.518   1.823  2.1525 -0.0797  2.5786
 6205TIP3    H218580   3.872   4.659   1.787 -0.1759 -0.1106 -0.7226
 6206TIP3   OH218581   6.620   5.383   1.860  0.4382 -0.0569  1.2193
 6206TIP3    H118582   6.617   5.289   1.880 -0.8264 -0.8889 -2.2217
 6206TIP3    H218583   6.550   5.396   1.796  0.8658  3.1978  1.2643
 6207TIP3   OH218584   6.589   5.152   4.497  0.4326 -0.4005 -0.1131
 6207TIP3    H118585   6.619   5.061   4.491  0.2921 -0.4608  0.0774
 6207TIP3    H218586   6.544   5.157   4.582  1.2355  0.0783  0.2935
 6208TIP3   OH218587   0.629   0.364   0.060  0.3718 -0.3448 -0.6982
 6208TIP3    H118588   0.640   0.301   0.131 -0.1178 -3.1305 -2.9242
 6208TIP3    H218589   0.546   0.407   0.079 -0.3758 -1.9357 -0.1791
 6209TIP3   OH218590   4.473   4.170   3.884  0.1074 -0.5247  0.5529
 6209TIP3    H118591   4.508   4.214   3.806  0.0531 -3.1400 -1.0681
 6209TIP3    H218592   4.434   4.241   3.936  0.3445  1.3650 -1.6610
 6210TIP3   OH218593   2.470   4.726   2.295  0.3585  0.6574 -0.2543
 6210TIP3    H118594   2.442   4.817   2.297 -1.6475  0.1172  2.5850
 6210TIP3    H218595   2.394   4.678   2.262 -0.1210 -0.2958  2.0516
 6211TIP3   OH218596   6.257   3.347   5.453 -0.3795  0.0633 -0.0316
 6211TIP3    H118597   6.186   3.322   5.394 -1.6566  1.0759  1.0205
 6211TIP3    H218598   6.330   3.290   5.429 -0.3798  1.2879 -3.4695
 6212TIP3   OH218599   3.624   5.933   1.821 -0.1151 -0.3898 -0.1908
 6212TIP3    H118600   3.708   5.913   1.779  1.0983 -1.7034  2.6002
 6212TIP3    H218601   3.641   6.011   1.873 -0.6719 -0.5501  0.2406
 6213TIP3   OH218602   4.285   5.477   3.717 -0.0754  0.4864  0.1003
 6213TIP3    H118603   4.222   5.537   3.679  1.7142  1.4880 -1.4382
 6213TIP3    H218604   4.294   5.506   3.808 -0.8017  1.1932 -0.0481
 6214TIP3   OH218605   3.679   4.748   3.414 -0.1922 -0.0053  0.5547
 6214TIP3    H118606   3.630   4.830   3.418 -0.6260 -0.2313  0.0395
 6214TIP3    H218607   3.729   4.754   3.333 -0.7864 -0.5461  0.1340
 6215TIP3   OH218608   4.570   6.375   4.513 -1.0702  0.3568  0.7081
 6215TIP3    H118609   4.557   6.461   4.473  1.1751 -0.4443 -2.1429
 6215TIP3    H218610   4.665   6.361   4.508 -1.5002 -3.0235 -0.7302
 6216TIP3   OH218611   2.851   1.743   4.848 -0.4238 -0.1815 -0.1097
 6216TIP3    H118612   2.760   1.712   4.848 -0.4666 -0.1571  1.5611
 6216TIP3    H218613   2.843   1.838   4.839 -0.4912 -0.2676 -1.0725
 6217TIP3   OH218614   3.187   3.262   1.541  0.3418 -0.1273  0.0043
 6217TIP3    H118615   3.103   3.247   1.583  1.3477 -2.2932  1.4228
 6217TIP3    H218616   3.169   3.256   1.447 -1.0575 -0.7410  0.2873
 6218TIP3   OH218617   3.294   2.174   4.803  0.4667 -0.5045 -0.4838
 6218TIP3    H118618   3.271   2.267   4.800  0.0250 -0.5743  0.4721
 6218TIP3    H218619   3.292   2.146   4.711  0.4406  0.3819 -0.7657
 6219TIP3   OH218620   3.903   6.556   2.552 -0.4194 -0.3108 -0.6644
 6219TIP3    H118621   3.827   6.551   2.494 -0.7187  0.0358 -0.3069
 6219TIP3    H218622   3.870   6.525   2.637  0.0284 -0.8730 -0.6900
 6220TIP3   OH218623   6.216   4.044   0.825  0.0855 -0.3462  0.3543
 6220TIP3    H118624   6.163   4.000   0.891 -1.3304 -0.8937 -1.0617
 6220TIP3    H218625   6.232   3.977   0.758 -2.4173  1.2078 -2.0326
 6221TIP3   OH218626   3.703   1.209   4.505  0.2504 -0.3012 -0.5254
 6221TIP3    H118627   3.638   1.257   4.556  1.1682 -0.0508  0.4540
 6221TIP3    H218628   3.652   1.152   4.448 -0.8522  1.3581 -1.2521
 6222TIP3   OH218629   4.308   4.615   4.893 -0.1730  0.4217 -0.4756
 6222TIP3    H118630   4.355   4.559   4.954 -0.7072  1.1213  0.6199
 6222TIP3    H218631   4.217   4.613   4.923 -0.8287 -0.6321 -2.3378
 6223TIP3   OH218632   5.003   3.531   5.254 -0.2061  0.4824 -0.2803
 6223TIP3    H118633   5.040   3.618   5.242  2.2603 -0.4566 -0.1916
 6223TIP3    H218634   4.963   3.534   5.341  0.7843  1.2479  0.1752
 6224TIP3   OH218635   6.495   1.326   5.534  0.2956 -0.3674  0.1972
 6224TIP3    H118636   6.527   1.239   5.557  0.8903 -1.4835 -4.0128
 6224TIP3    H218637   6.455   1.314   5.447  0.1993  3.4980 -0.4421
 6225TIP3   OH218638   1.087   2.673   2.535 -0.1858  0.3171  0.0509
 6225TIP3    H118639   1.148   2.688   2.463 -0.0184  1.2477  0.3819
 6225TIP3    H218640   1.099   2.747   2.593 -1.4752  0.4073  0.2362
 6226TIP3   OH218641   6.896   6.461   4.243  0.3552  0.1219  0.0287
 6226TIP3    H118642   6.973   6.472   4.298 -0.4309 -2.2088  1.7475
 6226TIP3    H218643   6.823   6.489   4.297 -0.1930  0.5551 -0.9087
 6227TIP3   OH218644   0.587   5.732   5.886 -0.1185  0.7466  0.4175
 6227TIP3    H118645   0.633   5.790   5.825 -1.8352  0.1092 -1.5825
 6227TIP3    H218646   0.527   5.790   5.933  0.6844  1.1183  1.0146
 6228TIP3   OH218647   1.756   3.538   3.097 -0.1554  0.3677 -0.8605
 6228TIP3    H118648   1.807   3.473   3.048  1.4297 -0.0840  1.2631
 6228TIP3    H218649   1.721   3.489   3.172 -1.6294  1.2691 -0.9318
 6229TIP3   OH218650   3.204   4.688   1.279  0.3429 -0.1574 -0.2698
 6229TIP3    H118651   3.193   4.655   1.368 -0.1666  0.1174 -0.2275
 6229TIP3    H218652   3.228   4.611   1.228  0.6886 -0.3080  0.1117
 6230TIP3   OH218653   3.506   1.658   2.737  0.3985 -0.2645 -0.4520
 6230TIP3    H118654   3.548   1.732   2.691  0.4089  0.8444  1.2420
 6230TIP3    H218655   3.534   1.669   2.828 -2.1797 -0.4944  0.4296
 6231TIP3   OH218656   2.049   1.414   4.671  0.2155 -0.1208 -0.2934
 6231TIP3    H118657   2.049   1.486   4.734 -1.9574  1.0465 -1.5077
 6231TIP3    H218658   2.140   1.407   4.642  1.1917 -0.3498  2.4895
 6232TIP3   OH218659   0.260   2.788   2.764 -0.3291 -0.7712 -0.1190
 6232TIP3    H118660   0.227   2.877   2.780  0.1799 -0.5777 -0.1035
 6232TIP3    H218661   0.182   2.733   2.764 -0.5644 -0.4719  0.9189
 6233TIP3   OH218662   4.006   1.502   1.630  0.2738 -0.2396 -0.3674
 6233TIP3    H118663   3.983   1.499   1.538 -0.1026 -0.5250 -0.2661
 6233TIP3    H218664   4.039   1.591   1.644 -2.5002  0.8488 -0.1370
 6234TIP3   OH218665   3.710   4.988   4.060  0.2419  0.0043 -0.2291
 6234TIP3    H118666   3.802   4.972   4.036  0.3633 -1.0838  0.8655
 6234TIP3    H218667   3.715   5.039   4.141 -0.1171 -0.1817 -0.0875
 6235TIP3   OH218668   0.069   1.747   1.720  0.4593 -0.5859  0.3707
 6235TIP3    H118669   0.085   1.754   1.814 -0.7563 -0.7218  0.5937
 6235TIP3    H218670  -0.022   1.719   1.712  0.0504  0.9171 -0.8724
 6236TIP3   OH218671   3.978   5.579   4.917  0.2677 -0.3536  0.8989
 6236TIP3    H118672   4.059   5.596   4.965  0.2832  0.7967  0.4867
 6236TIP3    H218673   3.911   5.626   4.967 -0.1974 -1.4712  1.3581
 6237TIP3   OH218674   0.788   3.825   2.390 -0.6326  0.1453 -0.0610
 6237TIP3    H118675   0.790   3.772   2.310  1.0107  1.2053 -0.7482
 6237TIP3    H218676   0.743   3.906   2.365 -0.2680  0.4121  0.1372
 6238TIP3   OH218677   2.285   4.204   0.328 -0.3253 -0.3703 -0.3659
 6238TIP3    H118678   2.305   4.187   0.236  1.3732  0.7235 -0.2351
 6238TIP3    H218679   2.287   4.299   0.336 -0.0279 -0.4680  0.8913
 6239TIP3   OH218680   2.239   4.133   1.983 -0.0336  0.5433 -0.0613
 6239TIP3    H118681   2.177   4.107   2.051 -0.5372  2.5439  0.2837
 6239TIP3    H218682   2.205   4.215   1.949  1.1230  0.4320 -1.5913
 6240TIP3   OH218683   2.849   5.186   2.805 -0.3592 -0.5231  0.2136
 6240TIP3    H118684   2.931   5.160   2.764  0.2042 -1.7941  2.0313
 6240TIP3    H218685   2.857   5.158   2.896 -2.3409  0.3914  0.7367
 6241TIP3   OH218686   1.025   4.414   1.107 -0.2514  0.1155 -0.2240
 6241TIP3    H118687   0.939   4.441   1.073 -0.3847 -0.9466 -0.7536
 6241TIP3    H218688   1.021   4.438   1.200 -1.4459 -0.6689 -0.0455
 6242TIP3   OH218689   3.397   5.696   3.204 -0.0983 -0.5946 -0.6312
 6242TIP3    H118690   3.393   5.780   3.158  2.1422  0.3063  0.6561
 6242TIP3    H218691   3.353   5.713   3.287 -0.0086 -0.8280 -0.5375
 6243TIP3   OH218692   5.626   4.168   3.439 -0.1215  0.2283  0.4678
 6243TIP3    H118693   5.720   4.185   3.446 -0.1445  0.9162 -0.6469
 6243TIP3    H218694   5.585   4.250   3.466 -0.4497 -0.2774  1.6018
 6244TIP3   OH218695   2.334   0.201   3.007  0.6395  0.3222 -0.5422
 6244TIP3    H118696   2.340   0.128   3.069  0.7418  0.2755 -0.6057
 6244TIP3    H218697   2.282   0.166   2.934 -1.3862  1.0577  0.4715
 6245TIP3   OH218698   4.807   1.610   1.645 -0.4286  0.1787 -0.0317
 6245TIP3    H118699   4.820   1.584   1.736 -0.3847  0.1516 -0.0456
 6245TIP3    H218700   4.754   1.540   1.607 -1.1542  0.6011  0.1889
 6246TIP3   OH218701   3.921   1.745   4.657  0.1944 -0.5657  0.1788
 6246TIP3    H118702   3.855   1.676   4.662  0.7409 -1.1128 -0.0560
 6246TIP3    H218703   3.888   1.804   4.589 -0.3007 -0.5515  0.4191
 6247TIP3   OH218704   0.994   0.704   5.778 -0.0565  0.8958 -0.2788
 6247TIP3    H118705   1.072   0.671   5.823 -1.7180 -2.8053  0.2553
 6247TIP3    H218706   0.924   0.698   5.844 -1.6877 -0.4878 -2.0216
 6248TIP3   OH218707   5.905   2.632   5.631  0.8286 -0.1076 -0.2482
 6248TIP3    H118708   5.889   2.543   5.601  0.2714 -0.0440 -0.1483
 6248TIP3    H218709   6.000   2.645   5.620  1.0772 -1.0587  0.7082
 6249TIP3   OH218710   2.987   4.685   3.077 -0.3505 -0.3629  0.1057
 6249TIP3    H118711   2.958   4.682   3.168  1.6665  2.7812  1.0129
 6249TIP3    H218712   3.075   4.722   3.081 -0.1442 -0.2199 -3.1427
 6250TIP3   OH218713   5.152   5.999   1.077 -0.0142 -0.1118  0.3146
 6250TIP3    H118714   5.144   6.006   1.172 -0.6781 -0.3475  0.2815
 6250TIP3    H218715   5.091   5.929   1.052  0.8149 -0.6785 -0.1914
 6251TIP3   OH218716   6.627   3.308   4.886 -0.5446  0.0632  0.2707
 6251TIP3    H118717   6.658   3.397   4.873  1.2140 -0.3703  1.2300
 6251TIP3    H218718   6.636   3.293   4.980  0.9289 -1.7022 -0.0928
 6252TIP3   OH218719   5.311   1.323   0.472  0.6336 -0.7899  0.3982
 6252TIP3    H118720   5.354   1.244   0.507  1.9179  0.5314  1.9357
 6252TIP3    H218721   5.374   1.359   0.410  0.8569  0.0126  1.0797
 6253TIP3   OH218722   0.985   3.177   1.352 -0.0418  0.0879  0.6408
 6253TIP3    H118723   1.064   3.202   1.304 -0.2614 -0.3558  0.0319
 6253TIP3    H218724   0.935   3.124   1.290 -1.4519  1.4476  0.5640
 6254TIP3   OH218725   5.961   2.611   0.235  0.2149  0.0847  0.4044
 6254TIP3    H118726   5.959   2.531   0.182  0.1410  0.9215 -0.9054
 6254TIP3    H218727   5.985   2.680   0.173 -0.6055  1.2277  1.3218
 6255TIP3   OH218728   5.561   3.606   2.533 -0.2782 -0.1969 -1.3115
 6255TIP3    H118729   5.622   3.548   2.488 -0.4997 -1.2701 -0.2843
 6255TIP3    H218730   5.483   3.609   2.477  0.1594  0.0096 -1.9110
 6256TIP3   OH218731   1.856   4.791   1.806  0.2512  0.2501 -0.4110
 6256TIP3    H118732   1.912   4.816   1.879  0.6312  1.6846 -1.1564
 6256TIP3    H218733   1.843   4.872   1.757  0.3667 -0.7606 -2.1826
 6257TIP3   OH218734   1.491   3.109   5.423  0.0311 -0.0686  0.0438
 6257TIP3    H118735   1.480   3.026   5.378  1.3653  0.6293 -1.6639
 6257TIP3    H218736   1.498   3.086   5.516 -1.4642 -1.6548 -0.1879
 6258TIP3   OH218737   0.007   4.758   0.400 -0.6295  0.2006  0.0809
 6258TIP3    H118738   0.072   4.736   0.333 -0.5587  0.3245  0.1087
 6258TIP3    H218739  -0.019   4.848   0.380 -0.9824  0.0660 -0.0836
 6259TIP3   OH218740   1.133   1.589   5.677  0.6796  0.1732  0.7299
 6259TIP3    H118741   1.209   1.532   5.667 -0.2213 -0.9720  0.1702
 6259TIP3    H218742   1.094   1.593   5.589 -0.8653 -0.6805  1.3308
 6260TIP3   OH218743   3.670   2.349   0.629  0.0589  0.5567 -0.3332
 6260TIP3    H118744   3.575   2.342   0.635  0.0284  1.6454  1.0773
 6260TIP3    H218745   3.685   2.419   0.566 -0.0626  0.2428 -0.7142
 6261TIP3   OH218746   1.943   1.970   0.940  0.0071  0.4844 -0.6255
 6261TIP3    H118747   1.936   1.961   1.035  1.1611  0.6902 -0.4999
 6261TIP3    H218748   2.024   1.924   0.917 -0.6438 -0.2251 -1.6266
 6262TIP3   OH218749   6.385   3.300   0.306  0.0570 -0.2726  0.0004
 6262TIP3    H118750   6.300   3.335   0.335  0.2440  2.0163 -1.9241
 6262TIP3    H218751   6.367   3.263   0.220  1.0929  0.7854 -0.6980
 6263TIP3   OH218752   0.287   1.887   4.722 -0.2322  0.4828 -0.3671
 6263TIP3    H118753   0.334   1.826   4.665  0.1577  1.6323 -1.3198
 6263TIP3    H218754   0.239   1.944   4.661 -2.2483 -0.1470  0.5444
 6264TIP3   OH218755   1.835   3.555   4.290 -0.2387  0.1689 -0.7398
 6264TIP3    H118756   1.912   3.504   4.267  1.0811  1.0113  1.4755
 6264TIP3    H218757   1.763   3.493   4.288  0.6705 -0.9014 -1.7162
 6265TIP3   OH218758   0.352   5.733   5.060 -0.3457 -0.6064  0.1154
 6265TIP3    H118759   0.423   5.766   5.005 -0.4573 -0.1347  0.2482
 6265TIP3    H218760   0.272   5.760   5.015 -0.4446  0.3882  0.8479
 6266TIP3   OH218761   2.174   1.756   3.755  0.2021 -0.0345  0.4787
 6266TIP3    H118762   2.207   1.821   3.693 -0.2678  0.4678  0.7422
 6266TIP3    H218763   2.202   1.790   3.841 -1.1647  0.5155  0.7244
 6267TIP3   OH218764   0.668   2.449   5.843  0.2532 -0.3318  0.0523
 6267TIP3    H118765   0.673   2.355   5.863  0.0922 -0.2725  0.3723
 6267TIP3    H218766   0.660   2.491   5.928  0.8179  0.0096 -0.0558
 6268TIP3   OH218767   2.572   5.810   4.962 -0.0945  0.2233 -0.0056
 6268TIP3    H118768   2.485   5.812   5.001  0.3848 -0.0447  1.0902
 6268TIP3    H218769   2.556   5.792   4.869 -1.1805 -0.1620  0.2460
 6269TIP3   OH218770   5.672   5.593   1.957 -0.1763  0.0494 -0.3859
 6269TIP3    H118771   5.590   5.583   1.909 -0.1692 -0.5740 -0.2878
 6269TIP3    H218772   5.668   5.680   1.994  0.5800  1.2823 -2.9582
 6270TIP3   OH218773   1.861   1.264   3.399  0.2755  0.4717 -0.8406
 6270TIP3    H118774   1.924   1.194   3.415 -0.3280 -0.2647 -1.6401
 6270TIP3    H218775   1.804   1.263   3.476  1.4794  1.4507  0.1169
 6271TIP3   OH218776   1.845   6.343   3.538  0.4105 -0.4324  0.0278
 6271TIP3    H118777   1.874   6.335   3.629 -2.5527 -0.4790  1.0624
 6271TIP3    H218778   1.895   6.418   3.504 -0.4954  1.5588  2.6628
 6272TIP3   OH218779   6.832   1.946  -0.027  0.3333  0.4029  0.0328
 6272TIP3    H118780   6.844   1.990   0.058  0.7269  0.5261 -0.0871
 6272TIP3    H218781   6.797   1.860  -0.004  0.6554  0.3495  0.3340
 6273TIP3   OH218782   4.967   3.117   4.792 -0.1275  0.5981 -0.0350
 6273TIP3    H118783   4.985   3.025   4.808  3.8003  1.0566 -0.8107
 6273TIP3    H218784   4.892   3.117   4.733 -1.3330 -1.9524  1.3526
 6274TIP3   OH218785   2.180   3.419   0.613 -0.2275 -0.3301  0.7808
 6274TIP3    H118786   2.091   3.402   0.583  0.6235 -0.1338 -2.1536
 6274TIP3    H218787   2.218   3.333   0.627 -0.5891 -0.4384  1.0847
 6275TIP3   OH218788   0.923   2.607   2.075 -0.3250 -0.1281 -0.2338
 6275TIP3    H118789   0.837   2.575   2.048  0.0790 -0.6159 -0.9809
 6275TIP3    H218790   0.927   2.696   2.042 -0.2992 -0.3210 -0.7550
 6276TIP3   OH218791   6.052   0.100   4.268  0.1760 -0.2887  0.5767
 6276TIP3    H118792   5.991   0.165   4.234  0.8907 -0.5727 -1.3984
 6276TIP3    H218793   6.138   0.141   4.259  0.6114 -1.3639 -0.4504
 6277TIP3   OH218794   6.396   1.509   5.100 -0.1706  0.7553 -0.5105
 6277TIP3    H118795   6.333   1.502   5.171  0.7629  1.5818  0.4198
 6277TIP3    H218796   6.431   1.598   5.107  2.0198 -0.0680 -0.1802
 6278TIP3   OH218797   4.196   5.973   3.485 -0.3069 -0.2878 -0.3264
 6278TIP3    H118798   4.105   6.003   3.488  0.1167  0.9293  1.4296
 6278TIP3    H218799   4.237   6.028   3.418 -0.4899  0.2746  0.0188
 6279TIP3   OH218800   4.796   3.021   5.633 -0.3914 -0.1663 -0.8035
 6279TIP3    H118801   4.711   3.032   5.675  0.1961  0.3049  0.2771
 6279TIP3    H218802   4.824   3.110   5.612  1.2929  0.0272  1.8292
 6280TIP3   OH218803   3.031   6.754   5.231 -0.3293  0.4591  0.1902
 6280TIP3    H118804   3.032   6.809   5.153 -1.5872  1.7764  1.0467
 6280TIP3    H218805   3.114   6.772   5.275 -0.1123  0.5655 -0.2577
 6281TIP3   OH218806   3.690   1.527   2.502 -0.1256 -0.0585  0.3013
 6281TIP3    H118807   3.648   1.443   2.517 -1.7499  0.7148  0.3376
 6281TIP3    H218808   3.618   1.591   2.508  0.3306  1.0021 -3.4125
 6282TIP3   OH218809   2.851   1.190   4.012 -0.0287 -0.1349 -0.0358
 6282TIP3    H118810   2.806   1.136   4.077  1.6688 -0.3140  1.0717
 6282TIP3    H218811   2.785   1.254   3.984 -0.8909 -0.1768  1.7297
 6283TIP3   OH218812   5.095   4.391   1.668  0.0797  0.3777  0.2841
 6283TIP3    H118813   5.092   4.296   1.677 -1.6789  0.3009 -0.7185
 6283TIP3    H218814   5.180   4.408   1.627  0.4292 -0.7418  0.5084
 6284TIP3   OH218815   4.236   3.363   5.100 -0.1298 -0.4974  0.1058
 6284TIP3    H118816   4.230   3.292   5.036 -0.2404 -0.8530  0.5029
 6284TIP3    H218817   4.239   3.443   5.047 -0.2300 -0.7837 -0.3413
 6285TIP3   OH218818   6.206   5.858   2.580 -0.5202 -0.0902  0.4789
 6285TIP3    H118819   6.134   5.900   2.534 -0.4056 -0.2103  0.1876
 6285TIP3    H218820   6.261   5.931   2.609 -0.7326 -0.0026  0.6574
 6286TIP3   OH218821   4.845   1.873   3.013  0.2847 -0.1443 -0.4893
 6286TIP3    H118822   4.776   1.886   3.078  0.1091  1.3284 -0.9226
 6286TIP3    H218823   4.904   1.809   3.053  1.1259  1.9644  1.9022
 6287TIP3   OH218824   4.312   2.956   2.993 -0.2144  0.1834  0.3321
 6287TIP3    H118825   4.396   2.989   3.025  0.0176  0.9191 -0.9651
 6287TIP3    H218826   4.305   2.990   2.903 -0.8371 -1.8019 -0.4180
 6288TIP3   OH218827   1.007   1.775   3.348  0.8764 -0.7123  0.0482
 6288TIP3    H118828   1.085   1.828   3.336  0.4298 -0.2958 -1.2252
 6288TIP3    H218829   0.974   1.761   3.259 -0.9979 -0.0882  0.5953
 6289TIP3   OH218830   6.534   6.050   3.259  0.6026  0.0735  0.6263
 6289TIP3    H118831   6.621   6.012   3.249  0.5260 -0.9189  2.9627
 6289TIP3    H218832   6.477   5.976   3.280 -0.5298  0.8880  0.5494
 6290TIP3   OH218833   1.441   1.459   3.820  0.0037  0.0332 -0.0242
 6290TIP3    H118834   1.461   1.415   3.903  1.3373  1.4359  0.4535
 6290TIP3    H218835   1.522   1.506   3.799 -0.0009 -0.9786 -2.5913
 6291TIP3   OH218836   2.088   5.763   3.539  0.2879 -0.3092  0.8896
 6291TIP3    H118837   2.054   5.818   3.469  0.2326 -0.6295  0.6624
 6291TIP3    H218838   2.079   5.816   3.618 -2.0978 -0.8899  1.0884
 6292TIP3   OH218839   0.130   1.302   3.236  0.6826 -0.1068  0.0017
 6292TIP3    H118840   0.174   1.299   3.151  1.2879  0.6756  0.2732
 6292TIP3    H218841   0.194   1.342   3.295 -0.3728  1.0867  0.4034
 6293TIP3   OH218842   5.488   0.406   4.834 -0.4584  0.0845 -0.1064
 6293TIP3    H118843   5.504   0.481   4.776  1.2023 -0.8652 -0.9420
 6293TIP3    H218844   5.467   0.445   4.918  0.3165  1.5018 -0.5294
 6294TIP3   OH218845   0.973   3.849   1.586 -0.5111  0.0761  0.0257
 6294TIP3    H118846   0.964   3.876   1.495  0.8159 -0.4877 -0.3019
 6294TIP3    H218847   0.989   3.754   1.581 -2.7340 -0.4161  1.0042
 6295TIP3   OH218848   1.181   3.513   0.799  0.0392 -0.3169 -0.4234
 6295TIP3    H118849   1.169   3.418   0.792 -0.3024 -0.3256  0.2190
 6295TIP3    H218850   1.250   3.533   0.737  0.8213 -1.1383  0.1559
 6296TIP3   OH218851   7.196   4.948   2.889  0.2044  0.0870 -0.2459
 6296TIP3    H118852   7.153   4.872   2.929 -1.8922  0.6475 -1.3389
 6296TIP3    H218853   7.258   4.977   2.956 -2.4206  0.3543  2.2676
 6297TIP3   OH218854   1.774   5.638   2.579  0.0090 -0.1641 -0.5387
 6297TIP3    H118855   1.834   5.563   2.579 -0.6506 -0.7036  0.4383
 6297TIP3    H218856   1.817   5.703   2.523  0.8053 -1.0926 -1.0342
 6298TIP3   OH218857   0.653   5.823   3.585 -0.5479 -0.5862 -0.0041
 6298TIP3    H118858   0.747   5.817   3.603 -0.4452 -0.3896 -0.4567
 6298TIP3    H218859   0.638   5.761   3.514 -0.6136 -0.0779 -0.4465
 6299TIP3   OH218860   4.518   5.170   3.373  0.2605  0.5085 -0.1495
 6299TIP3    H118861   4.528   5.253   3.420  1.2424  0.1059  0.3755
 6299TIP3    H218862   4.552   5.104   3.433  0.9249 -0.1021 -1.1758
 6300TIP3   OH218863   7.195   4.654   1.671  0.4191 -0.1731  0.0599
 6300TIP3    H118864   7.182   4.736   1.625  0.2367 -1.5457 -2.5301
 6300TIP3    H218865   7.223   4.679   1.759  0.5958  2.6108 -0.7187
 6301TIP3   OH218866   4.153   1.487   0.184  0.3195  0.1662  0.0524
 6301TIP3    H118867   4.212   1.551   0.145  0.2510  1.0943  1.3981
 6301TIP3    H218868   4.135   1.425   0.114  2.1772  0.3564 -0.6634
 6302TIP3   OH218869   6.104   2.455   2.345 -0.6986  0.1062  0.5887
 6302TIP3    H118870   6.024   2.415   2.381 -0.1671  0.1657  1.9065
 6302TIP3    H218871   6.166   2.382   2.337 -1.0632 -0.0599 -1.0519
 6303TIP3   OH218872   1.815   2.363   1.520 -0.1468 -0.8325 -0.5896
 6303TIP3    H118873   1.737   2.388   1.569  0.4019  1.5295 -0.7644
 6303TIP3    H218874   1.885   2.417   1.559  0.8165 -0.8175 -2.2414
 6304TIP3   OH218875   0.666   2.498   3.611  0.6193 -0.2316 -0.0818
 6304TIP3    H118876   0.596   2.517   3.673  2.0415 -2.7250  2.5266
 6304TIP3    H218877   0.640   2.417   3.568  1.9013 -1.2769  1.0389
 6305TIP3   OH218878   4.409   4.466   3.220 -0.0781 -0.4233 -0.3471
 6305TIP3    H118879   4.378   4.477   3.130 -0.8183 -0.2134 -0.0764
 6305TIP3    H218880   4.500   4.437   3.211 -0.2527 -0.7413 -1.1640
 6306TIP3   OH218881   1.860   6.088   2.044 -0.0770 -0.1934 -0.7330
 6306TIP3    H118882   1.943   6.103   1.999 -0.2673 -1.3554 -1.5099
 6306TIP3    H218883   1.866   5.999   2.078 -0.0391  0.5475  1.3943
 6307TIP3   OH218884   1.649   1.107   3.268 -0.4901  0.1359 -0.0731
 6307TIP3    H118885   1.729   1.139   3.308 -0.5649  0.9576 -0.5650
 6307TIP3    H218886   1.607   1.055   3.337 -0.3089  1.0008  0.7069
 6308TIP3   OH218887   1.608   0.316   3.553  0.4575  0.8716 -0.0402
 6308TIP3    H118888   1.531   0.277   3.594  1.7570 -2.7419 -0.6791
 6308TIP3    H218889   1.630   0.256   3.481  4.3422  1.1512  0.6637
 6309TIP3   OH218890   3.247   4.209   1.221  0.7072 -0.1438  0.1012
 6309TIP3    H118891   3.337   4.193   1.248  0.1191 -2.1315  1.1533
 6309TIP3    H218892   3.209   4.259   1.294  1.0933  1.2300 -0.6204
 6310TIP3   OH218893   6.129   2.062   5.659 -0.2920  0.1401 -0.0947
 6310TIP3    H118894   6.102   2.028   5.574  1.8385 -0.0393 -0.7607
 6310TIP3    H218895   6.162   2.150   5.641  0.8791 -0.1802  0.3918
 6311TIP3   OH218896   4.119   3.759   5.604  0.2964 -0.0090 -0.0255
 6311TIP3    H118897   4.130   3.727   5.693  0.0028 -0.1616 -0.0425
 6311TIP3    H218898   4.092   3.850   5.614 -2.3128 -0.7170  0.1356
 6312TIP3   OH218899   7.040   4.554   5.459  0.0463  0.0970 -0.9958
 6312TIP3    H118900   7.071   4.491   5.525 -1.5744  0.4826  0.1859
 6312TIP3    H218901   6.951   4.526   5.440  0.4300  0.0991 -2.9617
 6313TIP3   OH218902   3.613  -0.033   5.284 -0.0510  0.1702 -0.2477
 6313TIP3    H118903   3.598   0.051   5.328  1.2626  0.7418 -0.8091
 6313TIP3    H218904   3.648  -0.009   5.198 -2.3541 -0.9309 -1.5611
 6314TIP3   OH218905   0.091   3.570   4.990 -0.2308 -0.0024 -0.1775
 6314TIP3    H118906   0.091   3.474   4.990  0.9597 -0.0270  0.7391
 6314TIP3    H218907   0.001   3.594   5.011 -0.3628 -0.9432  0.4207
 6315TIP3   OH218908   2.741   0.688   4.090  0.0262  0.1930  0.2501
 6315TIP3    H118909   2.768   0.743   4.164  0.3906  3.1865 -1.9274
 6315TIP3    H218910   2.645   0.684   4.097  0.1273 -0.6133  1.5098
 6316TIP3   OH218911   4.215   5.335   5.894 -0.7486 -0.4260  0.1895
 6316TIP3    H118912   4.276   5.280   5.845 -0.9525 -0.3931 -0.1055
 6316TIP3    H218913   4.149   5.274   5.927  0.0347 -0.6185  1.4390
 6317TIP3   OH218914   1.510   4.551   4.917 -0.0495 -0.0151  0.1715
 6317TIP3    H118915   1.494   4.595   4.833 -1.0733  2.0787  1.4048
 6317TIP3    H218916   1.424   4.526   4.948 -0.0478  1.9501  1.9610
 6318TIP3   OH218917   0.372   1.536   5.201 -0.2069 -0.7585 -0.7370
 6318TIP3    H118918   0.299   1.598   5.208  0.1694 -0.4249  0.5730
 6318TIP3    H218919   0.365   1.500   5.113 -0.0903  1.6017 -1.7787
 6319TIP3   OH218920   5.464   0.103   1.452 -0.1065 -0.4930 -0.6459
 6319TIP3    H118921   5.405   0.163   1.406 -1.6238 -1.9225 -0.7040
 6319TIP3    H218922   5.409   0.065   1.521  1.1994 -0.8047  0.2512
 6320TIP3   OH218923   0.046   5.503   5.767 -0.4380  0.1078 -0.0479
 6320TIP3    H118924   0.070   5.417   5.734 -0.0130  0.3707 -0.4465
 6320TIP3    H218925   0.070   5.501   5.860 -1.2719 -0.5015  0.1738
 6321TIP3   OH218926   1.534   2.569   5.111 -0.2906 -0.5036  0.1041
 6321TIP3    H118927   1.625   2.597   5.104  0.7123 -3.8038 -2.5992
 6321TIP3    H218928   1.493   2.601   5.031 -1.5509  0.7325  1.1777
 6322TIP3   OH218929   1.077   1.399   2.245  0.4261  0.0164 -0.2212
 6322TIP3    H118930   1.085   1.444   2.161  2.4534 -0.7252 -0.4699
 6322TIP3    H218931   1.002   1.341   2.234 -0.0418  0.7605 -1.1008
 6323TIP3   OH218932   5.635   1.491   4.349  0.1754 -0.3115  0.0124
 6323TIP3    H118933   5.627   1.566   4.408 -0.6738  0.1607 -0.6694
 6323TIP3    H218934   5.642   1.530   4.262 -0.3283 -1.0264 -0.3568
 6324TIP3   OH218935   3.790   3.401   5.606  0.2390  0.0692  0.0275
 6324TIP3    H118936   3.814   3.439   5.690 -0.1830  1.8856 -0.6387
 6324TIP3    H218937   3.862   3.426   5.547 -0.4010  0.4711 -0.5925
 6325TIP3   OH218938   6.232   0.166   1.481 -0.3191  0.6292  0.6064
 6325TIP3    H118939   6.287   0.164   1.403 -0.6893  0.5414  0.3395
 6325TIP3    H218940   6.279   0.221   1.543  1.3574 -1.5178  1.3870
 6326TIP3   OH218941   0.587   1.806   0.109  0.1838  0.2421  0.6402
 6326TIP3    H118942   0.624   1.879   0.059 -2.3777  0.2214 -1.5207
 6326TIP3    H218943   0.514   1.846   0.157 -1.1388 -0.7651 -0.4367
 6327TIP3   OH218944   4.080   2.034   1.746 -0.6343  0.1126 -0.3021
 6327TIP3    H118945   4.024   2.112   1.749  0.4195  0.8923 -0.0732
 6327TIP3    H218946   4.143   2.052   1.677  0.0303 -0.2367  0.1950
 6328TIP3   OH218947   7.034   6.740   4.396  0.0350  0.1800 -0.0452
 6328TIP3    H118948   6.954   6.788   4.372 -0.2094  0.3506  1.0824
 6328TIP3    H218949   7.103   6.807   4.395 -0.5294  0.9365  2.8521
 6329TIP3   OH218950   3.318   5.590   1.276  0.1699 -0.6558 -0.6908
 6329TIP3    H118951   3.233   5.634   1.289  0.1570 -0.1789 -2.1574
 6329TIP3    H218952   3.298   5.497   1.284  0.1234 -0.5045  2.1086
 6330TIP3   OH218953   6.291   0.571   1.355 -0.0566 -0.1838 -0.1465
 6330TIP3    H118954   6.268   0.663   1.367  1.0082  0.0200  0.5079
 6330TIP3    H218955   6.207   0.527   1.343 -0.6381  0.7713  0.2477
 6331TIP3   OH218956   2.870   6.290   3.953 -0.5701  0.3261 -0.1004
 6331TIP3    H118957   2.899   6.363   3.897  3.2640 -0.3630  0.6757
 6331TIP3    H218958   2.822   6.332   4.024 -1.0054  1.7732 -1.2115
 6332TIP3   OH218959   6.192   2.690   5.681 -0.5949 -0.3665  0.4657
 6332TIP3    H118960   6.254   2.631   5.638  0.1038  0.0513  0.8763
 6332TIP3    H218961   6.232   2.708   5.766 -1.3621 -0.2092  0.7980
 6333TIP3   OH218962   2.157   5.695   1.776 -0.3869 -0.5861 -0.1558
 6333TIP3    H118963   2.173   5.700   1.871 -1.5865  0.8021  0.0119
 6333TIP3    H218964   2.214   5.762   1.739 -0.4999 -0.5825 -0.3227
 6334TIP3   OH218965   4.748   2.081   4.152 -0.1369 -0.7495  0.2695
 6334TIP3    H118966   4.685   2.145   4.185  0.3952 -0.7110  1.2379
 6334TIP3    H218967   4.773   2.114   4.066  0.8681  0.9073  1.1419
 6335TIP3   OH218968   0.389   1.194   2.576 -0.2132 -0.5495  0.0339
 6335TIP3    H118969   0.317   1.249   2.608  1.0724  1.0534  0.3145
 6335TIP3    H218970   0.419   1.147   2.654  0.6383  0.7001  0.4950
 6336TIP3   OH218971   7.080   1.102   5.208  0.1890 -0.5662  0.6239
 6336TIP3    H118972   7.062   1.008   5.213 -1.5912 -0.4306 -1.7362
 6336TIP3    H218973   7.145   1.111   5.139 -0.5244 -0.0063  0.0014
 6337TIP3   OH218974   6.336   3.394   1.226  0.1408  0.7859 -0.4573
 6337TIP3    H118975   6.279   3.333   1.273  1.1024  0.5927  0.5295
 6337TIP3    H218976   6.300   3.399   1.138 -0.8198 -0.0654 -0.1297
 6338TIP3   OH218977   2.779   2.501   1.347  0.1389 -0.2020  0.1668
 6338TIP3    H118978   2.732   2.449   1.413 -0.5583 -0.9507 -0.8819
 6338TIP3    H218979   2.870   2.500   1.377  0.2471 -2.4208 -0.0218
 6339TIP3   OH218980   2.079   3.233   2.580 -0.7246  0.8804 -0.2100
 6339TIP3    H118981   2.004   3.199   2.628  0.1204 -1.9146 -0.6826
 6339TIP3    H218982   2.136   3.270   2.648 -1.2590  0.4447  0.4837
 6340TIP3   OH218983   1.255   1.444   4.657 -0.3455 -0.2658  0.0375
 6340TIP3    H118984   1.270   1.533   4.689 -0.3437 -0.3891  0.3769
 6340TIP3    H218985   1.229   1.456   4.565 -0.7229  0.1071  0.1913
 6341TIP3   OH218986   2.876   3.852   2.774  0.2517 -0.1345 -0.5724
 6341TIP3    H118987   2.854   3.810   2.691  0.4283  0.9484 -1.1876
 6341TIP3    H218988   2.812   3.922   2.783 -0.4584 -0.9136  0.7679
 6342TIP3   OH218989   3.769   4.648   0.330  0.2317  0.9617 -0.1938
 6342TIP3    H118990   3.824   4.601   0.267 -0.9745 -1.2176  0.2939
 6342TIP3    H218991   3.816   4.640   0.413  0.6277  1.7214 -0.3375
 6343TIP3   OH218992   2.453   1.537   0.481  0.3368  0.3886  0.1721
 6343TIP3    H118993   2.531   1.542   0.535 -0.2797 -0.7876  1.2202
 6343TIP3    H218994   2.414   1.452   0.502 -0.8787  0.6676 -0.8012
 6344TIP3   OH218995   3.465   2.026   0.406 -0.2820 -0.5339 -0.5393
 6344TIP3    H118996   3.453   2.102   0.464  0.4560 -0.5416 -0.3736
 6344TIP3    H218997   3.390   1.970   0.425 -0.4484 -0.1800 -0.1354
 6345TIP3   OH218998   6.004   6.067   4.907  0.3011  0.6621  0.3129
 6345TIP3    H118999   6.032   6.121   4.981  1.1220  1.8658 -0.8373
 6345TIP3    H219000   5.934   6.012   4.942  1.2238  0.6097  2.1848
 6346TIP3   OH219001   1.478   5.311   1.581  0.0093  0.0042 -0.3454
 6346TIP3    H119002   1.412   5.379   1.566  2.8982  3.1171 -0.4570
 6346TIP3    H219003   1.525   5.341   1.659  2.2085 -1.1912 -1.1216
 6347TIP3   OH219004   1.997   0.126   0.135  0.1196  0.0045  0.1581
 6347TIP3    H119005   2.024   0.076   0.212  1.8826  0.0576 -0.3635
 6347TIP3    H219006   2.055   0.202   0.135 -0.8522  0.7587 -0.4259
 6348TIP3   OH219007   4.787   0.978   3.281  0.2739 -0.0708  0.0884
 6348TIP3    H119008   4.798   0.910   3.347 -0.2273  0.2278  0.4938
 6348TIP3    H219009   4.852   0.958   3.214  0.8679 -0.3189  0.7220
 6349TIP3   OH219010   5.218   5.229   5.758 -0.1881 -0.0026  0.0679
 6349TIP3    H119011   5.191   5.276   5.679  0.9271 -1.9659 -1.5612
 6349TIP3    H219012   5.155   5.157   5.766  0.7230 -0.8268 -0.0522
 6350TIP3   OH219013   3.200   2.966   2.885 -0.4306  0.0356 -0.0670
 6350TIP3    H119014   3.107   2.950   2.870 -0.9088  2.0871  0.3787
 6350TIP3    H219015   3.204   2.999   2.975  0.8326 -0.7404  0.1802
 6351TIP3   OH219016   5.871   1.543   0.379 -0.2079  0.2856  0.4772
 6351TIP3    H119017   5.846   1.452   0.363 -0.4826  0.6611 -1.4909
 6351TIP3    H219018   5.955   1.554   0.335  0.5108  0.6530  1.8736
 6352TIP3   OH219019   5.980   2.240   5.828  0.2402  0.7051  0.5608
 6352TIP3    H119020   5.960   2.302   5.757 -0.8728  0.7296  0.8770
 6352TIP3    H219021   6.010   2.161   5.783  1.3451  1.3368  0.1383
 6353TIP3   OH219022   3.196   6.300   1.012  0.6029  0.0399 -0.6310
 6353TIP3    H119023   3.146   6.373   0.976  0.8686 -0.7931 -2.8614
 6353TIP3    H219024   3.132   6.249   1.062 -0.4925 -0.1568 -2.1272
 6354TIP3   OH219025   2.097   5.609   4.848 -0.2446  0.2033  0.4252
 6354TIP3    H119026   2.027   5.641   4.905 -1.3213  0.8201 -1.1742
 6354TIP3    H219027   2.067   5.522   4.819 -0.8554  0.8620 -1.0179
 6355TIP3   OH219028   7.055   2.554   4.608  0.4863 -0.1496 -0.0073
 6355TIP3    H119029   7.034   2.631   4.554 -0.0817  0.0423  0.4829
 6355TIP3    H219030   6.994   2.559   4.681  0.3267 -1.1676 -0.0622
 6356TIP3   OH219031   6.836   5.131   1.687  0.1325 -0.1627  0.2277
 6356TIP3    H119032   6.772   5.127   1.759 -2.4813 -2.2195 -2.0050
 6356TIP3    H219033   6.851   5.040   1.663  0.5846  0.4561 -2.1000
 6357TIP3   OH219034   0.683   1.920   3.547 -0.3550 -0.2621 -0.4699
 6357TIP3    H119035   0.756   1.882   3.594  0.7687  0.9593 -1.1627
 6357TIP3    H219036   0.701   1.902   3.454  0.6536  2.5046 -0.9167
 6358TIP3   OH219037  -0.024   5.083   3.212 -0.2362  0.0343 -0.4063
 6358TIP3    H119038   0.014   5.169   3.227 -2.0252  0.6416  1.1108
 6358TIP3    H219039   0.045   5.032   3.170  1.1891  1.9045 -0.4247
 6359TIP3   OH219040   0.394   3.603   3.583 -0.1013 -0.5173  0.0091
 6359TIP3    H119041   0.390   3.625   3.676 -0.6987  0.1873 -0.1661
 6359TIP3    H219042   0.344   3.522   3.575  0.8725 -1.1675  0.4562
 6360TIP3   OH219043   5.095   3.806   1.340  0.5876 -0.5076  0.1123
 6360TIP3    H119044   5.114   3.872   1.407  1.4129 -0.5694 -0.0521
 6360TIP3    H219045   5.137   3.727   1.372 -0.6466 -1.0496  0.4521
 6361TIP3   OH219046   4.200   3.162   3.237  0.0764 -0.2017  0.5143
 6361TIP3    H119047   4.264   3.225   3.270  0.6581 -0.1479 -0.6405
 6361TIP3    H219048   4.135   3.216   3.191 -0.4432 -0.3092  1.1115
 6362TIP3   OH219049   5.938   4.601   1.389 -0.0519 -0.3063  0.2479
 6362TIP3    H119050   5.858   4.555   1.413 -0.5111 -0.0880 -0.8005
 6362TIP3    H219051   5.910   4.692   1.378  0.4620 -0.1229  0.4226
 6363TIP3   OH219052   2.153   2.602   5.309  0.3069 -0.0835 -0.1474
 6363TIP3    H119053   2.067   2.622   5.346  0.1110 -0.8952 -0.1507
 6363TIP3    H219054   2.210   2.590   5.386 -0.1331 -1.9181 -0.0582
 6364TIP3   OH219055   1.742   6.501   0.136  0.6249 -0.3364 -0.1382
 6364TIP3    H119056   1.709   6.462   0.217  0.3845  0.0121 -0.0627
 6364TIP3    H219057   1.746   6.595   0.155 -1.0931 -0.0230 -1.0700
 6365TIP3   OH219058   5.884   2.904   5.720 -0.2673  0.6490  0.1336
 6365TIP3    H119059   5.870   2.809   5.719  0.3082  0.5471 -1.4557
 6365TIP3    H219060   5.962   2.915   5.775 -1.1343  0.3603  1.4671
 6366TIP3   OH219061   6.689   5.832   0.191  0.5359  0.4555 -0.2368
 6366TIP3    H119062   6.700   5.924   0.168  0.7713  0.1162 -1.5640
 6366TIP3    H219063   6.602   5.827   0.231  1.7754  1.7835  2.9651
 6367TIP3   OH219064   1.133   4.217   0.073 -0.1992  0.5049  0.1521
 6367TIP3    H119065   1.192   4.288   0.099 -0.9037  0.8499  0.8386
 6367TIP3    H219066   1.079   4.201   0.150 -1.7657  0.9740 -0.8010
 6368TIP3   OH219067   2.278   5.810   5.000 -0.5020 -0.9002  0.1217
 6368TIP3    H119068   2.222   5.732   4.995 -1.0739 -0.5760  1.2339
 6368TIP3    H219069   2.256   5.860   4.921 -1.7278 -0.8352  0.4749
 6369TIP3   OH219070   2.385   3.030   2.592  0.1892 -0.2657 -0.2456
 6369TIP3    H119071   2.358   3.117   2.562  1.2139 -0.7255 -2.7438
 6369TIP3    H219072   2.476   3.041   2.619  0.3016 -0.5444 -0.5057
 6370TIP3   OH219073   1.750   0.216   3.341 -0.7084 -0.2246  0.2951
 6370TIP3    H119074   1.834   0.260   3.358  0.4212 -2.8684  2.3329
 6370TIP3    H219075   1.770   0.152   3.273 -2.8860  3.5221 -4.4681
 6371TIP3   OH219076   4.601   2.517   5.885 -0.4892  0.3620  0.3992
 6371TIP3    H119077   4.580   2.602   5.923  0.1996  0.1207  1.3647
 6371TIP3    H219078   4.647   2.537   5.803 -1.8697  0.8942 -0.2719
 6372TIP3   OH219079   5.478   4.060   2.783 -0.0759 -0.4913  0.0737
 6372TIP3    H119080   5.494   3.968   2.765  1.0236 -0.3411  0.1660
 6372TIP3    H219081   5.394   4.079   2.743 -0.6236 -1.6899  0.6160
 6373TIP3   OH219082   4.817   4.625   1.650 -0.2914 -0.3438  0.0160
 6373TIP3    H119083   4.859   4.684   1.713  1.5889 -0.9522 -0.5843
 6373TIP3    H219084   4.776   4.557   1.703  0.6975 -0.4840  0.6306
 6374TIP3   OH219085   3.771   6.077   3.706 -0.1504  0.1935 -0.0263
 6374TIP3    H119086   3.787   6.155   3.760  1.1033  0.8301 -1.2535
 6374TIP3    H219087   3.720   6.019   3.762 -0.6833  1.6910  1.1011
 6375TIP3   OH219088   0.003   2.802   5.111  0.4563 -0.3297 -0.4468
 6375TIP3    H119089   0.051   2.722   5.086  0.7885 -0.1372 -0.4316
 6375TIP3    H219090  -0.024   2.786   5.201  0.5064 -0.4310 -0.4486
 6376TIP3   OH219091   3.380   0.184   5.226  0.1477  0.3345  0.5287
 6376TIP3    H119092   3.376   0.229   5.311  0.6455 -0.1401  0.8123
 6376TIP3    H219093   3.313   0.115   5.234  2.3452 -1.8285  1.8308
 6377TIP3   OH219094   5.673   1.909   5.632 -0.5256 -0.0549 -0.2774
 6377TIP3    H119095   5.687   1.940   5.543  2.1761 -2.7578 -0.9863
 6377TIP3    H219096   5.605   1.842   5.624 -0.2522 -0.3283 -0.3197
 6378TIP3   OH219097   5.160   6.733   2.978 -0.0539  0.3063  0.5120
 6378TIP3    H119098   5.128   6.782   2.902 -0.5632  1.9200  1.7160
 6378TIP3    H219099   5.180   6.646   2.944  0.3968  1.1818 -1.6140
 6379TIP3   OH219100   1.023   4.844   1.351 -0.6102 -0.3225 -0.0138
 6379TIP3    H119101   0.942   4.795   1.363 -0.3983 -0.5487  0.4910
 6379TIP3    H219102   1.071   4.834   1.433 -0.1849  0.0258 -0.2107
 6380TIP3   OH219103   5.991   1.884   0.133 -0.0275 -0.2548 -0.2392
 6380TIP3    H119104   5.945   1.856   0.212  1.2080 -0.4967  0.4226
 6380TIP3    H219105   6.039   1.963   0.160 -1.3095  0.9570 -1.3530
 6381TIP3   OH219106   0.971   5.653   1.792 -0.2626  0.4740  0.0711
 6381TIP3    H119107   0.984   5.701   1.710 -2.3943 -0.0283 -0.6459
 6381TIP3    H219108   0.882   5.617   1.784 -0.0760 -0.5769  2.1136
 6382TIP3   OH219109   4.102   6.770   0.608  0.1325 -0.2200 -0.8373
 6382TIP3    H119110   4.111   6.680   0.639 -2.3312 -0.0537  0.5829
 6382TIP3    H219111   4.008   6.782   0.595  0.5163  1.7779 -2.2616
 6383TIP3   OH219112   4.825   6.083   1.316 -0.3791  0.0815 -0.2194
 6383TIP3    H119113   4.746   6.043   1.353 -0.5335  0.8515  0.2934
 6383TIP3    H219114   4.892   6.014   1.323 -1.1205 -0.7714 -1.1524
 6384TIP3   OH219115   3.597   0.460   5.012 -0.1795  0.4320  0.1353
 6384TIP3    H119116   3.574   0.523   5.080 -0.6647 -0.0759  0.4469
 6384TIP3    H219117   3.529   0.392   5.017 -0.3462  0.4917 -0.9920
 6385TIP3   OH219118   3.421   1.410   0.890  0.0694  0.7183  0.0224
 6385TIP3    H119119   3.501   1.362   0.869  0.4280  1.3921 -0.1688
 6385TIP3    H219120   3.351   1.347   0.873  0.6454 -0.8810  2.9598
 6386TIP3   OH219121   4.060   5.854   1.482  0.7750 -0.2582 -0.4479
 6386TIP3    H119122   4.126   5.786   1.491  0.5828 -0.2913  0.8839
 6386TIP3    H219123   3.980   5.814   1.514  0.1475 -0.1108 -1.7514
 6387TIP3   OH219124   4.842   3.501   3.990  0.2512  0.3296 -0.1888
 6387TIP3    H119125   4.856   3.571   4.053  0.2203  1.9411 -1.8677
 6387TIP3    H219126   4.787   3.541   3.922  0.4277 -1.2457 -1.3144
 6388TIP3   OH219127   4.648   0.790   1.348 -0.5240  0.7959  0.4754
 6388TIP3    H119128   4.662   0.769   1.440  0.6551  0.9136  0.3386
 6388TIP3    H219129   4.554   0.780   1.335 -0.3383 -2.4582  0.8931
 6389TIP3   OH219130   1.356   2.927   4.107 -0.3496  0.6648 -0.7129
 6389TIP3    H119131   1.291   2.904   4.040 -0.4148  0.0521 -0.4459
 6389TIP3    H219132   1.401   3.003   4.071 -0.5628  0.5032 -1.3426
 6390TIP3   OH219133   3.893   3.165   4.217 -0.2479 -0.3358 -0.4846
 6390TIP3    H119134   3.957   3.106   4.175  0.9434  1.1663 -0.8999
 6390TIP3    H219135   3.946   3.239   4.248 -1.2694 -0.7381  2.5669
 6391TIP3   OH219136   3.309   1.778   5.621 -0.1613  0.1762  0.6050
 6391TIP3    H119137   3.395   1.758   5.659 -0.0144  1.3808  0.9726
 6391TIP3    H219138   3.322   1.768   5.527  0.1905 -0.3235  0.6990
 6392TIP3   OH219139   3.725   0.697   2.085  0.1615 -0.1294  0.5738
 6392TIP3    H119140   3.634   0.706   2.112  0.2060 -0.2481  0.7684
 6392TIP3    H219141   3.757   0.622   2.135  0.1603 -0.5424 -0.0272
 6393TIP3   OH219142   3.604   3.971   3.150 -0.8768  0.1629 -0.5592
 6393TIP3    H119143   3.560   3.902   3.199  0.3187 -0.1137  0.1596
 6393TIP3    H219144   3.697   3.962   3.172 -0.7655  2.5444  0.2603
 6394TIP3   OH219145   3.377   1.836   5.343 -0.5437  0.1530 -0.4122
 6394TIP3    H119146   3.382   1.781   5.265 -3.2659 -0.6115 -0.1422
 6394TIP3    H219147   3.443   1.904   5.328  2.0264 -2.3515 -1.3604
 6395TIP3   OH219148   0.312   3.901   3.077  0.1398 -0.2739 -0.1531
 6395TIP3    H119149   0.370   3.848   3.130  0.6424  0.4534  0.0394
 6395TIP3    H219150   0.252   3.943   3.139  0.2079 -0.0539 -0.2332
 6396TIP3   OH219151   1.969   0.177   1.515  0.1510 -0.1043  0.5175
 6396TIP3    H119152   1.938   0.236   1.446 -0.0455 -0.9305 -0.1029
 6396TIP3    H219153   1.961   0.229   1.595 -1.6465  0.1461  0.2246
 6397TIP3   OH219154   5.055   1.007   0.502 -0.1400 -0.1719  0.0756
 6397TIP3    H119155   5.080   0.964   0.583 -0.0957  1.1989  0.8261
 6397TIP3    H219156   4.962   0.988   0.491 -0.1821 -0.2297  0.5414
 6398TIP3   OH219157   1.756   1.989   4.996  0.2505 -0.1624 -0.0925
 6398TIP3    H119158   1.711   2.068   5.026  0.3185 -0.0822 -0.2022
 6398TIP3    H219159   1.835   1.984   5.049 -0.9920 -1.5556  1.7450
 6399TIP3   OH219160   4.971   0.516   4.900  0.7122  0.0514  0.2604
 6399TIP3    H119161   5.028   0.568   4.844 -0.5462  0.9762 -0.2127
 6399TIP3    H219162   4.889   0.509   4.850  0.8764 -2.5703  0.1992
 6400TIP3   OH219163   4.293   0.107   1.848  0.0402 -0.5331  0.1601
 6400TIP3    H119164   4.237   0.030   1.834 -0.9110  0.1658  0.0368
 6400TIP3    H219165   4.258   0.172   1.787  0.9956 -0.0817  0.0923
 6401TIP3   OH219166   6.235   2.649   1.122  0.1203  0.3511  0.9484
 6401TIP3    H119167   6.305   2.707   1.152 -0.8535  0.5116  3.1058
 6401TIP3    H219168   6.171   2.707   1.081  0.3037  0.4802  0.8458
 6402TIP3   OH219169   7.166   4.820   5.448  0.2680 -0.4342 -0.7403
 6402TIP3    H119170   7.115   4.741   5.434 -0.7931  0.1302 -0.1433
 6402TIP3    H219171   7.145   4.875   5.373  2.9059 -1.6298 -2.4981
 6403TIP3   OH219172   3.630   1.828   3.286 -0.3744  0.4175  0.0560
 6403TIP3    H119173   3.618   1.912   3.331 -0.7489  0.8028 -0.7351
 6403TIP3    H219174   3.717   1.834   3.246 -0.3061  0.3344  0.1917
 6404TIP3   OH219175   3.846   2.322   5.317 -0.4260  0.5239 -0.3137
 6404TIP3    H119176   3.767   2.350   5.362 -0.2453 -0.0728  0.3897
 6404TIP3    H219177   3.819   2.245   5.267  0.0524 -0.7064  1.2362
 6405TIP3   OH219178   4.092   4.104   4.817  0.3706  0.0260 -0.0781
 6405TIP3    H119179   4.041   4.077   4.894 -0.6275 -1.0701 -1.0897
 6405TIP3    H219180   4.181   4.073   4.836 -0.0287 -0.9206  0.3124
 6406TIP3   OH219181   2.204   2.499   1.522 -0.5810  0.1259 -0.2022
 6406TIP3    H119182   2.247   2.564   1.577 -0.5561 -1.2406  1.4833
 6406TIP3    H219183   2.195   2.541   1.437  3.1226  0.8901 -0.3671
 6407TIP3   OH219184   7.096   1.154   4.018  0.3851  0.2568  0.3460
 6407TIP3    H119185   7.110   1.240   3.978  0.3334 -0.7478 -2.0118
 6407TIP3    H219186   7.095   1.171   4.112  0.5648  2.7939 -0.0375
 6408TIP3   OH219187   0.288   3.387   2.716  0.0090  0.0322 -0.4284
 6408TIP3    H119188   0.210   3.369   2.663  0.1555 -0.1724 -0.5764
 6408TIP3    H219189   0.304   3.480   2.705  0.1139 -0.0338 -0.8448
 6409TIP3   OH219190   5.719   5.774   2.815  0.3906 -0.2774  0.4974
 6409TIP3    H119191   5.705   5.687   2.854  0.5242 -0.5904 -0.1381
 6409TIP3    H219192   5.783   5.758   2.745 -0.0057  0.2409  0.0182
 6410TIP3   OH219193   3.111   4.670   5.425  0.0607  0.0612  0.0280
 6410TIP3    H119194   3.135   4.625   5.344  0.2468 -0.6427  0.4670
 6410TIP3    H219195   3.019   4.693   5.414 -0.2428 -1.0545  0.0736
 6411TIP3   OH219196   5.340  -0.002   0.170 -0.7327  0.6321 -0.4724
 6411TIP3    H119197   5.420   0.047   0.186 -0.2763  0.5948 -2.3900
 6411TIP3    H219198   5.321   0.012   0.077 -0.5194 -2.8391 -1.1738
 6412TIP3   OH219199   5.820   1.961   4.334  0.7824 -0.6160 -0.0607
 6412TIP3    H119200   5.771   1.993   4.258 -1.3932  0.3205  1.6263
 6412TIP3    H219201   5.824   2.036   4.393  1.2194 -1.7060  1.3286
 6413TIP3   OH219202   0.914   2.157   2.013 -0.1272  0.0811  0.4337
 6413TIP3    H119203   0.937   2.185   1.924  0.8004 -0.9240  0.3399
 6413TIP3    H219204   0.998   2.153   2.059 -0.5942  0.5713  1.3670
 6414TIP3   OH219205   5.049   2.107   5.135  0.0433 -0.3155 -0.7651
 6414TIP3    H119206   5.099   2.127   5.056 -0.1044  1.5004 -0.4427
 6414TIP3    H219207   4.958   2.104   5.106  0.0418 -0.2174 -0.7721
 6415TIP3   OH219208   0.056   5.263   4.861 -0.0710  0.1893 -0.1793
 6415TIP3    H119209  -0.025   5.278   4.812  0.1556  0.0543 -0.6066
 6415TIP3    H219210   0.078   5.349   4.896 -0.8692  0.0532  0.6932
 6416TIP3   OH219211   2.378   6.013   4.490  0.5211 -0.2697  0.2533
 6416TIP3    H119212   2.323   6.013   4.569  0.0208  0.2655 -0.0896
 6416TIP3    H219213   2.409   6.104   4.483 -0.4834  0.0025 -0.8863
 6417TIP3   OH219214   1.674   4.291   4.869 -0.1387  0.0727 -0.0541
 6417TIP3    H119215   1.601   4.333   4.913 -1.0875 -0.5436 -0.9679
 6417TIP3    H219216   1.750   4.345   4.890 -1.2191  1.9952 -0.8238
 6418TIP3   OH219217   7.039   0.781   0.129  0.3323 -0.0688  0.1198
 6418TIP3    H119218   7.055   0.696   0.171 -0.2965  0.1369  0.7992
 6418TIP3    H219219   6.945   0.781   0.111 -0.1821  1.4602  2.3926
 6419TIP3   OH219220   6.912   3.980   5.511  0.0720 -0.0512 -0.0335
 6419TIP3    H119221   6.956   3.982   5.426  0.8450  3.2283  0.2887
 6419TIP3    H219222   6.828   4.022   5.496  0.6243  1.5119  0.9252
 6420TIP3   OH219223   5.152   3.411   1.306  0.5753 -0.1602  0.1342
 6420TIP3    H119224   5.078   3.409   1.368  2.1389  0.6334  2.1540
 6420TIP3    H219225   5.130   3.483   1.246 -0.4419 -0.1543  0.4878
 6421TIP3   OH219226   5.969   6.085   5.776 -0.7014 -0.2328  0.0595
 6421TIP3    H119227   5.881   6.073   5.741  0.2179 -2.2686 -1.7613
 6421TIP3    H219228   6.024   6.100   5.699  1.0262 -2.4130  0.7750
 6422TIP3   OH219229   5.408   6.096   1.015  0.5645 -0.9597  0.5406
 6422TIP3    H119230   5.413   6.142   0.931  0.2389 -0.5953  0.7145
 6422TIP3    H219231   5.319   6.059   1.016  0.6166 -1.0806  0.6652
 6423TIP3   OH219232   2.051   5.273   0.807  0.7268 -0.0145  0.3614
 6423TIP3    H119233   2.055   5.358   0.851  0.2664 -0.2980  0.9736
 6423TIP3    H219234   1.959   5.246   0.816  0.1726  0.7225 -2.3502
 6424TIP3   OH219235   3.183   0.477   3.432 -0.6111  0.0349  0.0522
 6424TIP3    H119236   3.240   0.477   3.355  0.4737 -0.8404  0.8377
 6424TIP3    H219237   3.154   0.568   3.440  1.1883  0.6402 -0.0022
 6425TIP3   OH219238   6.884   3.697   1.126 -0.1804  0.2966  0.3551
 6425TIP3    H119239   6.887   3.640   1.048  0.0510 -0.6106  1.0033
 6425TIP3    H219240   6.850   3.640   1.195 -0.5686  1.1485  0.8713
 6426TIP3   OH219241   1.797   5.026   1.683 -0.4322  0.3944  0.0258
 6426TIP3    H119242   1.732   4.997   1.619  0.5162 -1.4319 -0.1884
 6426TIP3    H219243   1.746   5.072   1.750 -1.8807 -0.5176 -0.4012
 6427TIP3   OH219244   2.134   6.577   3.812 -0.4351  0.5441 -0.0238
 6427TIP3    H119245   2.152   6.621   3.895  1.0924 -0.3959  0.1876
 6427TIP3    H219246   2.191   6.622   3.749  0.2838 -0.3511 -0.0341
 6428TIP3   OH219247   0.826   3.641   1.879 -0.1395  0.7443  0.4118
 6428TIP3    H119248   0.763   3.574   1.852 -0.0232  0.3850  1.0145
 6428TIP3    H219249   0.824   3.705   1.808  0.3493 -0.3000 -0.5803
 6429TIP3   OH219250   1.419   1.333   3.555  0.2225 -0.0081 -0.1286
 6429TIP3    H119251   1.366   1.374   3.624 -0.4369 -2.0295  0.6437
 6429TIP3    H219252   1.400   1.384   3.476 -1.9045  0.1192  0.4085
 6430TIP3   OH219253   2.077   2.425   3.699  0.1654 -0.3401 -0.5330
 6430TIP3    H119254   1.997   2.377   3.722  1.4924 -2.6324 -0.4660
 6430TIP3    H219255   2.106   2.384   3.617  1.3077  0.4426 -0.5320
 6431TIP3   OH219256   1.481   5.239   1.990  0.5807  0.3494 -0.1956
 6431TIP3    H119257   1.400   5.241   1.939  0.1951 -0.2336  0.3785
 6431TIP3    H219258   1.474   5.315   2.048  0.3582  0.2003 -0.0237
 6432TIP3   OH219259   6.657   0.864   1.701  0.1714 -0.2698  0.0695
 6432TIP3    H119260   6.680   0.838   1.612  1.7207 -0.0737  0.3732
 6432TIP3    H219261   6.688   0.954   1.708 -0.3320 -0.1402  0.6715
 6433TIP3   OH219262   1.562   2.892   0.946 -0.0401  0.0854 -0.7884
 6433TIP3    H119263   1.470   2.885   0.921  0.7797 -3.6128 -3.7233
 6433TIP3    H219264   1.565   2.856   1.035 -1.3622 -0.0774 -0.7848
 6434TIP3   OH219265   4.025   2.154   1.405 -0.0861 -0.0448  0.2331
 6434TIP3    H119266   4.077   2.233   1.388 -1.2692  0.4190 -1.5386
 6434TIP3    H219267   3.978   2.173   1.486 -0.1168  0.9417 -0.0095
 6435TIP3   OH219268   3.913   4.043   2.121 -0.0025 -0.2682  0.4238
 6435TIP3    H119269   3.896   3.950   2.105 -2.0593 -0.0486  0.9524
 6435TIP3    H219270   3.934   4.079   2.035 -1.2559 -0.8656 -0.1670
 6436TIP3   OH219271   0.507   1.175   4.036 -0.2561  0.1095 -0.5402
 6436TIP3    H119272   0.482   1.242   4.100 -1.2037 -0.3546 -0.4078
 6436TIP3    H219273   0.501   1.219   3.951  1.2494  0.7999 -0.3183
 6437TIP3   OH219274   4.491   6.592   2.099 -0.3589 -0.0614 -0.2938
 6437TIP3    H119275   4.403   6.578   2.064 -0.3613 -0.3374 -0.1769
 6437TIP3    H219276   4.549   6.554   2.033 -0.4079 -1.5460  0.4966
 6438TIP3   OH219277   1.614   1.130   0.856  0.1352  0.3858 -0.3247
 6438TIP3    H119278   1.704   1.109   0.880 -0.9345 -1.1305  2.9172
 6438TIP3    H219279   1.579   1.049   0.819  0.1310  1.0543 -1.8509
 6439TIP3   OH219280   3.185   4.725   2.108  0.0673 -0.0187 -0.3508
 6439TIP3    H119281   3.116   4.730   2.042 -0.5172  1.3208  0.3149
 6439TIP3    H219282   3.246   4.795   2.085 -0.5900  1.0418  0.9742
 6440TIP3   OH219283   6.733   3.252   1.691 -0.2111  0.2500  0.5147
 6440TIP3    H119284   6.730   3.337   1.646 -2.3308  0.2728  0.6351
 6440TIP3    H219285   6.672   3.261   1.764 -0.7003 -1.4811  0.3567
 6441TIP3   OH219286   2.686   2.366   3.976  0.1657  0.0462  0.0647
 6441TIP3    H119287   2.659   2.426   3.906  0.3760  0.0198 -0.0424
 6441TIP3    H219288   2.623   2.294   3.971 -0.0765  0.2511  0.1829
 6442TIP3   OH219289   6.500   6.753   3.678  0.1523  0.1610 -0.0660
 6442TIP3    H119290   6.470   6.731   3.590 -1.6690 -1.1392  0.8061
 6442TIP3    H219291   6.494   6.670   3.727 -0.0716  1.0963  1.5678
 6443TIP3   OH219292   6.617   5.538   4.722 -0.4803 -0.4704 -0.2132
 6443TIP3    H119293   6.546   5.514   4.663 -1.2179  2.9214 -0.9151
 6443TIP3    H219294   6.575   5.593   4.788  1.4174  1.4768 -0.5364
 6444TIP3   OH219295   2.682   5.379   2.692 -0.7804 -0.8111  0.4173
 6444TIP3    H119296   2.745   5.314   2.723 -0.0542 -0.0829  0.5077
 6444TIP3    H219297   2.633   5.402   2.771  1.7089  1.7535  1.3978
 6445TIP3   OH219298   5.594   0.328   1.102 -0.5152 -0.1287 -0.1882
 6445TIP3    H119299   5.615   0.358   1.013  1.2498  1.8532  0.7922
 6445TIP3    H219300   5.525   0.387   1.131 -1.4312 -1.0880 -0.3975
 6446TIP3   OH219301   2.893   4.742   0.928 -0.0810  0.4360 -0.7342
 6446TIP3    H119302   2.908   4.648   0.937  0.8247  0.7072  1.0057
 6446TIP3    H219303   2.940   4.767   0.848  0.1259 -0.4843 -0.9055
 6447TIP3   OH219304   0.923   6.113   2.698  0.4017  0.0489  0.1431
 6447TIP3    H119305   0.962   6.033   2.663  0.8102 -0.4334  1.6087
 6447TIP3    H219306   0.833   6.113   2.666  0.7125 -0.4292 -0.7585
 6448TIP3   OH219307   6.354   4.110   1.836 -0.0337 -0.2203 -0.0673
 6448TIP3    H119308   6.336   4.148   1.750  0.2241 -1.7714 -0.8432
 6448TIP3    H219309   6.418   4.169   1.876 -0.7655  0.9630 -0.5895
 6449TIP3   OH219310   4.091   5.813   1.853 -0.5720 -0.0426 -0.1616
 6449TIP3    H119311   4.170   5.852   1.890 -0.7688 -0.1799  0.4088
 6449TIP3    H219312   4.122   5.743   1.797 -0.2706  0.1748 -0.2698
 6450TIP3   OH219313   5.465   3.294   4.729 -0.1398  0.6686  0.2973
 6450TIP3    H119314   5.542   3.291   4.673 -0.2333 -1.7079  0.2045
 6450TIP3    H219315   5.395   3.325   4.671  0.3371  0.9858 -0.1200
 6451TIP3   OH219316   2.824   1.854   3.887 -0.3785  0.5563 -0.1744
 6451TIP3    H119317   2.849   1.808   3.806 -1.4966 -0.8613  0.2559
 6451TIP3    H219318   2.884   1.820   3.953 -0.4215  0.6112 -0.1078
 6452TIP3   OH219319   2.819   0.518   0.720  0.4920  0.1177 -0.0823
 6452TIP3    H119320   2.792   0.451   0.783 -1.8295  0.1418 -0.9566
 6452TIP3    H219321   2.854   0.589   0.773 -0.5708 -0.2425  1.1452
 6453TIP3   OH219322   3.581   4.587   4.923 -0.4770  0.2157  0.2910
 6453TIP3    H119323   3.524   4.614   4.851  0.1679 -0.2328 -0.3997
 6453TIP3    H219324   3.546   4.503   4.952 -0.3963  0.1272  0.1289
 6454TIP3   OH219325   1.731   5.161   1.916 -0.1611 -0.0318  0.1519
 6454TIP3    H119326   1.652   5.188   1.962 -0.5798  0.1253 -0.6292
 6454TIP3    H219327   1.791   5.131   1.984  0.1464  2.4136  1.0305
 6455TIP3   OH219328   1.567   4.856   0.058  0.0454 -0.0681  0.2898
 6455TIP3    H119329   1.569   4.829   0.150  0.7484  0.7765  0.5381
 6455TIP3    H219330   1.635   4.923   0.052 -0.3289  0.2292 -0.7425
 6456TIP3   OH219331   1.152   1.782   5.127  0.5568  0.1394  0.4078
 6456TIP3    H119332   1.204   1.764   5.205  1.3284  0.6213  0.0092
 6456TIP3    H219333   1.191   1.860   5.089 -1.7146  1.7853  1.2091
 6457TIP3   OH219334   0.874   5.119   3.056  0.3330 -0.8622 -0.1931
 6457TIP3    H119335   0.828   5.041   3.084  1.8199 -1.6822  0.1021
 6457TIP3    H219336   0.945   5.086   3.000  1.2474  0.2240  0.2796
 6458TIP3   OH219337   2.890   3.253   0.958 -0.2348 -0.2438  0.8784
 6458TIP3    H119338   2.847   3.183   1.007  1.1013 -1.4463  0.4076
 6458TIP3    H219339   2.856   3.245   0.869  0.0177 -0.3963  0.7932
 6459TIP3   OH219340   2.179   4.787   1.785 -0.3915  0.6782  0.1445
 6459TIP3    H119341   2.273   4.794   1.804 -0.4692  0.6873  0.5495
 6459TIP3    H219342   2.146   4.876   1.793 -0.4468  0.6633  0.0821
 6460TIP3   OH219343   2.775   3.873   1.069 -0.2463 -0.1504  0.0596
 6460TIP3    H119344   2.754   3.913   0.985 -1.2221 -1.1089 -0.1688
 6460TIP3    H219345   2.825   3.940   1.116 -1.8497  1.3564 -0.2990
 6461TIP3   OH219346   6.414   4.427   2.959 -0.0354 -0.6141 -0.1600
 6461TIP3    H119347   6.371   4.343   2.979 -0.1423 -0.0888  2.1288
 6461TIP3    H219348   6.393   4.482   3.034  0.2606  1.4014 -1.4963
 6462TIP3   OH219349   7.189   2.999   0.773  0.1383  0.2842  0.2692
 6462TIP3    H119350   7.126   2.983   0.843  1.5770 -0.2032  1.4778
 6462TIP3    H219351   7.196   3.094   0.769 -2.2777  0.5009 -1.3990
 6463TIP3   OH219352   5.154   1.429   1.040  0.1468 -0.7412 -0.2927
 6463TIP3    H119353   5.174   1.522   1.052 -2.2359 -0.1985 -0.1756
 6463TIP3    H219354   5.160   1.415   0.946  1.2027 -0.6744 -0.2524
 6464TIP3   OH219355   2.513   1.112   1.642 -0.2662  0.4074  0.1542
 6464TIP3    H119356   2.470   1.037   1.602  0.2866 -0.1403  0.5661
 6464TIP3    H219357   2.442   1.165   1.678 -0.6050 -0.4094  0.7086
 6465TIP3   OH219358   5.165   6.379   4.510 -0.9846 -0.3759 -0.0295
 6465TIP3    H119359   5.176   6.458   4.457 -0.9275 -0.4316 -0.1004
 6465TIP3    H219360   5.253   6.356   4.538 -1.0441 -0.1744  0.3435
 6466TIP3   OH219361   6.863   0.444   5.174 -0.3492  0.2094  0.0280
 6466TIP3    H119362   6.820   0.484   5.251 -1.1882 -0.0248 -0.3112
 6466TIP3    H219363   6.880   0.354   5.201 -0.1086  0.2888  0.1451
 6467TIP3   OH219364   5.357   3.367   3.387  0.2352 -0.0885 -0.5756
 6467TIP3    H119365   5.358   3.454   3.347 -1.8481 -0.1752 -0.9380
 6467TIP3    H219366   5.401   3.311   3.323  1.0293  0.5808 -0.6293
 6468TIP3   OH219367   3.046   1.587   0.183 -0.2063 -0.5655 -0.0916
 6468TIP3    H119368   3.042   1.637   0.102  1.9968  0.2140  0.2228
 6468TIP3    H219369   3.139   1.566   0.194 -0.3187  0.0272  2.6030
 6469TIP3   OH219370   6.384   6.398   0.468  0.2801  0.2250  0.1964
 6469TIP3    H119371   6.462   6.422   0.418  0.4816 -0.7020  0.0614
 6469TIP3    H219372   6.322   6.469   0.450  0.9544  0.7778  0.0122
 6470TIP3   OH219373   5.717   1.975   1.416  1.0284 -0.1289 -0.2527
 6470TIP3    H119374   5.730   2.029   1.338 -0.4184 -1.2321 -1.3002
 6470TIP3    H219375   5.631   1.999   1.449  1.8152  0.6780  1.3441
 6471TIP3   OH219376   6.431   5.641   4.025  0.5398 -0.2697  0.4766
 6471TIP3    H119377   6.477   5.570   4.068 -1.5784 -0.8034  1.9909
 6471TIP3    H219378   6.427   5.711   4.091 -0.2190  0.0037  0.1584
 6472TIP3   OH219379   5.498   3.991   3.819 -0.3554  0.9200  0.5455
 6472TIP3    H119380   5.436   3.964   3.751  0.6989  1.8037 -0.8281
 6472TIP3    H219381   5.503   3.917   3.878 -0.8776 -0.1220 -0.6686
 6473TIP3   OH219382   1.953   1.747   2.766 -0.0026  0.8422 -0.6018
 6473TIP3    H119383   1.928   1.656   2.754 -2.2298  1.2795  0.3430
 6473TIP3    H219384   1.871   1.793   2.784  1.0780  3.0166 -0.8916
 6474TIP3   OH219385   0.170   1.416   1.507  0.2104  0.5896 -0.4259
 6474TIP3    H119386   0.205   1.504   1.522 -0.5426  1.3717 -2.8294
 6474TIP3    H219387   0.221   1.383   1.433  0.4580 -1.0217  0.4306
 6475TIP3   OH219388   4.435   3.016   1.106 -0.0256  0.4158 -0.0272
 6475TIP3    H119389   4.366   2.949   1.107 -0.9254  1.3135  0.0661
 6475TIP3    H219390   4.488   2.996   1.183 -0.5475  0.0696  0.2540
 6476TIP3   OH219391   6.839   3.298   5.706 -0.5837 -0.0106 -0.2353
 6476TIP3    H119392   6.871   3.383   5.736  0.9016 -0.7658  0.4355
 6476TIP3    H219393   6.748   3.296   5.735 -0.0713  0.5406  1.5936
 6477TIP3   OH219394   1.792   3.369   4.995 -0.1602  0.0652  0.3308
 6477TIP3    H119395   1.799   3.418   5.077 -1.5274  0.7949  0.0378
 6477TIP3    H219396   1.857   3.409   4.938 -0.5098  0.8332  0.4553
 6478TIP3   OH219397   0.822   0.309   3.602  0.0216 -0.2251  0.0044
 6478TIP3    H119398   0.736   0.334   3.636 -0.6492 -0.8330 -1.1719
 6478TIP3    H219399   0.884   0.361   3.652 -1.1267  1.2731 -0.0678
 6479TIP3   OH219400   3.866   4.261   5.107  0.0321  0.9967  0.0420
 6479TIP3    H119401   3.898   4.171   5.106 -2.5357 -0.1085 -3.1712
 6479TIP3    H219402   3.796   4.261   5.172  1.1187  1.1913  1.2417
 6480TIP3   OH219403   2.878   4.381   2.254 -0.2496  0.0284 -0.3737
 6480TIP3    H119404   2.908   4.301   2.211  0.6211  0.3472 -0.3768
 6480TIP3    H219405   2.782   4.378   2.247 -0.1992 -0.7758 -0.7849
 6481TIP3   OH219406   1.050   4.970   3.449 -0.0260 -0.1747 -0.4367
 6481TIP3    H119407   1.055   4.902   3.382  0.3691 -0.1697 -0.4155
 6481TIP3    H219408   1.043   4.921   3.532  0.0236 -0.1857 -0.4391
 6482TIP3   OH219409   2.492   6.530   5.519 -0.3773  0.2759 -0.0200
 6482TIP3    H119410   2.493   6.437   5.542 -1.8023  0.4909  1.0449
 6482TIP3    H219411   2.578   6.562   5.546 -0.5840 -0.3362  1.4521
 6483TIP3   OH219412   0.541   5.475   4.329 -0.2471 -0.0911  0.4259
 6483TIP3    H119413   0.589   5.435   4.401 -0.1975 -0.1021  0.3871
 6483TIP3    H219414   0.597   5.546   4.299 -0.6139  0.4018  0.8968
 6484TIP3   OH219415   7.080   3.379   0.406  0.4585 -0.3809 -0.4559
 6484TIP3    H119416   6.988   3.378   0.382 -0.9091 -0.2519  3.8458
 6484TIP3    H219417   7.105   3.471   0.401 -1.3056  0.4628  2.8698
 6485TIP3   OH219418   3.608   3.116   0.823 -0.1841  0.1631 -0.1070
 6485TIP3    H119419   3.590   3.027   0.855 -0.6993  0.4359  0.3791
 6485TIP3    H219420   3.693   3.109   0.779 -0.1879 -0.5551 -0.0114
 6486TIP3   OH219421   4.433   5.270   2.682 -0.3312  0.0986  0.3917
 6486TIP3    H119422   4.412   5.309   2.597  4.6129 -0.4916 -1.4041
 6486TIP3    H219423   4.486   5.336   2.726 -0.2892 -0.8041  1.7412
 6487TIP3   OH219424   6.360   1.666   5.470 -0.0919 -0.0814  0.0701
 6487TIP3    H119425   6.365   1.658   5.565  0.6510 -0.6757 -0.0037
 6487TIP3    H219426   6.276   1.625   5.446 -1.8993  2.9755  0.7177
 6488TIP3   OH219427   5.730   6.215   4.702  0.0339  0.0294 -0.1442
 6488TIP3    H119428   5.788   6.283   4.735  2.0051 -0.9395 -1.4175
 6488TIP3    H219429   5.783   6.135   4.704 -1.2711 -0.9151 -1.3182
 6489TIP3   OH219430   4.850   5.503   2.890 -0.0230 -0.5345  0.0543
 6489TIP3    H119431   4.872   5.411   2.903  0.0672 -0.7816 -1.6547
 6489TIP3    H219432   4.913   5.534   2.825 -0.4607  0.5607  0.1277
 6490TIP3   OH219433   3.632   4.006   0.026  0.0957 -0.4758  0.7961
 6490TIP3    H119434   3.594   3.922   0.052  0.8610 -0.8920  0.6111
 6490TIP3    H219435   3.713   4.013   0.077  1.5089 -1.1986 -1.2184
 6491TIP3   OH219436   2.203   0.700   3.203 -0.1601  0.3515 -0.8008
 6491TIP3    H119437   2.249   0.617   3.194  0.9754  1.0831 -2.2015
 6491TIP3    H219438   2.269   0.761   3.233 -0.1034  1.4527 -2.9624
 6492TIP3   OH219439   1.205   2.218   3.138 -0.5003 -0.4831 -0.1075
 6492TIP3    H119440   1.168   2.219   3.049  0.7303 -2.0245 -0.6848
 6492TIP3    H219441   1.239   2.307   3.150  0.2231 -0.5142 -1.6069
 6493TIP3   OH219442   2.434   1.146   5.543  0.4293 -0.0830 -0.0144
 6493TIP3    H119443   2.446   1.224   5.596  2.1566 -0.2439 -0.1338
 6493TIP3    H219444   2.361   1.168   5.484 -0.0099  0.9101  0.8736
 6494TIP3   OH219445   4.076   4.706   0.359  0.9728 -0.6612  0.0777
 6494TIP3    H119446   4.099   4.684   0.269  1.2670  0.3989 -0.1184
 6494TIP3    H219447   4.147   4.763   0.389  0.6757 -0.6833  0.8535
 6495TIP3   OH219448   2.034   2.253   5.802  0.0244 -0.4398  0.4147
 6495TIP3    H119449   2.074   2.180   5.754  0.3522  0.2403 -0.3657
 6495TIP3    H219450   1.959   2.278   5.748  0.5317  0.4838  0.1178
 6496TIP3   OH219451   2.478   5.070   4.540  0.4473 -0.0895  0.1479
 6496TIP3    H119452   2.510   4.987   4.576 -0.7148  0.0211  1.5011
 6496TIP3    H219453   2.554   5.128   4.540  0.6063 -0.2649  1.9347
 6497TIP3   OH219454   5.498   5.164   5.857 -0.1274 -0.0187 -0.1802
 6497TIP3    H119455   5.572   5.204   5.811 -0.8259 -0.5550 -1.8502
 6497TIP3    H219456   5.426   5.166   5.794 -1.5345  0.4041  1.3723
 6498TIP3   OH219457   4.011   4.602   5.419  0.7072  0.5155  0.0738
 6498TIP3    H119458   4.060   4.622   5.340  2.5340  0.5387  1.1564
 6498TIP3    H219459   4.001   4.686   5.464 -1.0313  0.6396 -0.4727
 6499TIP3   OH219460   0.520   4.367   5.192  0.0305 -0.0434 -0.3919
 6499TIP3    H119461   0.427   4.363   5.214  0.3534 -1.5836  0.8774
 6499TIP3    H219462   0.559   4.419   5.261  0.2616 -0.3044 -0.3233
 6500TIP3   OH219463   2.238   0.405   3.286  0.2571  0.2576  0.3530
 6500TIP3    H119464   2.324   0.416   3.328  0.1283  0.0444  0.6736
 6500TIP3    H219465   2.255   0.418   3.192  1.0031 -1.7586  0.1680
 6501TIP3   OH219466   2.320   6.564   3.101  0.9304  0.1135  0.2885
 6501TIP3    H119467   2.324   6.585   3.008  0.2088  2.0184  0.6425
 6501TIP3    H219468   2.399   6.512   3.117 -0.6156 -3.2059 -2.0021
 6502TIP3   OH219469   0.467   5.079   2.400  0.0623  0.0659  0.0089
 6502TIP3    H119470   0.509   5.071   2.486  0.7169 -0.1767 -0.3290
 6502TIP3    H219471   0.538   5.105   2.341 -0.2047 -0.6166 -0.6219
 6503TIP3   OH219472   1.115   6.046   0.776 -0.5488 -0.0037 -0.1623
 6503TIP3    H119473   1.190   6.090   0.735  0.3918 -1.5516 -0.1867
 6503TIP3    H219474   1.139   6.041   0.868  0.1262 -1.8294 -0.3886
 6504TIP3   OH219475   5.948   2.725   2.355 -0.4737 -0.0282  0.0877
 6504TIP3    H119476   5.896   2.653   2.319 -0.9011  1.1719 -1.8563
 6504TIP3    H219477   6.039   2.700   2.339 -0.4947 -1.1984  1.6327
 6505TIP3   OH219478   4.032   1.530   0.716  0.3309  0.5140  0.1317
 6505TIP3    H119479   4.052   1.466   0.649  0.5994  0.5729  0.1555
 6505TIP3    H219480   4.074   1.611   0.687  0.6992  0.4649  0.5133
 6506TIP3   OH219481   7.027   2.212   0.014  0.5512 -1.1391  0.6135
 6506TIP3    H119482   6.945   2.254  -0.011  0.4951 -1.7165 -0.2109
 6506TIP3    H219483   7.006   2.163   0.094  0.1625 -1.0905  0.5400
 6507TIP3   OH219484   2.815   6.389   2.780 -0.2682 -0.2042  0.0029
 6507TIP3    H119485   2.798   6.395   2.686 -2.8743  1.4517  0.4668
 6507TIP3    H219486   2.762   6.314   2.809  1.0880 -1.1571  0.0824
 6508TIP3   OH219487   1.719   3.829   1.704 -0.2452  0.1503 -0.4516
 6508TIP3    H119488   1.643   3.785   1.665  0.2308 -0.8596 -0.2763
 6508TIP3    H219489   1.709   3.921   1.678 -0.5677 -0.2739 -1.9657
 6509TIP3   OH219490   0.983   2.990   2.948  0.0025 -0.4811  0.8622
 6509TIP3    H119491   1.016   3.040   3.023  0.6282  1.5128 -0.6554
 6509TIP3    H219492   0.909   3.042   2.916  0.1189 -0.9840 -0.2541
 6510TIP3   OH219493   1.784   2.826   4.661 -0.4361  0.3771  0.8015
 6510TIP3    H119494   1.875   2.855   4.663  0.0341 -0.9028 -0.4253
 6510TIP3    H219495   1.755   2.846   4.572 -1.0208 -0.1844  0.8663
 6511TIP3   OH219496   2.223   0.725   5.108 -0.2460  0.3465 -0.0130
 6511TIP3    H119497   2.192   0.674   5.033  1.7079 -1.7837  0.5021
 6511TIP3    H219498   2.283   0.666   5.153  3.3423  3.5462 -0.1231
 6512TIP3   OH219499   4.921   6.478   2.264  0.3322  0.2152  0.2523
 6512TIP3    H119500   4.865   6.553   2.242  1.0095  0.3430 -1.0984
 6512TIP3    H219501   4.874   6.402   2.229  0.6457  0.2443 -0.2398
 6513TIP3   OH219502   0.811   2.738   4.758 -0.3628  0.1801  0.2300
 6513TIP3    H119503   0.844   2.784   4.835  0.2327 -1.4128  0.9540
 6513TIP3    H219504   0.865   2.771   4.686  1.2075 -0.5773  1.0050
 6514TIP3   OH219505   0.544   1.167   1.886 -0.1390  0.3549 -0.0563
 6514TIP3    H119506   0.588   1.246   1.916  0.0744  0.1892  0.0740
 6514TIP3    H219507   0.596   1.095   1.924 -1.8650  0.1355  2.1029
 6515TIP3   OH219508   5.630   5.993   2.634  0.0842 -0.5181 -0.7218
 6515TIP3    H119509   5.662   5.972   2.546 -2.1659 -2.0832 -1.2413
 6515TIP3    H219510   5.665   5.922   2.689  2.7016  1.2240  0.0383
 6516TIP3   OH219511   5.873   3.801   1.677  0.0523  0.4341 -0.3302
 6516TIP3    H119512   5.827   3.719   1.661  0.1347 -0.0102  1.4558
 6516TIP3    H219513   5.883   3.804   1.772  0.9573  2.0276 -0.4458
 6517TIP3   OH219514   6.195   4.628   5.861  0.0707  0.1033  0.8646
 6517TIP3    H119515   6.188   4.696   5.794  0.0989 -1.3364 -0.6413
 6517TIP3    H219516   6.287   4.631   5.888  0.6257 -0.8134 -0.8275
 6518TIP3   OH219517   6.962   2.942   3.583  0.6717 -0.5252  0.1923
 6518TIP3    H119518   6.871   2.916   3.567  0.0850  1.3412  0.2525
 6518TIP3    H219519   7.008   2.917   3.503 -0.4166  0.6385 -0.8543
 6519TIP3   OH219520   5.716   0.887   2.925 -0.1105  0.4664  0.0027
 6519TIP3    H119521   5.622   0.896   2.937  0.0979  0.4156  2.0200
 6519TIP3    H219522   5.747   0.977   2.915 -0.3965  0.4553 -1.1507
 6520TIP3   OH219523   6.490   4.233   5.843  0.2125  0.1239 -0.1801
 6520TIP3    H119524   6.443   4.153   5.868 -0.4063  0.6526  0.3678
 6520TIP3    H219525   6.432   4.276   5.780 -0.2985  1.0203  0.8609
 6521TIP3   OH219526   3.490   3.246   1.051  0.0527 -0.4313 -0.3452
 6521TIP3    H119527   3.399   3.222   1.034 -0.1394  0.0027  0.0530
 6521TIP3    H219528   3.539   3.204   0.980 -0.5923  0.3191 -1.2716
 6522TIP3   OH219529   3.581   3.001   4.241  0.5768 -0.1320  0.1529
 6522TIP3    H119530   3.653   2.963   4.291  1.1100  0.5735 -0.0618
 6522TIP3    H219531   3.552   3.076   4.294 -0.5501 -0.8897  0.6412
 6523TIP3   OH219532   4.786   2.772   5.436 -0.0303 -0.1079 -0.1927
 6523TIP3    H119533   4.786   2.787   5.341 -0.1938 -1.1590 -0.3792
 6523TIP3    H219534   4.863   2.818   5.468 -0.3920  0.8908 -0.7255
 6524TIP3   OH219535   5.445   1.021   1.414 -0.0210 -0.0917  0.1614
 6524TIP3    H119536   5.442   0.985   1.503 -1.5578  1.6181  0.8695
 6524TIP3    H219537   5.389   0.963   1.363 -0.5336 -0.1208  0.7376
 6525TIP3   OH219538   7.084   5.110   5.643  0.2090  0.9704  0.0216
 6525TIP3    H119539   7.046   5.026   5.667  0.8902  0.6555  0.0146
 6525TIP3    H219540   7.047   5.129   5.556 -1.2669  1.5052  0.7340
 6526TIP3   OH219541   4.457   0.644   0.220  0.0410  0.4429 -0.0902
 6526TIP3    H119542   4.461   0.592   0.301  1.2262  0.1297 -0.3384
 6526TIP3    H219543   4.507   0.594   0.157  0.7652  1.6305 -0.4876
 6527TIP3   OH219544   4.139   5.040   3.630 -0.1314 -0.7433  0.3490
 6527TIP3    H119545   4.070   4.979   3.602  0.4180 -1.0657 -0.3443
 6527TIP3    H219546   4.153   5.096   3.554  0.9688 -1.2408  0.1630
 6528TIP3   OH219547   5.687   6.707   4.029 -0.0060  0.0906  0.6497
 6528TIP3    H119548   5.648   6.763   4.096 -0.9627  0.0059  0.1880
 6528TIP3    H219549   5.675   6.618   4.061  0.5701  0.0989  0.8951
 6529TIP3   OH219550   5.718   6.514   0.143 -0.3519 -0.2356 -0.0263
 6529TIP3    H119551   5.626   6.488   0.147  0.3568 -3.0845  0.0242
 6529TIP3    H219552   5.716   6.607   0.121 -3.2244 -0.1874  0.0977
 6530TIP3   OH219553   5.988   0.534   1.625  0.1408  0.1035  1.1212
 6530TIP3    H119554   6.082   0.531   1.608  0.0997 -1.5662  1.0528
 6530TIP3    H219555   5.966   0.447   1.659 -1.5848  0.0394 -0.0084
 6531TIP3   OH219556   2.709   3.652   1.901  1.0344  0.3300 -0.7256
 6531TIP3    H119557   2.636   3.706   1.872  1.9519  0.6782 -2.4912
 6531TIP3    H219558   2.691   3.637   1.994 -0.3081  1.9552 -0.6618
 6532TIP3   OH219559   2.122   3.980   3.159  0.8464  0.7164 -0.1280
 6532TIP3    H119560   2.093   4.070   3.148  1.3371  1.3102  2.5665
 6532TIP3    H219561   2.218   3.985   3.151  0.9530  0.6558  0.8617
 6533TIP3   OH219562   6.467   3.465   4.045 -0.0990  0.1053  0.2584
 6533TIP3    H119563   6.537   3.400   4.040  0.0945  0.1768  1.6243
 6533TIP3    H219564   6.420   3.443   4.126  0.2415  1.9143  0.9904
 6534TIP3   OH219565   4.806   3.237   4.029  0.1678  0.0788 -0.1741
 6534TIP3    H119566   4.785   3.173   3.961  3.6539 -1.3257 -0.0960
 6534TIP3    H219567   4.830   3.316   3.981  1.5322 -0.5576 -0.5853
 6535TIP3   OH219568   1.830   2.002   4.159  0.3517 -0.3369  0.0536
 6535TIP3    H119569   1.853   2.093   4.141  0.2701 -0.5217 -1.0352
 6535TIP3    H219570   1.878   1.980   4.239 -1.4041  1.3634  1.6814
 6536TIP3   OH219571   2.925   1.635   1.996  0.0523  0.0177  0.3546
 6536TIP3    H119572   2.938   1.730   1.990  1.2822 -0.1155  0.4977
 6536TIP3    H219573   3.007   1.603   2.034 -0.8948 -0.9545  1.6996
 6537TIP3   OH219574   2.980   1.120   1.062 -0.0847 -0.0008  0.2965
 6537TIP3    H119575   2.935   1.141   1.144 -1.8308 -1.8068 -0.1176
 6537TIP3    H219576   2.925   1.160   0.994 -0.3977 -1.1560 -0.1480
 6538TIP3   OH219577   5.876   3.377   0.117  0.0009  0.1728  0.0332
 6538TIP3    H119578   5.787   3.404   0.093 -0.1653 -0.4980 -0.1211
 6538TIP3    H219579   5.882   3.286   0.090  0.5978  0.0821  0.4446
 6539TIP3   OH219580   3.936   4.340   5.361 -0.3756 -0.4869  0.3582
 6539TIP3    H119581   3.935   4.427   5.400  0.1392 -0.8298  1.1697
 6539TIP3    H219582   3.910   4.353   5.270  0.8099  0.6652  0.1646
 6540TIP3   OH219583   1.577   2.625   0.054 -0.0557  0.1726  0.0800
 6540TIP3    H119584   1.571   2.579   0.138 -1.0297  1.6905  0.8879
 6540TIP3    H219585   1.572   2.718   0.077  0.8987  0.6827 -1.5700
 6541TIP3   OH219586   0.848   1.227   2.209 -0.0174 -0.3230 -0.6217
 6541TIP3    H119587   0.802   1.156   2.165  0.8074 -0.2834 -1.5822
 6541TIP3    H219588   0.783   1.263   2.269 -1.0948 -0.5771 -1.5799
 6542TIP3   OH219589   5.380   2.375   4.730  0.1004 -0.2811 -0.4629
 6542TIP3    H119590   5.475   2.368   4.733  0.0520 -0.8354  1.5633
 6542TIP3    H219591   5.360   2.404   4.642  2.2747  1.7161 -0.3677
 6543TIP3   OH219592   6.348   4.648   2.676 -0.4601  0.6330  0.5135
 6543TIP3    H119593   6.296   4.713   2.723 -1.5244  0.4978 -0.4097
 6543TIP3    H219594   6.368   4.689   2.592  3.0858  1.6442  1.6880
 6544TIP3   OH219595   0.407   5.222   0.309 -0.5021 -0.4232 -0.1647
 6544TIP3    H119596   0.370   5.276   0.240 -0.2257  0.5994  0.4640
 6544TIP3    H219597   0.486   5.269   0.337 -0.4042 -1.0079  0.5882
 6545TIP3   OH219598   1.125   1.134   2.943  0.1601  0.8280  0.3756
 6545TIP3    H119599   1.144   1.142   3.036  1.9872  2.2585 -0.0725
 6545TIP3    H219600   1.088   1.219   2.919 -0.0646  0.5550 -0.2629
 6546TIP3   OH219601   6.831   3.364   0.322 -0.1681  0.1013 -0.1976
 6546TIP3    H119602   6.774   3.439   0.336  1.2073  1.2254 -0.3312
 6546TIP3    H219603   6.772   3.292   0.300 -1.7239  0.5753  2.0376
 6547TIP3   OH219604   2.543   0.650   0.015  0.4346 -0.0544  0.7244
 6547TIP3    H119605   2.610   0.698   0.063  0.4091 -0.9060  1.6543
 6547TIP3    H219606   2.461   0.692   0.040  0.6574  1.9141 -1.5128
 6548TIP3   OH219607   0.965   6.000   0.272 -0.2870  0.3908  0.0572
 6548TIP3    H119608   0.945   6.086   0.234 -2.5552 -0.5214 -0.9668
 6548TIP3    H219609   1.050   5.977   0.235  0.4343  2.2454  0.4774
 6549TIP3   OH219610   4.101   5.796   5.828  0.5641 -0.1180  0.0521
 6549TIP3    H119611   4.096   5.889   5.850  1.9804  0.1430 -0.5891
 6549TIP3    H219612   4.093   5.751   5.912 -0.7320  0.5407  0.3045
 6550TIP3   OH219613   0.624   2.833   4.226  0.1175  0.3852  0.0001
 6550TIP3    H119614   0.610   2.781   4.147  0.8150 -0.6121  0.5084
 6550TIP3    H219615   0.536   2.856   4.256 -0.1673  0.2701 -0.7335
 6551TIP3   OH219616   3.309   2.382   4.136 -0.0707 -0.2567 -0.3105
 6551TIP3    H119617   3.404   2.370   4.124  0.6856  4.3105 -0.6989
 6551TIP3    H219618   3.294   2.366   4.229  1.4657  0.6313  0.1235
 6552TIP3   OH219619   3.285   0.116   5.834 -0.3665  0.1296  0.6405
 6552TIP3    H119620   3.341   0.088   5.762  0.4072 -0.1300  1.3309
 6552TIP3    H219621   3.211   0.055   5.831  0.3689 -0.8055  0.9442
 6553TIP3   OH219622   6.312   3.380   3.199  0.2848 -0.3627 -0.4352
 6553TIP3    H119623   6.282   3.348   3.114  1.3672 -2.1213 -0.2153
 6553TIP3    H219624   6.352   3.465   3.181  0.1344 -0.5267 -1.6007
 6554TIP3   OH219625   6.150   4.147   0.238  0.2117  0.3714  0.2522
 6554TIP3    H119626   6.097   4.130   0.316  0.4406  0.2807  0.3873
 6554TIP3    H219627   6.085   4.162   0.169  0.0076  0.6609  0.5022
 6555TIP3   OH219628   0.577   5.564   5.558  0.2728 -0.0772  0.0630
 6555TIP3    H119629   0.635   5.641   5.552 -0.0236  0.2188  0.8432
 6555TIP3    H219630   0.493   5.595   5.525 -0.1089  0.2297  1.2676
 6556TIP3   OH219631   7.222   3.391   2.069 -0.3579  0.2983  0.3147
 6556TIP3    H119632   7.188   3.314   2.024  2.5233 -0.9579  0.1188
 6556TIP3    H219633   7.170   3.395   2.150 -1.4791 -0.9972 -0.2909
 6557TIP3   OH219634   7.040   1.397   1.311  1.2700 -0.5295  0.4381
 6557TIP3    H119635   7.013   1.312   1.278  1.1587 -0.4278  0.2629
 6557TIP3    H219636   7.129   1.384   1.345  0.8814 -0.9494  1.3294
 6558TIP3   OH219637   4.385   2.780   5.804  0.0860 -0.6255  0.1506
 6558TIP3    H119638   4.462   2.795   5.748  0.0072  0.3678  0.2987
 6558TIP3    H219639   4.340   2.864   5.806 -1.0568 -1.2282  0.0095
 6559TIP3   OH219640   3.779   3.839   0.687  0.2159  0.5089  0.4367
 6559TIP3    H119641   3.749   3.789   0.612  0.0751  2.0154 -0.5588
 6559TIP3    H219642   3.867   3.806   0.705  1.1007  1.4624 -1.7178
 6560TIP3   OH219643   2.292   1.069   2.904 -0.2764  0.0794 -0.3012
 6560TIP3    H119644   2.358   1.131   2.932  0.4848 -0.7460 -0.2242
 6560TIP3    H219645   2.339   1.006   2.849 -0.6437 -1.4515  1.0492
 6561TIP3   OH219646   7.152   2.886   3.414 -0.0105  0.0477  0.4883
 6561TIP3    H119647   7.151   2.850   3.325  2.2848  0.4789  0.2079
 6561TIP3    H219648   7.189   2.974   3.403 -0.0896  0.2661  1.8303
 6562TIP3   OH219649   0.628   3.695   0.270  0.0677 -0.2284  0.1170
 6562TIP3    H119650   0.608   3.755   0.342 -0.1349  0.0054 -0.1333
 6562TIP3    H219651   0.542   3.670   0.235  0.1159 -1.2335  0.6793
 6563TIP3   OH219652   3.405   1.357   2.210 -0.1385 -0.2946  0.0440
 6563TIP3    H119653   3.374   1.267   2.213  1.7285 -1.0622 -1.8217
 6563TIP3    H219654   3.381   1.393   2.296 -4.0128 -1.4255 -0.3884
 6564TIP3   OH219655   1.903   3.525   4.561 -0.4581 -0.4450 -0.3377
 6564TIP3    H119656   1.907   3.429   4.567 -0.4630 -0.4741 -0.7401
 6564TIP3    H219657   1.885   3.542   4.468  0.8128 -0.0158 -0.5276
 6565TIP3   OH219658   2.845   4.305   3.205 -0.0531 -0.4900 -0.5017
 6565TIP3    H119659   2.755   4.295   3.236 -0.0567 -0.3503 -0.4648
 6565TIP3    H219660   2.894   4.336   3.282 -0.3281  1.1761 -0.9591
 6566TIP3   OH219661   6.288   2.439   2.921  0.0837  0.9461  0.0721
 6566TIP3    H119662   6.268   2.346   2.934 -2.4338  1.2568 -0.9494
 6566TIP3    H219663   6.330   2.466   3.002  1.2529 -1.1483  0.2341
 6567TIP3   OH219664   2.247   3.666   4.290  0.1112  0.2867 -0.3363
 6567TIP3    H119665   2.299   3.655   4.369  1.7509 -0.4458 -1.4613
 6567TIP3    H219666   2.306   3.643   4.218 -1.8491 -0.9645 -1.6802
 6568TIP3   OH219667   4.013   2.556   4.924 -0.1555  0.3301 -0.4732
 6568TIP3    H119668   4.023   2.499   5.000 -2.7768 -0.5532 -0.7087
 6568TIP3    H219669   4.092   2.611   4.925  2.2885 -2.9048  0.0249
 6569TIP3   OH219670   0.286   3.471   5.624  0.3807 -0.0430 -0.2873
 6569TIP3    H119671   0.246   3.390   5.655 -1.0591  0.7081 -0.0711
 6569TIP3    H219672   0.272   3.470   5.529  0.2188  0.0099 -0.2654
 6570TIP3   OH219673   6.199   6.519   4.351  0.0128 -0.6291 -0.1707
 6570TIP3    H119674   6.110   6.503   4.319 -0.0487  0.0248 -0.3569
 6570TIP3    H219675   6.255   6.464   4.295 -0.2541 -0.8763 -0.1959
 6571TIP3   OH219676   1.668   2.657   5.495  0.2129 -0.1920 -0.3647
 6571TIP3    H119677   1.580   2.619   5.503 -0.3167  0.8583 -0.9516
 6571TIP3    H219678   1.673   2.720   5.567  0.7434 -0.7331  0.0717
 6572TIP3   OH219679   3.725   4.602   5.711  0.1413 -0.7291 -0.0104
 6572TIP3    H119680   3.766   4.672   5.659 -2.4370  2.1578  1.4863
 6572TIP3    H219681   3.788   4.584   5.780  0.4726  0.9613  0.1829
 6573TIP3   OH219682   4.340   2.033   5.087  0.4804  0.3228  0.1858
 6573TIP3    H119683   4.314   1.975   5.016  2.8846  0.3064 -0.7876
 6573TIP3    H219684   4.346   2.120   5.047  1.8950  0.3068  0.3026
 6574TIP3   OH219685   3.656   1.770   4.492  0.5650  0.1175 -0.0382
 6574TIP3    H119686   3.613   1.761   4.577  0.3911 -0.6104 -0.1998
 6574TIP3    H219687   3.595   1.732   4.429  0.6699  0.6991 -0.5022
 6575TIP3   OH219688   3.657   2.785   2.074 -0.5604  0.4553  0.2335
 6575TIP3    H119689   3.563   2.770   2.060 -0.3610  0.0682 -0.7390
 6575TIP3    H219690   3.666   2.880   2.075 -0.7813  0.4990 -1.0105
 6576TIP3   OH219691   4.181   5.196   3.417  0.0110 -0.7312 -0.1583
 6576TIP3    H119692   4.263   5.223   3.375  0.7103 -0.5615  1.2624
 6576TIP3    H219693   4.124   5.272   3.409  0.1618 -0.6730 -0.7230
 6577TIP3   OH219694   6.828   5.927   1.162 -0.6438 -0.2645  0.4896
 6577TIP3    H119695   6.765   5.894   1.098 -2.0288  1.1186  1.0767
 6577TIP3    H219696   6.914   5.905   1.126 -1.3929  0.1543 -1.6419
 6578TIP3   OH219697   2.053   0.413   5.027 -0.0894 -0.7440  0.1495
 6578TIP3    H119698   2.076   0.402   5.119 -0.1426 -0.1119  0.2463
 6578TIP3    H219699   2.135   0.439   4.985 -0.6780  2.2332  0.6224
 6579TIP3   OH219700   0.558   4.917   2.931 -0.3436 -0.1330  0.6384
 6579TIP3    H119701   0.532   4.834   2.892  0.3701  0.5294 -1.4264
 6579TIP3    H219702   0.647   4.902   2.964 -0.4125 -0.3305  0.7311
 6580TIP3   OH219703   1.978   2.473   4.778 -0.4275 -0.0573 -0.1078
 6580TIP3    H119704   1.889   2.508   4.781 -0.4211  0.1433 -1.6552
 6580TIP3    H219705   2.018   2.504   4.859 -1.8712 -0.4824  0.8108
 6581TIP3   OH219706   2.443   0.727   0.743 -0.1361  0.6350 -0.1309
 6581TIP3    H119707   2.402   0.791   0.686  0.7320  0.8094 -0.5609
 6581TIP3    H219708   2.453   0.772   0.827 -2.4725  0.0127  0.5539
 6582TIP3   OH219709   4.930   5.325   1.147  0.7876  0.4858  0.4041
 6582TIP3    H119710   4.931   5.235   1.179 -2.7376  0.6394  1.2863
 6582TIP3    H219711   4.974   5.320   1.061 -0.7025 -2.3963 -0.3211
 6583TIP3   OH219712   0.949   5.057   1.217  0.2012 -0.1618  0.6332
 6583TIP3    H119713   0.975   5.046   1.125  1.4375  0.9481  0.8177
 6583TIP3    H219714   0.985   4.981   1.262  0.1887 -0.3523  0.3250
 6584TIP3   OH219715   7.165   1.017   2.729  0.1184  0.2422  0.2842
 6584TIP3    H119716   7.073   1.031   2.706 -0.2154 -1.0477  0.7599
 6584TIP3    H219717   7.173   0.923   2.743  1.4015  0.3947  0.7753
 6585TIP3   OH219718   0.456   6.259   4.892 -0.2712  0.0264 -0.0276
 6585TIP3    H119719   0.456   6.328   4.959  3.3300 -0.8779  1.1588
 6585TIP3    H219720   0.402   6.294   4.821 -0.3738  3.1232  1.4059
 6586TIP3   OH219721   6.443   2.316   4.533  0.1701 -0.3036 -0.0438
 6586TIP3    H119722   6.515   2.336   4.473 -0.7372  0.0588 -1.0543
 6586TIP3    H219723   6.389   2.253   4.485  0.8233 -2.1127  1.4868
 6587TIP3   OH219724   7.188   3.341   0.646  0.4678 -1.0461  0.5279
 6587TIP3    H119725   7.103   3.352   0.689  0.3981 -0.2816  0.2160
 6587TIP3    H219726   7.171   3.359   0.554  1.2985  0.9735  0.7161
 6588TIP3   OH219727   2.606   1.717   5.006  0.3190 -0.1272  0.3001
 6588TIP3    H119728   2.568   1.728   4.918  1.3670 -2.0032 -0.4562
 6588TIP3    H219729   2.531   1.725   5.065 -0.7028 -0.4067 -0.9082
 6589TIP3   OH219730   6.695   4.556   3.132 -0.5827 -0.8216  1.0186
 6589TIP3    H119731   6.728   4.508   3.207  0.8203 -1.3135  0.1292
 6589TIP3    H219732   6.723   4.646   3.147 -0.6463 -0.8405  1.2581
 6590TIP3   OH219733   4.900   0.591   3.767 -0.2436  0.2746  0.3293
 6590TIP3    H119734   4.866   0.679   3.748  0.3631  0.4354 -0.0530
 6590TIP3    H219735   4.959   0.572   3.694 -0.0998 -0.3079  0.5923
 6591TIP3   OH219736   0.779   2.307   0.453 -0.0570  0.1712  0.5596
 6591TIP3    H119737   0.866   2.338   0.431 -0.2684  0.9895  0.8665
 6591TIP3    H219738   0.724   2.385   0.452 -0.6948 -0.2636  0.8303
 6592TIP3   OH219739   4.436   4.716   5.524 -0.2524 -0.1179  0.6093
 6592TIP3    H119740   4.362   4.776   5.535 -0.4498 -0.4059  0.8556
 6592TIP3    H219741   4.398   4.629   5.536  0.2035 -0.2436  1.1953
 6593TIP3   OH219742   6.973   0.163   2.503  0.0870  0.1185  0.1444
 6593TIP3    H119743   6.923   0.098   2.554 -0.2471 -0.0854 -0.4341
 6593TIP3    H219744   6.979   0.125   2.416  1.1911  0.1860  0.1821
 6594TIP3   OH219745   5.544   4.446   3.457  0.5198 -0.2561 -0.0949
 6594TIP3    H119746   5.605   4.519   3.468 -2.4059  2.7066 -1.7685
 6594TIP3    H219747   5.523   4.446   3.363 -0.1765 -2.8173 -0.0230
 6595TIP3   OH219748   3.206   1.262   0.844  0.3278 -0.2035  1.1715
 6595TIP3    H119749   3.137   1.229   0.902  0.4615 -1.9262  0.4119
 6595TIP3    H219750   3.209   1.199   0.772  0.9086  1.2871 -0.1764
 6596TIP3   OH219751   7.043   1.992   1.581 -0.1839  0.0988 -0.1010
 6596TIP3    H119752   7.027   1.937   1.504 -1.8814  0.8570 -0.3133
 6596TIP3    H219753   6.993   1.950   1.651  0.6418 -0.0873  0.3903
 6597TIP3   OH219754   0.344   5.315   0.568 -0.1727 -0.1240 -0.1250
 6597TIP3    H119755   0.269   5.332   0.511 -0.5818  1.4732  0.8314
 6597TIP3    H219756   0.407   5.269   0.512  0.5058  3.5042 -2.6672
 6598TIP3   OH219757   6.690   1.878   5.114 -0.4130  0.1962  0.3218
 6598TIP3    H119758   6.663   1.892   5.205 -0.0512  1.5398  0.2476
 6598TIP3    H219759   6.781   1.849   5.120 -0.9918 -1.7021  0.4532
 6599TIP3   OH219760   5.300   3.095   4.886  0.8650  0.4367  0.0954
 6599TIP3    H119761   5.218   3.124   4.927  0.2084  0.3845 -1.1284
 6599TIP3    H219762   5.328   3.170   4.835  0.6331 -0.1421 -0.8964
 6600TIP3   OH219763   5.590   0.305   4.001 -0.3500 -0.2292 -0.2423
 6600TIP3    H119764   5.575   0.317   3.907 -0.6291 -0.4094 -0.2213
 6600TIP3    H219765   5.610   0.393   4.033 -2.4832  0.2525 -0.0742
 6601TIP3   OH219766   0.575   6.139   2.632 -0.1018 -0.3035  0.5237
 6601TIP3    H119767   0.529   6.056   2.622  0.6692 -0.6153 -0.6021
 6601TIP3    H219768   0.617   6.154   2.547  0.7319  0.6429  1.0809
 6602TIP3   OH219769   1.167   3.860   2.794 -0.1534  0.4675  0.2149
 6602TIP3    H119770   1.218   3.911   2.731 -0.4977  0.4011 -0.1160
 6602TIP3    H219771   1.233   3.820   2.851  0.1197  1.3780  0.5583
 6603TIP3   OH219772   6.548   0.667   4.395 -0.6634 -0.2005  0.4716
 6603TIP3    H119773   6.537   0.721   4.474 -1.2384  0.5855 -0.1219
 6603TIP3    H219774   6.631   0.697   4.357 -1.2827  0.7379 -0.1887
 6604TIP3   OH219775   6.633   2.427   4.351 -0.5047  0.9871 -0.3868
 6604TIP3    H119776   6.703   2.411   4.414 -2.1205 -0.9209  1.0328
 6604TIP3    H219777   6.606   2.518   4.367  0.0902  0.9888  0.6457
 6605TIP3   OH219778   5.320   4.180   5.349 -0.0663 -0.4961  0.1946
 6605TIP3    H119779   5.257   4.252   5.355  1.9192  1.3751  0.0214
 6605TIP3    H219780   5.372   4.200   5.271  0.9947 -1.7502  0.5321
 6606TIP3   OH219781   6.121   5.535   4.740  0.7424  0.0434  0.0997
 6606TIP3    H119782   6.055   5.486   4.691 -0.6876  0.0435  1.8917
 6606TIP3    H219783   6.152   5.601   4.679  0.1731 -0.9112 -1.2719
 6607TIP3   OH219784   2.783   0.737   0.098  0.6588  0.7016  0.0359
 6607TIP3    H119785   2.852   0.737   0.164  1.8526  1.0780 -1.1548
 6607TIP3    H219786   2.822   0.783   0.023 -0.8717  0.8693 -0.6994
 6608TIP3   OH219787   0.848   2.174   3.200  0.1346 -0.4773 -0.7782
 6608TIP3    H119788   0.918   2.140   3.144  0.1769  0.6424 -1.4233
 6608TIP3    H219789   0.891   2.194   3.283  0.8203  1.1055 -1.4725
 6609TIP3   OH219790   4.973   3.074   4.218 -0.3303 -0.3363 -0.2218
 6609TIP3    H119791   5.062   3.108   4.225 -0.7752  0.7207  0.8691
 6609TIP3    H219792   4.929   3.136   4.159 -1.3005  1.4787  2.2259
 6610TIP3   OH219793   2.159   1.825   0.812 -0.2784 -0.0996 -0.4822
 6610TIP3    H119794   2.237   1.772   0.831 -0.5633 -0.6584 -0.8296
 6610TIP3    H219795   2.194   1.908   0.779  0.1751 -0.0650  0.0647
 6611TIP3   OH219796   3.833   0.353   4.925 -0.4044  0.5492  0.2363
 6611TIP3    H119797   3.894   0.422   4.954 -0.6886 -0.1440  2.7043
 6611TIP3    H219798   3.750   0.378   4.965 -1.4341  0.6949 -1.9024
 6612TIP3   OH219799   4.020   3.784   1.769  0.2375 -0.1792  0.7536
 6612TIP3    H119800   3.954   3.810   1.705  0.3458 -0.4175  0.5417
 6612TIP3    H219801   4.103   3.811   1.729  0.3150 -0.4497  0.7338
 6613TIP3   OH219802   5.919   4.132   2.020  0.4821  0.0983  0.0451
 6613TIP3    H119803   5.963   4.188   1.957  0.2778 -1.3527 -1.4445
 6613TIP3    H219804   5.953   4.160   2.105  2.1052  0.9212 -0.8409
 6614TIP3   OH219805   0.830   4.131   0.946  0.3720  0.1331 -0.2372
 6614TIP3    H119806   0.870   4.051   0.979  0.9069  1.0645  1.5249
 6614TIP3    H219807   0.903   4.185   0.916  0.2285  0.7788  0.5281
 6615TIP3   OH219808   1.366   4.161   5.516  0.4291  0.0065  0.0976
 6615TIP3    H119809   1.384   4.255   5.514  0.7216 -0.0467  0.1792
 6615TIP3    H219810   1.280   4.154   5.559 -1.0409  0.4339 -2.5481
 6616TIP3   OH219811   4.803   6.278   4.744 -0.3603 -0.6554 -0.2922
 6616TIP3    H119812   4.896   6.260   4.731 -0.4380 -1.1345 -0.1751
 6616TIP3    H219813   4.802   6.367   4.779 -0.0183 -0.2025 -1.3773
 6617TIP3   OH219814   0.060   6.463   3.069  0.3743  0.1211 -0.2754
 6617TIP3    H119815   0.094   6.504   3.148 -0.9358  1.4935 -0.3938
 6617TIP3    H219816   0.051   6.370   3.092 -0.0890  0.5122  1.2247
 6618TIP3   OH219817   5.020   5.544   5.660  0.2991  0.3590  0.3483
 6618TIP3    H119818   5.059   5.467   5.618 -0.6526 -0.2622  0.5622
 6618TIP3    H219819   5.034   5.616   5.598  0.3448 -0.1938 -0.2944
 6619TIP3   OH219820   5.410   5.954   5.801 -0.1911  0.3816  0.3230
 6619TIP3    H119821   5.465   5.877   5.818  0.8857  1.5970  2.9192
 6619TIP3    H219822   5.330   5.918   5.762  0.5933 -1.9601  0.6950
 6620TIP3   OH219823   3.747   3.062   1.701 -0.3365  0.4155 -0.2163
 6620TIP3    H119824   3.681   3.126   1.728  0.5309  1.3908 -0.3751
 6620TIP3    H219825   3.760   3.079   1.608 -2.1937 -1.9218 -1.0278
 6621TIP3   OH219826   3.718   0.386   5.885  0.5641 -0.1201  0.5116
 6621TIP3    H119827   3.663   0.462   5.866 -0.7182 -1.2419 -0.4484
 6621TIP3    H219828   3.804   0.424   5.906 -0.5520  1.6989  2.1974
 6622TIP3   OH219829   3.395   4.696   3.861 -0.4094 -0.1700  0.1680
 6622TIP3    H119830   3.393   4.652   3.776 -1.4308 -0.0753  0.1249
 6622TIP3    H219831   3.476   4.747   3.860  0.0649 -0.9075 -0.3590
 6623TIP3   OH219832   5.952   0.482   0.363 -0.1450 -0.0151  0.1294
 6623TIP3    H119833   5.913   0.395   0.370 -0.9934  0.3779  0.4338
 6623TIP3    H219834   5.975   0.506   0.453 -0.5921  0.3733  0.1447
 6624TIP3   OH219835   5.858   2.340   0.172 -0.0001  0.7357 -0.0799
 6624TIP3    H119836   5.800   2.288   0.116 -0.9914  1.1180  0.5627
 6624TIP3    H219837   5.806   2.357   0.251  1.2668  0.4021  0.8746
 6625TIP3   OH219838   1.497   0.386   1.122  0.3289  0.6322 -0.0662
 6625TIP3    H119839   1.482   0.373   1.028  2.2709  1.1632 -0.4942
 6625TIP3    H219840   1.521   0.478   1.130  3.7990 -0.1638  0.3504
 6626TIP3   OH219841   7.036   6.629   5.517  0.1389 -0.1554 -0.4397
 6626TIP3    H119842   7.006   6.550   5.562 -0.6812  1.3717  1.8365
 6626TIP3    H219843   6.962   6.689   5.521  1.1800  1.2051 -0.9823
 6627TIP3   OH219844   4.842   0.856   4.981  0.1627 -0.3626 -0.2005
 6627TIP3    H119845   4.839   0.939   4.934  0.5950  0.2700  0.8679
 6627TIP3    H219846   4.935   0.834   4.986  0.3250  0.6224  2.1120
 6628TIP3   OH219847   5.235   5.826   2.885 -0.0017 -0.3105  0.5003
 6628TIP3    H119848   5.271   5.893   2.826 -1.4560 -0.4348 -0.5784
 6628TIP3    H219849   5.142   5.847   2.892 -0.3703 -1.8304  0.6456
 6629TIP3   OH219850   3.999   6.600   4.647 -0.1541  0.1126 -0.0048
 6629TIP3    H119851   3.971   6.587   4.557 -1.0025  0.3295  0.2142
 6629TIP3    H219852   4.051   6.522   4.667  2.5981  1.4207 -1.5991
 6630TIP3   OH219853   4.189   0.073   3.492 -0.2177  0.3109  0.3491
 6630TIP3    H119854   4.257   0.012   3.462  2.2252  2.9310  0.1528
 6630TIP3    H219855   4.115   0.057   3.434  1.6230 -0.0734 -2.0400
 6631TIP3   OH219856   3.706   2.617   5.755 -0.0868 -0.0825 -0.3269
 6631TIP3    H119857   3.673   2.682   5.818 -0.5460 -0.0028 -0.6393
 6631TIP3    H219858   3.798   2.606   5.778  0.4465  1.8808 -1.2477
 6632TIP3   OH219859   0.881   1.230   4.956 -0.0714  0.1445  0.2304
 6632TIP3    H119860   0.881   1.326   4.955  0.2848  0.1499 -0.7592
 6632TIP3    H219861   0.901   1.207   5.047  0.0121  1.0067  0.4430
 6633TIP3   OH219862   1.757   3.344   0.851  0.3909 -0.0120  0.0814
 6633TIP3    H119863   1.734   3.436   0.850 -0.3652 -0.1860  0.4464
 6633TIP3    H219864   1.752   3.319   0.944  0.2827 -0.4848 -0.0444
 6634TIP3   OH219865   4.111   6.074   0.298 -0.1842 -0.3630 -0.1488
 6634TIP3    H119866   4.023   6.038   0.289  0.0620 -1.2150  0.7067
 6634TIP3    H219867   4.142   6.042   0.382 -0.6842  3.4945  1.7414
 6635TIP3   OH219868   1.249   0.821   0.580  0.6918  0.6886  0.0198
 6635TIP3    H119869   1.239   0.891   0.516  2.0340  0.2772 -0.6982
 6635TIP3    H219870   1.192   0.751   0.548  1.3568  0.4845 -0.7583
 6636TIP3   OH219871   0.821   0.617   1.686 -0.7501 -0.8672  0.5032
 6636TIP3    H119872   0.845   0.534   1.727 -1.0125 -1.0672  0.2547
 6636TIP3    H219873   0.900   0.671   1.694 -0.3465 -1.3757  0.0643
 6637TIP3   OH219874   4.321   3.588   1.797  0.7097  0.2020 -0.0222
 6637TIP3    H119875   4.360   3.629   1.720 -0.7732  0.1347 -0.8562
 6637TIP3    H219876   4.239   3.635   1.810  1.0837  0.4340  1.7508
 6638TIP3   OH219877   0.149   2.624   0.220 -0.6176  0.7963  0.3044
 6638TIP3    H119878   0.093   2.556   0.182  0.9504  0.2645 -1.2097
 6638TIP3    H219879   0.095   2.664   0.288 -2.3316 -0.5713 -0.1589
 6639TIP3   OH219880   7.064   5.646   2.981  0.3806  0.3192 -0.1057
 6639TIP3    H119881   7.029   5.557   2.983 -1.6202  1.0758  1.5980
 6639TIP3    H219882   7.009   5.692   2.917  1.0597  0.4941 -0.5806
 6640TIP3   OH219883   0.948   2.818   1.694 -0.2324  0.4493  0.2178
 6640TIP3    H119884   0.879   2.873   1.657  0.6267  2.6362  1.6527
 6640TIP3    H219885   0.932   2.820   1.788  1.1586  0.1081  0.4867
 6641TIP3   OH219886   4.845   6.321   0.922  0.0829 -0.6133  0.4057
 6641TIP3    H119887   4.814   6.232   0.938 -0.0098 -1.0057 -1.6562
 6641TIP3    H219888   4.795   6.376   0.981 -1.0364 -1.7634  0.5542
 6642TIP3   OH219889   3.396   2.146   2.544 -0.7583  0.1099 -0.1379
 6642TIP3    H119890   3.387   2.057   2.576 -3.0844 -0.2595 -1.6059
 6642TIP3    H219891   3.367   2.201   2.616 -0.5777 -0.3833  0.3161
 6643TIP3   OH219892   6.626   6.113   4.521  0.2050 -0.2481  0.1625
 6643TIP3    H119893   6.672   6.096   4.603  0.8559 -1.3256 -0.4137
 6643TIP3    H219894   6.609   6.026   4.484 -0.9885  0.1856 -0.3553
 6644TIP3   OH219895   1.705   5.165   3.823  0.0240  0.4301 -0.4907
 6644TIP3    H119896   1.784   5.207   3.788 -0.9217  2.0800 -0.7587
 6644TIP3    H219897   1.649   5.152   3.746 -0.4056  0.2998 -0.1589
 6645TIP3   OH219898   5.198   6.351   0.637  0.1184 -0.0794 -0.0099
 6645TIP3    H119899   5.159   6.362   0.724  1.7168  0.0947  0.7379
 6645TIP3    H219900   5.185   6.436   0.595 -1.0640 -0.3042 -0.1355
 6646TIP3   OH219901   0.387   1.241   1.340  0.2030 -0.6200  0.1770
 6646TIP3    H119902   0.401   1.149   1.317  1.0948 -0.7262  1.0774
 6646TIP3    H219903   0.431   1.252   1.424 -0.6204  0.4306  0.4951
 6647TIP3   OH219904   3.777   4.551   3.825  0.4210  0.2937 -0.3916
 6647TIP3    H119905   3.843   4.562   3.893  1.1157  0.5799 -1.0997
 6647TIP3    H219906   3.735   4.637   3.818 -0.4921 -0.0572  0.5083
 6648TIP3   OH219907   5.187  -0.021   4.167  0.2965  0.2327 -0.0164
 6648TIP3    H119908   5.173   0.001   4.259 -2.5467  1.5201 -0.6384
 6648TIP3    H219909   5.255   0.041   4.138 -0.4139  1.3705  0.6910
 6649TIP3   OH219910   2.374   1.549   4.262 -0.2435  0.1916 -0.0686
 6649TIP3    H119911   2.327   1.477   4.220  1.2608 -1.0867  0.3335
 6649TIP3    H219912   2.406   1.603   4.190  0.1153 -0.5401 -0.4659
 6650TIP3   OH219913   0.891   5.007   2.675 -0.2088 -0.5682 -1.0214
 6650TIP3    H119914   0.940   5.020   2.756 -1.2960 -0.5838 -0.3340
 6650TIP3    H219915   0.891   5.093   2.633 -1.2415 -0.0671 -0.0524
 6651TIP3   OH219916   4.486   2.647   0.170  0.0371  0.1170  0.3208
 6651TIP3    H119917   4.464   2.731   0.209 -0.5669  0.4606 -0.6948
 6651TIP3    H219918   4.412   2.590   0.192  0.3962 -0.1264  0.9198
 6652TIP3   OH219919   2.304   6.728   5.716  0.4151  0.0915 -0.2984
 6652TIP3    H119920   2.348   6.784   5.652  0.1937  2.0508  1.1614
 6652TIP3    H219921   2.310   6.776   5.798 -1.3746 -1.2378  0.6896
 6653TIP3   OH219922   5.087   6.121   4.424  0.3512 -0.2731  0.3049
 6653TIP3    H119923   5.082   6.140   4.331 -1.7077  0.9465  0.6106
 6653TIP3    H219924   5.136   6.194   4.461  0.2164 -0.1973  0.3319
 6654TIP3   OH219925   1.102   6.425   5.430 -0.5153  0.1927  0.0733
 6654TIP3    H119926   1.136   6.468   5.508  1.1028 -0.2320 -0.3664
 6654TIP3    H219927   1.179   6.409   5.376 -1.4637 -0.5665 -1.1019
 6655TIP3   OH219928   6.198   4.845   1.532 -0.2098 -0.3732  0.3365
 6655TIP3    H119929   6.200   4.761   1.487 -0.2947 -0.3606  0.3076
 6655TIP3    H219930   6.288   4.860   1.560 -0.1834 -0.4459  0.2910
 6656TIP3   OH219931   1.808   6.254   3.188  0.4689  0.3814  0.1896
 6656TIP3    H119932   1.783   6.262   3.096  0.4786  3.7514  0.3598
 6656TIP3    H219933   1.778   6.336   3.228  0.0700 -1.1499  3.3167
 6657TIP3   OH219934   2.496   4.994   2.907  0.2740  0.0539  0.7367
 6657TIP3    H119935   2.480   5.078   2.865 -0.5464 -1.0476 -1.2899
 6657TIP3    H219936   2.578   4.964   2.870 -0.4691 -0.9485 -0.1452
 6658TIP3   OH219937   5.884   4.188   2.592 -0.0198 -0.0936  0.1617
 6658TIP3    H119938   5.917   4.194   2.502 -0.9024 -2.8831 -0.4450
 6658TIP3    H219939   5.963   4.174   2.645  0.3665  0.0525 -0.3629
 6659TIP3   OH219940   0.563   2.321   0.879  0.3244 -0.4941 -0.0305
 6659TIP3    H119941   0.527   2.245   0.833 -0.1070 -0.5773  0.4342
 6659TIP3    H219942   0.555   2.393   0.816 -0.6168 -0.5249  0.0448
 6660TIP3   OH219943   4.328   0.569   5.381  0.5494 -0.2299  0.2966
 6660TIP3    H119944   4.301   0.646   5.332  0.4329 -1.2322 -1.3036
 6660TIP3    H219945   4.404   0.598   5.431 -0.9022  1.5148  1.6075
 6661TIP3   OH219946   6.004   4.642   4.949  0.1117 -0.0947  0.0642
 6661TIP3    H119947   5.919   4.644   4.992  0.4196 -0.0458  0.6804
 6661TIP3    H219948   6.036   4.552   4.961 -0.3583 -0.4378 -1.1762
 6662TIP3   OH219949   1.419   0.334   0.875  0.1708  0.3845  0.0141
 6662TIP3    H119950   1.451   0.301   0.791  0.0004 -1.1799  0.5325
 6662TIP3    H219951   1.347   0.393   0.852 -1.1556 -1.4759 -0.9183
 6663TIP3   OH219952   0.487   5.508   4.727 -0.2770 -0.3882  0.3999
 6663TIP3    H119953   0.509   5.555   4.807 -1.0258  0.9297 -0.1423
 6663TIP3    H219954   0.566   5.511   4.674 -0.1845 -0.1010  0.5529
 6664TIP3   OH219955   0.885   1.765   4.100 -0.4056  0.5222 -0.7922
 6664TIP3    H119956   0.923   1.826   4.162 -0.4247  1.1613 -1.3978
 6664TIP3    H219957   0.809   1.811   4.064 -0.8790 -0.1570 -0.6957
 6665TIP3   OH219958   0.270   5.268   4.064 -0.6027 -0.0476  0.2736
 6665TIP3    H119959   0.193   5.323   4.077 -0.1977  0.6827 -0.2928
 6665TIP3    H219960   0.249   5.216   3.986 -0.4099  0.3759 -0.0666
 6666TIP3   OH219961   5.296   4.047   3.402 -0.7629  0.4616 -0.3479
 6666TIP3    H119962   5.273   4.133   3.368 -0.0234  0.4056 -1.0289
 6666TIP3    H219963   5.379   4.025   3.359 -0.0990  0.1118  1.0463
 6667TIP3   OH219964   0.307   2.816   4.500 -0.1199  0.1085  0.0818
 6667TIP3    H119965   0.298   2.880   4.571  3.8272  0.1656  0.7883
 6667TIP3    H219966   0.312   2.869   4.420 -1.1937  0.3132  0.1415
 6668TIP3   OH219967   3.097   2.242   4.549  0.0031  0.1057  0.2310
 6668TIP3    H119968   3.084   2.336   4.564  0.8030  0.5229 -1.4572
 6668TIP3    H219969   3.063   2.227   4.460 -0.2959 -1.2569  0.5527
 6669TIP3   OH219970   4.454   4.820   1.433 -0.7188 -0.0083 -0.1971
 6669TIP3    H119971   4.548   4.829   1.452 -0.6932  1.0600 -0.7831
 6669TIP3    H219972   4.443   4.726   1.416  0.5531  0.0563 -1.6196
 6670TIP3   OH219973   2.374   1.742   3.261  0.2723 -0.1424  0.5584
 6670TIP3    H119974   2.418   1.799   3.324  0.6505 -0.4767  0.5929
 6670TIP3    H219975   2.333   1.674   3.314  0.6221 -0.4453  0.4438
 6671TIP3   OH219976   2.105   4.839   2.407 -0.1908 -0.7419  0.2314
 6671TIP3    H119977   2.179   4.879   2.452 -0.6160  0.1218  0.1916
 6671TIP3    H219978   2.030   4.894   2.431 -0.2661  0.4225 -2.3739
 6672TIP3   OH219979   5.679   0.218   5.386  0.0640  0.2840  0.5444
 6672TIP3    H119980   5.675   0.284   5.317 -1.1737  0.5808  0.8720
 6672TIP3    H219981   5.627   0.254   5.458  0.5270 -0.4395  1.2711
 6673TIP3   OH219982   2.801   6.101   1.848  0.4942  0.3191 -0.1218
 6673TIP3    H119983   2.728   6.100   1.786 -0.6610 -0.5781  1.1821
 6673TIP3    H219984   2.799   6.189   1.885 -0.3460  0.1063  0.3559
 6674TIP3   OH219985   6.472   4.391   1.789  0.3601 -0.3270 -0.1027
 6674TIP3    H119986   6.416   4.465   1.814  0.6150 -0.5270  1.1312
 6674TIP3    H219987   6.428   4.353   1.713 -0.1458  0.6681 -0.3328
 6675TIP3   OH219988   5.629   5.077   1.654 -0.0800  0.0692 -0.0100
 6675TIP3    H119989   5.624   4.982   1.667 -1.5907 -0.1321 -1.7643
 6675TIP3    H219990   5.582   5.114   1.729  0.5663 -0.5375  0.7159
 6676TIP3   OH219991   5.328   5.375   5.402 -1.0173  0.1226 -0.3517
 6676TIP3    H119992   5.307   5.454   5.354  0.7071 -0.0905 -1.5506
 6676TIP3    H219993   5.345   5.309   5.335  2.9734  0.1901  0.3023
 6677TIP3   OH219994   5.380   6.026   2.761  0.4729 -0.5141  0.3810
 6677TIP3    H119995   5.345   6.055   2.677 -0.1138  1.6989  1.3151
 6677TIP3    H219996   5.473   6.012   2.745  0.5354  0.6744 -0.4741
 6678TIP3   OH219997   2.909   6.551   4.160 -0.5617 -0.5743  0.4329
 6678TIP3    H119998   2.980   6.565   4.097 -0.7177 -2.5864 -0.2594
 6678TIP3    H219999   2.890   6.638   4.194 -0.4350  0.6317 -2.2639
 6679TIP3   OH220000   5.656   1.840   4.925  0.5231 -0.0225 -0.0317
 6679TIP3    H120001   5.653   1.810   4.834 -1.0550 -0.7516  0.2384
 6679TIP3    H220002   5.712   1.919   4.921  0.0714  0.2686 -1.7174
 6680TIP3   OH220003   4.663   0.504   2.887  0.1651  0.5175  0.0196
 6680TIP3    H120004   4.695   0.531   2.973  0.6326 -0.7657  0.2686
 6680TIP3    H220005   4.740   0.465   2.844  0.0377  1.5031 -1.1417
 6681TIP3   OH220006   1.022   1.258   5.454 -0.6583  0.2143  0.1580
 6681TIP3    H120007   1.092   1.322   5.465 -0.9837  0.4423  1.0890
 6681TIP3    H220008   0.963   1.276   5.528 -1.7693  0.1278 -0.6767
 6682TIP3   OH220009   4.413   1.599   2.549  0.1772  0.1070 -0.5412
 6682TIP3    H120010   4.340   1.650   2.513 -1.4326 -1.4633  0.3175
 6682TIP3    H220011   4.434   1.536   2.480 -1.1472 -1.1877  0.1727
 6683TIP3   OH220012   3.625   0.935   4.627 -0.0232  0.1088 -0.4093
 6683TIP3    H120013   3.685   0.957   4.555  2.2488 -0.4318  1.1848
 6683TIP3    H220014   3.616   1.017   4.676  0.3104 -0.0458 -0.0743
 6684TIP3   OH220015   1.316   3.537   3.141  0.2077 -0.2646  0.2076
 6684TIP3    H120016   1.256   3.548   3.215 -1.0636 -1.5870 -0.5817
 6684TIP3    H220017   1.339   3.444   3.142  0.0391 -0.3459 -1.1227
 6685TIP3   OH220018   6.735   5.075   3.263 -0.1224 -0.8808 -0.0878
 6685TIP3    H120019   6.698   5.112   3.183 -0.7051  1.5870  1.2325
 6685TIP3    H220020   6.801   5.139   3.291  1.6282 -2.7462  0.3074
 6686TIP3   OH220021   1.928   2.619   0.136  0.2699 -0.7231  0.3437
 6686TIP3    H120022   1.997   2.554   0.149 -0.3161 -0.9675  2.7280
 6686TIP3    H220023   1.938   2.679   0.210 -0.4602  0.7593 -0.7104
 6687TIP3   OH220024   3.670   0.745   3.905 -0.2164 -0.3882  0.3370
 6687TIP3    H120025   3.735   0.698   3.853 -0.8474  1.0582 -1.9221
 6687TIP3    H220026   3.702   0.741   3.995  2.4865 -0.5504 -0.5672
 6688TIP3   OH220027   1.654   5.501   3.062  0.3432 -0.2544  0.1303
 6688TIP3    H120028   1.636   5.476   3.152  0.5966  0.0088  0.2587
 6688TIP3    H220029   1.733   5.555   3.068 -0.8411  1.5718  0.0251
 6689TIP3   OH220030   3.374   3.290   1.810 -0.0772 -0.0551 -0.5632
 6689TIP3    H120031   3.393   3.276   1.717 -0.7708  0.1073 -0.7309
 6689TIP3    H220032   3.279   3.285   1.817  0.0561 -1.8068  0.4356
 6690TIP3   OH220033   4.282   2.046   1.537  0.1448  0.1311 -0.0332
 6690TIP3    H120034   4.339   1.970   1.552 -1.6385 -1.1854  0.4948
 6690TIP3    H220035   4.221   2.017   1.469 -1.0641  0.7821  0.7288
 6691TIP3   OH220036   3.987   4.593   4.555 -0.9848 -0.1762  0.3071
 6691TIP3    H120037   3.949   4.542   4.484  0.8542 -0.0641 -0.8172
 6691TIP3    H220038   3.936   4.567   4.633 -2.9888 -0.3589 -0.9825
 6692TIP3   OH220039   3.202   3.911   0.370  0.7548  0.2023  0.0922
 6692TIP3    H120040   3.276   3.957   0.411  0.8626  0.2032 -0.1021
 6692TIP3    H220041   3.166   3.857   0.441 -1.3907  2.9327  1.2777
 6693TIP3   OH220042   5.675   0.902   2.640 -0.3180  0.1040  0.4275
 6693TIP3    H120043   5.652   0.970   2.577  3.3239 -0.6347 -2.0848
 6693TIP3    H220044   5.719   0.948   2.711  0.2854  0.6085 -0.2524
 6694TIP3   OH220045   2.302   6.410   3.555  0.1685  0.1465  0.4406
 6694TIP3    H120046   2.236   6.360   3.507  0.4186  0.1989  0.0355
 6694TIP3    H220047   2.383   6.359   3.545  0.3766  0.5133  0.2084
 6695TIP3   OH220048   4.254   5.987   0.069 -0.0610 -0.0092  0.1429
 6695TIP3    H120049   4.346   5.972   0.046 -0.2721 -1.6413  0.2215
 6695TIP3    H220050   4.255   6.070   0.117  0.9230  1.4858 -2.3036
 6696TIP3   OH220051   2.182   5.642   1.279 -0.0443  0.8649  0.1382
 6696TIP3    H120052   2.172   5.714   1.341 -0.8181  0.4451  0.5200
 6696TIP3    H220053   2.096   5.635   1.237  0.3821  0.9448 -0.7664
 6697TIP3   OH220054   4.167   6.449   4.290 -0.3574  0.4428 -0.8012
 6697TIP3    H120055   4.226   6.473   4.218  0.0173  1.4556 -0.1794
 6697TIP3    H220056   4.219   6.461   4.369 -0.3591 -1.9099 -0.3823
 6698TIP3   OH220057   4.438   4.593   0.245  0.0119 -0.2484  0.2432
 6698TIP3    H120058   4.496   4.577   0.171  0.4790 -1.5104  0.8482
 6698TIP3    H220059   4.404   4.682   0.231 -0.8201 -0.8789 -2.0703
 6699TIP3   OH220060   2.470   6.285   4.503 -0.1271  0.3415  0.0722
 6699TIP3    H120061   2.460   6.317   4.593  0.6303 -0.9478  0.6347
 6699TIP3    H220062   2.408   6.337   4.452  0.6598  2.3355  1.0238
 6700TIP3   OH220063   4.897   3.850   3.649  0.0838 -0.2919 -0.0890
 6700TIP3    H120064   4.867   3.891   3.568 -1.8924 -0.5416  0.4743
 6700TIP3    H220065   4.936   3.921   3.699  1.3262 -0.1352 -1.2170
 6701TIP3   OH220066   2.615   4.786   4.377  0.1656  0.0069  0.5017
 6701TIP3    H120067   2.646   4.696   4.387 -1.2366 -0.4752  0.6188
 6701TIP3    H220068   2.652   4.814   4.293  0.9432 -0.5279  0.6523
 6702TIP3   OH220069   2.551   6.407   3.108 -0.2370  0.3015 -0.2344
 6702TIP3    H120070   2.609   6.391   3.033 -0.7640 -0.9837 -0.3828
 6702TIP3    H220071   2.518   6.321   3.132 -0.6905  0.7964  0.9949
 6703TIP3   OH220072   0.900   3.143   3.989 -0.4842 -0.2811 -0.0227
 6703TIP3    H120073   0.865   3.085   4.056 -0.9997  1.7761  1.6194
 6703TIP3    H220074   0.823   3.185   3.951 -0.1968 -1.4940 -2.0246
 6704TIP3   OH220075   4.695   4.414   1.952  0.4008 -0.0177  0.0148
 6704TIP3    H120076   4.664   4.391   1.864  1.3948  0.3514 -0.4440
 6704TIP3    H220077   4.721   4.330   1.991  3.4198  0.1139 -1.4216
 6705TIP3   OH220078   0.230   4.346   5.630  0.3525 -0.4271 -0.4732
 6705TIP3    H120079   0.161   4.303   5.581 -1.1365  0.9172  0.3559
 6705TIP3    H220080   0.302   4.355   5.567 -0.6332 -0.8327 -1.7028
 6706TIP3   OH220081   3.958   4.304   3.819 -0.3098  0.0598  1.1410
 6706TIP3    H120082   3.989   4.388   3.785 -2.6956  0.2078 -1.0112
 6706TIP3    H220083   3.911   4.327   3.900 -2.3660  1.1408 -0.2678
 6707TIP3   OH220084   2.624   1.986   5.730 -0.3120 -0.9321 -0.0219
 6707TIP3    H120085   2.707   1.943   5.749 -0.8598 -2.6979 -1.3445
 6707TIP3    H220086   2.645   2.050   5.661 -0.1025 -1.6407 -0.6256
 6708TIP3   OH220087   6.119   0.291   3.713 -0.7998 -0.1685 -0.7710
 6708TIP3    H120088   6.069   0.235   3.653 -0.9480  3.7170 -4.7661
 6708TIP3    H220089   6.055   0.353   3.747 -0.1375 -0.5505  1.3252
 6709TIP3   OH220090   1.215   5.275   4.290  0.0916 -0.0873 -0.3683
 6709TIP3    H120091   1.304   5.241   4.278  0.5000  0.6257  0.4725
 6709TIP3    H220092   1.199   5.329   4.213  0.0715 -0.8777 -0.9171
 6710TIP3   OH220093   2.149   4.490   5.625 -0.0853 -0.2162 -0.4621
 6710TIP3    H120094   2.239   4.493   5.594 -0.5550  0.9666 -1.8951
 6710TIP3    H220095   2.131   4.397   5.641  1.1376 -0.5441 -0.9132
 6711TIP3   OH220096   4.905   2.985   2.365  0.1057 -0.5964 -0.5372
 6711TIP3    H120097   4.907   2.922   2.437  0.6692 -1.1749 -1.0405
 6711TIP3    H220098   4.879   2.933   2.288  0.9459 -0.3117 -1.0345
 6712TIP3   OH220099   4.368   5.929   4.871  0.0161 -0.3757  0.0258
 6712TIP3    H120100   4.418   6.010   4.860 -1.2355  0.5752  0.9714
 6712TIP3    H220101   4.279   5.958   4.890 -0.6082 -1.9977 -0.2214
 6713TIP3   OH220102   0.879   0.636   3.404 -0.2219  0.0288  0.2551
 6713TIP3    H120103   0.808   0.635   3.468 -2.3409  1.3103 -1.8941
 6713TIP3    H220104   0.933   0.711   3.431 -1.3615  0.8684  0.3089
 6714TIP3   OH220105   1.106  -0.023   1.090 -0.2911 -0.5532 -0.3182
 6714TIP3    H120106   1.182  -0.005   1.035  0.0146 -2.4875 -0.6271
 6714TIP3    H220107   1.104   0.049   1.153  1.4680 -0.1626 -0.6417
 6715TIP3   OH220108   4.656   2.667   1.954  0.0685 -0.1483 -0.4962
 6715TIP3    H120109   4.647   2.751   1.909 -0.2241 -0.1994 -0.5344
 6715TIP3    H220110   4.602   2.675   2.033 -0.5299 -0.5471 -0.8558
 6716TIP3   OH220111   1.784   5.729   3.661  0.0328 -0.0196  0.0179
 6716TIP3    H120112   1.851   5.688   3.607  1.7767  1.7019  0.7506
 6716TIP3    H220113   1.815   5.716   3.751 -0.3837  1.1468  0.3544
 6717TIP3   OH220114   2.078   0.980   0.701  0.2098  0.1277  0.1023
 6717TIP3    H120115   2.007   1.034   0.736  1.1094  0.8216  0.9080
 6717TIP3    H220116   2.070   0.991   0.606  0.1967  1.4934  0.2285
 6718TIP3   OH220117   1.026   2.426   4.115  0.3320  0.1045 -0.5020
 6718TIP3    H120118   1.015   2.368   4.040  0.5717  0.4829 -0.8297
 6718TIP3    H220119   1.118   2.417   4.139  0.1814 -0.2696 -0.0400
 6719TIP3   OH220120   4.150   0.155   2.732  0.5424 -0.1722  0.2517
 6719TIP3    H120121   4.083   0.118   2.674 -3.0193 -2.8164  5.2282
 6719TIP3    H220122   4.116   0.241   2.757  0.1430 -0.5378  1.0115
 6720TIP3   OH220123   6.855   3.626   1.756 -0.0568 -0.1068 -0.4307
 6720TIP3    H120124   6.839   3.721   1.753  0.4176 -0.0060  0.0633
 6720TIP3    H220125   6.947   3.617   1.731 -0.5248 -0.5810 -2.1041
 6721TIP3   OH220126   2.967   4.825   2.532 -0.4030  0.1236 -0.0816
 6721TIP3    H120127   2.964   4.759   2.601  0.8026  0.9053  0.7541
 6721TIP3    H220128   3.056   4.860   2.536 -0.6437  0.9280 -1.3349
 6722TIP3   OH220129   0.430   2.707   5.582  0.0002  0.4097 -0.1592
 6722TIP3    H120130   0.519   2.720   5.613  0.8272 -1.2971 -1.6113
 6722TIP3    H220131   0.381   2.679   5.660  1.7115 -2.5265  0.0207
 6723TIP3   OH220132   7.122   3.873   1.810 -0.2326 -0.2393  0.4768
 6723TIP3    H120133   7.091   3.920   1.732  1.1509  1.9947  1.1784
 6723TIP3    H220134   7.055   3.890   1.876  0.0545  0.4290  0.6058
 6724TIP3   OH220135   0.989   0.031   3.799  0.3467 -0.1548 -0.6872
 6724TIP3    H120136   1.061   0.080   3.838  0.0933 -0.2872 -0.0421
 6724TIP3    H220137   0.934   0.006   3.873  0.6877 -1.7802 -0.9472
 6725TIP3   OH220138   1.809   5.993   2.807  0.4383 -0.5885  0.1188
 6725TIP3    H120139   1.893   6.034   2.826 -0.7521  1.6364  0.8557
 6725TIP3    H220140   1.784   6.028   2.722  0.8846 -2.4340 -0.8421
 6726TIP3   OH220141   6.688   1.934   3.807  0.2067  0.2295  0.3583
 6726TIP3    H120142   6.668   2.025   3.826 -3.0648 -0.0213 -1.1719
 6726TIP3    H220143   6.632   1.884   3.866 -1.2608 -0.6217 -1.6017
 6727TIP3   OH220144   2.791   6.111   1.364  0.4749 -0.2358 -0.7144
 6727TIP3    H120145   2.825   6.168   1.295 -0.9357  1.7168  0.0789
 6727TIP3    H220146   2.863   6.103   1.426  2.2816 -3.1802 -2.8899
 6728TIP3   OH220147   1.393   5.516   0.435 -0.4764 -0.5605 -0.0234
 6728TIP3    H120148   1.311   5.504   0.482 -0.9488  0.7692 -0.4643
 6728TIP3    H220149   1.457   5.464   0.483 -1.5957 -1.7082  0.2608
 6729TIP3   OH220150   3.204   0.747   2.223  0.1985 -0.0650  0.4158
 6729TIP3    H120151   3.118   0.753   2.265  0.1367  0.4854  0.2244
 6729TIP3    H220152   3.207   0.824   2.165 -0.3243 -1.5523 -1.7222
 6730TIP3   OH220153   3.205   6.443   2.624 -0.0896 -0.1558 -0.5709
 6730TIP3    H120154   3.208   6.456   2.719  0.1478 -3.5509  0.0053
 6730TIP3    H220155   3.128   6.389   2.610  0.4203 -0.4982 -2.2121
 6731TIP3   OH220156   1.839   5.074   4.860 -0.5773 -0.1691  0.4416
 6731TIP3    H120157   1.753   5.040   4.838 -0.2322 -0.1043 -1.1148
 6731TIP3    H220158   1.900   5.018   4.811  0.0549  2.1916 -1.6926
 6732TIP3   OH220159   5.398   0.086   3.440  0.2164  0.3683 -0.2901
 6732TIP3    H120160   5.312   0.057   3.472 -1.0578  0.0032 -3.6752
 6732TIP3    H220161   5.392   0.181   3.439  0.4645  0.4187  0.8490
 6733TIP3   OH220162   2.474   6.054   0.492 -0.1287 -0.0989  0.2087
 6733TIP3    H120163   2.511   5.990   0.553  2.4276  0.5411 -0.5541
 6733TIP3    H220164   2.461   6.133   0.544  2.2847  0.5254 -0.0325
 6734TIP3   OH220165   4.171   6.174   5.448 -0.6172 -0.6869  0.4066
 6734TIP3    H120166   4.103   6.118   5.410 -1.6353  1.5342 -1.2306
 6734TIP3    H220167   4.123   6.241   5.496  0.5565 -0.6708  1.6171
 6735TIP3   OH220168   3.861   0.944   3.581 -0.1374 -0.1749 -0.2835
 6735TIP3    H120169   3.906   1.017   3.539  0.0866  0.7665  1.5138
 6735TIP3    H220170   3.774   0.978   3.601  0.5252  0.2774  2.1549
 6736TIP3   OH220171   1.339   0.096   2.764 -0.1246 -0.1596  0.2492
 6736TIP3    H120172   1.312   0.186   2.744  0.3751 -0.2140 -0.6991
 6736TIP3    H220173   1.425   0.087   2.724 -0.8703 -1.5811 -1.1258
 6737TIP3   OH220174   0.593   0.036   3.391  0.2556 -0.2442 -0.1980
 6737TIP3    H120175   0.628  -0.051   3.411 -0.9257 -1.1105 -1.6936
 6737TIP3    H220176   0.526   0.020   3.324 -1.9368  1.4827  1.4205
 6738TIP3   OH220177   2.435   5.924   3.506 -0.1026  0.1161 -0.3866
 6738TIP3    H120178   2.483   5.855   3.552  1.0515  1.2499  0.1521
 6738TIP3    H220179   2.471   5.925   3.417  1.0651  1.0936  0.0699
 6739TIP3   OH220180   0.591   6.373   0.707 -0.0328  0.0492 -0.1376
 6739TIP3    H120181   0.532   6.310   0.750  0.8071 -1.1209 -0.6373
 6739TIP3    H220182   0.637   6.416   0.779 -1.3167  0.8313  0.2504
 6740TIP3   OH220183   3.736   2.256   4.366 -0.5241 -0.0021  0.0692
 6740TIP3    H120184   3.793   2.290   4.436 -0.4062 -0.8714  0.4186
 6740TIP3    H220185   3.775   2.288   4.285 -0.0034  0.0808  0.3487
 6741TIP3   OH220186   4.324   1.428   2.272  0.6352 -0.6906 -0.5239
 6741TIP3    H120187   4.261   1.405   2.204 -0.4913  3.0249 -0.9601
 6741TIP3    H220188   4.281   1.401   2.354 -0.1256 -0.9326 -0.9932
 6742TIP3   OH220189   0.008   5.331   2.854  0.0871  0.2002 -0.5968
 6742TIP3    H120190   0.058   5.410   2.836  2.5130 -1.1178 -0.1344
 6742TIP3    H220191   0.061   5.283   2.918 -1.2038 -1.8672 -0.9573
 6743TIP3   OH220192   4.210   4.148   1.454  0.5666 -0.3659  0.3585
 6743TIP3    H120193   4.181   4.162   1.365 -2.1921 -1.4029  1.0006
 6743TIP3    H220194   4.177   4.061   1.477  0.9926 -0.0451  2.4456
 6744TIP3   OH220195   1.334   5.064   3.251 -0.1687 -0.2077 -0.1415
 6744TIP3    H120196   1.428   5.054   3.237 -0.0377 -1.6599  1.4138
 6744TIP3    H220197   1.325   5.148   3.296  0.3224  0.1754 -0.7469
 6745TIP3   OH220198   5.089   3.278   4.620  0.2456 -0.2700 -0.1390
 6745TIP3    H120199   5.008   3.261   4.573 -1.8363  1.5627  2.4248
 6745TIP3    H220200   5.094   3.208   4.686  0.0625  0.2599  0.4551
 6746TIP3   OH220201   3.752   6.139   3.341 -0.1265  0.7164 -0.2926
 6746TIP3    H120202   3.704   6.089   3.408 -0.3808  0.0542 -0.9617
 6746TIP3    H220203   3.841   6.148   3.377  0.1674 -0.9746 -0.5353
 6747TIP3   OH220204   5.194   6.200   0.381 -0.1369  0.1004 -0.5903
 6747TIP3    H120205   5.209   6.271   0.443  1.0008  1.0713 -1.9183
 6747TIP3    H220206   5.255   6.132   0.409 -0.9429 -0.2296  0.4420
 6748TIP3   OH220207   0.310   1.587   3.929  0.7758 -0.3816  0.0581
 6748TIP3    H120208   0.374   1.597   3.999  0.2997 -0.8335  0.5625
 6748TIP3    H220209   0.230   1.627   3.963  0.3871 -1.0916 -0.0070
 6749TIP3   OH220210   6.767   1.628   1.567 -0.1177  0.3801 -0.0911
 6749TIP3    H120211   6.816   1.642   1.648 -0.2824 -2.4969  0.6122
 6749TIP3    H220212   6.834   1.620   1.499  0.2475 -0.6348  0.3703
 6750TIP3   OH220213   4.975   2.482   2.628 -0.2912 -0.4034 -0.0024
 6750TIP3    H120214   5.056   2.449   2.590  0.2451  1.9034 -1.0289
 6750TIP3    H220215   4.909   2.416   2.605  0.8395 -1.1478 -1.2379
 6751TIP3   OH220216   4.002   2.827   5.639 -0.2931  0.3614  0.5997
 6751TIP3    H120217   3.980   2.750   5.693  0.7157  2.0287  3.5991
 6751TIP3    H220218   4.088   2.806   5.603 -1.0113 -0.8148 -0.5281
 6752TIP3   OH220219   3.493   1.009   3.941 -0.1948  0.9479 -0.2471
 6752TIP3    H120220   3.561   1.076   3.944  1.5321 -0.6789 -0.8544
 6752TIP3    H220221   3.540   0.927   3.924 -2.3230 -0.2435 -0.8949
 6753TIP3   OH220222   4.482   3.667   0.987  0.2367 -0.8116  0.6486
 6753TIP3    H120223   4.565   3.623   0.969  0.3407 -0.2057 -0.4804
 6753TIP3    H220224   4.501   3.726   1.060  0.5869 -1.2543  0.9183
 6754TIP3   OH220225   5.958   3.951   0.646 -0.5628 -0.2858 -0.0762
 6754TIP3    H120226   6.004   4.019   0.694 -2.4176  1.5793 -0.8047
 6754TIP3    H220227   5.957   3.876   0.705  2.3248 -0.0623  0.4019
 6755TIP3   OH220228   6.862   5.432   1.705 -0.2333  0.0310  0.0361
 6755TIP3    H120229   6.816   5.431   1.789 -0.9723  2.0236 -0.2833
 6755TIP3    H220230   6.793   5.422   1.640  0.1465  0.0992 -0.3791
 6756TIP3   OH220231   3.778   1.144   5.012 -0.0735 -0.6049  0.0760
 6756TIP3    H120232   3.849   1.135   5.076 -0.5694  3.2907  1.4228
 6756TIP3    H220233   3.822   1.161   4.929  0.5414 -1.0994  0.2917
 6757TIP3   OH220234   5.233   2.472   2.974  0.0939  0.1829  0.3208
 6757TIP3    H120235   5.204   2.486   3.064  2.6755  2.5818  0.8974
 6757TIP3    H220236   5.183   2.536   2.923  1.2391  1.4166  0.6834
 6758TIP3   OH220237   5.153   4.931   2.551 -0.1552  0.2966 -0.1263
 6758TIP3    H120238   5.084   4.998   2.550 -1.1178 -0.6562 -0.6305
 6758TIP3    H220239   5.144   4.887   2.466  1.7913  0.8198 -0.6447
 6759TIP3   OH220240   1.828   3.014   0.167  0.8547  0.5045 -0.4346
 6759TIP3    H120241   1.789   3.070   0.100 -2.2758 -0.2856  0.5586
 6759TIP3    H220242   1.807   3.058   0.250  0.8541 -0.6856  0.2140
 6760TIP3   OH220243   0.716   1.601   2.808  0.0278 -0.6684  0.2915
 6760TIP3    H120244   0.705   1.693   2.831  2.3844 -0.5649  1.3438
 6760TIP3    H220245   0.737   1.602   2.714  0.8822 -0.0200  0.4725
 6761TIP3   OH220246   4.900   0.929   4.543 -0.0072  0.2529 -0.1432
 6761TIP3    H120247   4.904   1.005   4.486 -1.3195  0.4159 -0.0381
 6761TIP3    H220248   4.932   0.856   4.489  0.0307  0.6421 -0.6505
 6762TIP3   OH220249   1.598   0.318   2.422  0.0043 -0.7738  0.5145
 6762TIP3    H120250   1.639   0.310   2.336 -0.8585 -1.3341  0.1430
 6762TIP3    H220251   1.626   0.404   2.454 -0.5499 -0.0561 -0.8113
 6763TIP3   OH220252   5.431   3.800   2.702 -0.0115 -0.2495 -0.1406
 6763TIP3    H120253   5.349   3.754   2.684 -2.0450  3.5768 -1.6600
 6763TIP3    H220254   5.490   3.772   2.633  0.2514 -3.2991  1.1470
 6764TIP3   OH220255   3.774   0.634   5.675  0.3114  0.3916  0.1890
 6764TIP3    H120256   3.779   0.539   5.668  1.8663  0.4026  0.8438
 6764TIP3    H220257   3.847   0.667   5.623 -0.6635  1.2773 -0.6638
 6765TIP3   OH220258   1.014   1.954   0.165 -0.2231 -0.3552 -0.2518
 6765TIP3    H120259   1.065   1.873   0.159 -1.7826 -1.4167  0.0446
 6765TIP3    H220260   0.962   1.955   0.085 -0.4496  0.1881 -0.1002
 6766TIP3   OH220261   6.113   0.631   2.082  0.2087  0.2239 -0.8234
 6766TIP3    H120262   6.095   0.613   2.174  0.3985  2.8945 -0.1702
 6766TIP3    H220263   6.051   0.576   2.034 -0.9708 -0.0716  0.9493
 6767TIP3   OH220264   2.954   3.352   5.501  0.3169  0.6238  0.0110
 6767TIP3    H120265   2.989   3.270   5.466 -0.9759 -1.0150  2.2699
 6767TIP3    H220266   2.864   3.331   5.526 -0.4595  3.1151 -0.4830
 6768TIP3   OH220267   2.625   1.724   0.960  0.0747 -0.0159  0.0192
 6768TIP3    H120268   2.531   1.705   0.957  0.3792 -1.6714  0.0914
 6768TIP3    H220269   2.630   1.820   0.966 -1.5989  0.0968  0.0566
 6769TIP3   OH220270   5.188   3.889   4.186 -0.3475  0.5987  0.3026
 6769TIP3    H120271   5.094   3.904   4.173 -0.0313  2.1346 -0.3835
 6769TIP3    H220272   5.224   3.883   4.097  0.4741  1.9429  0.5200
 6770TIP3   OH220273   3.037   0.558   5.069  0.9445  0.5705 -0.7937
 6770TIP3    H120274   3.119   0.560   5.118  0.0723  1.5481  0.7204
 6770TIP3    H220275   2.993   0.640   5.092 -2.5053 -1.8076  2.1447
 6771TIP3   OH220276   0.799   1.813   4.834 -0.3407 -0.1034 -0.5238
 6771TIP3    H120277   0.716   1.833   4.876 -1.2774 -1.3441 -1.7087
 6771TIP3    H220278   0.857   1.885   4.861 -0.9713 -0.5911  2.4681
 6772TIP3   OH220279   4.365   0.027   5.774 -0.6061  0.2281 -0.6539
 6772TIP3    H120280   4.305   0.019   5.848  1.2657 -2.3192  0.6998
 6772TIP3    H220281   4.431   0.089   5.803  0.3247 -1.0396  0.0099
 6773TIP3   OH220282   1.899   2.999   0.524 -0.7785 -0.0710  0.5994
 6773TIP3    H120283   1.890   2.931   0.591 -2.3266  0.9960  1.5379
 6773TIP3    H220284   1.810   3.021   0.499 -0.2505  0.1918 -1.1924
 6774TIP3   OH220285   1.891   1.075   0.916 -0.5767 -0.2039  0.2128
 6774TIP3    H120286   1.967   1.101   0.967 -0.0142 -1.5018  0.0723
 6774TIP3    H220287   1.870   0.987   0.947 -1.6639 -0.0953 -0.1687
 6775TIP3   OH220288   1.607   4.564   0.725 -0.5214 -0.8401 -0.0770
 6775TIP3    H120289   1.628   4.473   0.703  0.1333 -0.7903  0.3183
 6775TIP3    H220290   1.692   4.607   0.734 -0.8164 -0.3016  0.2125
 6776TIP3   OH220291   2.955   4.351   5.562  0.2911 -0.0275 -0.2471
 6776TIP3    H120292   3.007   4.377   5.485  1.5712 -0.0107  0.5820
 6776TIP3    H220293   2.894   4.286   5.529 -1.1376  1.9624 -1.8412
 6777TIP3   OH220294   3.189   6.484   1.378  0.1221  0.6890  0.4555
 6777TIP3    H120295   3.238   6.558   1.414  0.4904 -0.0893  1.5920
 6777TIP3    H220296   3.254   6.416   1.364 -0.3541  0.2547  0.3152
 6778TIP3   OH220297   5.678   2.624   5.866  0.5077  0.2859  0.3842
 6778TIP3    H120298   5.587   2.598   5.855 -0.1339  2.7285 -0.9849
 6778TIP3    H220299   5.726   2.572   5.802 -0.3698  0.8437 -0.7638
 6779TIP3   OH220300   2.648   1.859   1.784 -0.0347 -0.2023  0.5353
 6779TIP3    H120301   2.628   1.940   1.737  0.1341 -0.0385  0.7437
 6779TIP3    H220302   2.725   1.880   1.835 -0.0797 -0.4525  0.7057
 6780TIP3   OH220303   2.402   0.062   0.907  0.5848  0.0331 -0.0696
 6780TIP3    H120304   2.487   0.097   0.933  0.5191 -0.8482  1.4770
 6780TIP3    H220305   2.339   0.126   0.939  0.4625 -1.3728  2.7680
 6781TIP3   OH220306   2.774   1.705   3.618  0.1744 -0.0521  0.1423
 6781TIP3    H120307   2.689   1.688   3.658  1.1113  1.4064  2.9651
 6781TIP3    H220308   2.808   1.618   3.596 -1.8194 -0.6756 -0.6840
 6782TIP3   OH220309   0.608   2.455   5.329  0.6034  0.2043  0.0337
 6782TIP3    H120310   0.665   2.382   5.308 -0.7308 -1.4047  1.6977
 6782TIP3    H220311   0.666   2.531   5.330  2.0273 -0.7645 -1.7828
 6783TIP3   OH220312   1.082   6.094   3.552 -0.0381 -0.1513 -0.1457
 6783TIP3    H120313   1.077   5.998   3.560 -0.8540 -0.1410 -0.4961
 6783TIP3    H220314   1.142   6.107   3.479  1.8716 -0.3378  1.3057
 6784TIP3   OH220315   6.724   3.891   0.811  0.6060  0.0484 -0.5624
 6784TIP3    H120316   6.772   3.809   0.805 -0.7675 -0.9033  0.6751
 6784TIP3    H220317   6.766   3.939   0.882 -0.4512 -0.9517  0.7847
 6785TIP3   OH220318   6.058   1.204   0.330 -0.3828  0.3477 -0.1199
 6785TIP3    H120319   6.092   1.156   0.254  0.3274  2.7782 -1.4522
 6785TIP3    H220320   5.964   1.188   0.329 -0.1069 -1.5012 -0.0936
 6786TIP3   OH220321   5.163   2.631   5.076 -0.1334  0.3313  0.1611
 6786TIP3    H120322   5.078   2.598   5.104 -0.5004  0.3779 -0.8335
 6786TIP3    H220323   5.147   2.665   4.988  0.2995  2.9424  1.0198
 6787TIP3   OH220324   6.432   5.443   0.955  0.0281 -0.2202 -0.2720
 6787TIP3    H120325   6.398   5.417   1.040  2.6285  0.2404  1.0162
 6787TIP3    H220326   6.379   5.395   0.891 -1.8609 -0.7238  1.5922
 6788TIP3   OH220327   6.993   5.458   5.643  0.5969  0.4495 -0.6598
 6788TIP3    H120328   7.083   5.428   5.633  0.6043  0.4825 -0.6926
 6788TIP3    H220329   6.944   5.380   5.671  0.3568  0.0743 -2.0517
 6789TIP3   OH220330   1.265   5.690   3.765  0.2091  0.6672 -0.0102
 6789TIP3    H120331   1.269   5.599   3.734  1.1670  0.8508 -0.4409
 6789TIP3    H220332   1.353   5.709   3.797  0.3993  1.8815 -1.1913
 6790TIP3   OH220333   4.269   6.511   0.201 -0.3288 -0.4006 -0.6229
 6790TIP3    H120334   4.319   6.560   0.266 -1.3520  0.4063 -0.4203
 6790TIP3    H220335   4.178   6.535   0.218 -0.6560 -0.5837 -2.0222
 6791TIP3   OH220336   2.118   4.207   4.395  0.2098 -0.5887 -0.0477
 6791TIP3    H120337   2.120   4.235   4.303 -0.0970 -1.2720 -0.2701
 6791TIP3    H220338   2.156   4.280   4.443 -2.0678  0.9323 -0.4036
 6792TIP3   OH220339   6.152   2.618   3.578  0.4066  0.0437  0.2625
 6792TIP3    H120340   6.070   2.570   3.574  0.8151 -0.5888 -2.0797
 6792TIP3    H220341   6.181   2.609   3.669 -1.5595 -0.5963  0.8818
 6793TIP3   OH220342   5.621   5.392   4.212 -0.3253  0.3429  0.3809
 6793TIP3    H120343   5.540   5.408   4.261 -0.3356 -0.4194  0.6209
 6793TIP3    H220344   5.638   5.299   4.224  0.6870  0.5326  0.4791
 6794TIP3   OH220345   1.849   1.903   4.427 -0.5062 -0.0926 -0.2692
 6794TIP3    H120346   1.842   1.950   4.510 -1.6548  2.4239 -1.6429
 6794TIP3    H220347   1.790   1.829   4.435 -1.5022  0.7751  0.7991
 6795TIP3   OH220348   3.660   3.642   0.481 -0.2914  0.2392 -0.0502
 6795TIP3    H120349   3.682   3.573   0.543 -0.3343 -0.1773 -0.4984
 6795TIP3    H220350   3.610   3.598   0.412  0.0406  0.6381 -0.5490
 6796TIP3   OH220351   1.890   4.190   3.478  0.2557 -0.0499 -0.0066
 6796TIP3    H120352   1.900   4.099   3.449  0.3085  0.2085 -0.8085
 6796TIP3    H220353   1.969   4.235   3.448  1.0221 -0.0755  1.8164
 6797TIP3   OH220354   2.710   6.144   5.232  0.3147  0.1136 -0.0281
 6797TIP3    H120355   2.798   6.182   5.236  0.1536  0.5696 -0.6860
 6797TIP3    H220356   2.725   6.050   5.235  0.8334  0.1856 -0.1780
 6798TIP3   OH220357   5.365   5.369   0.703  0.1565  0.8929 -0.2383
 6798TIP3    H120358   5.418   5.438   0.741 -1.5312  1.6334  0.9050
 6798TIP3    H220359   5.296   5.414   0.655  0.7542 -0.0396 -2.0640
 6799TIP3   OH220360   7.208   2.350   4.550  0.1860 -0.2170 -0.2287
 6799TIP3    H120361   7.254   2.391   4.623 -0.2816 -1.2314  0.6572
 6799TIP3    H220362   7.142   2.415   4.524  0.0756 -0.0128  0.5366
 6800TIP3   OH220363   4.335   2.271   0.647 -0.0915 -0.3290  0.0232
 6800TIP3    H120364   4.340   2.211   0.573 -0.1484 -0.4546  0.1220
 6800TIP3    H220365   4.372   2.222   0.720 -0.0302 -0.2030  0.0770
 6801TIP3   OH220366   6.928   4.875   0.586  0.0988 -0.1099  0.7263
 6801TIP3    H120367   6.949   4.913   0.500  1.1632  1.6376  1.6898
 6801TIP3    H220368   6.833   4.875   0.590  0.0449  0.3094 -0.2525
 6802TIP3   OH220369   4.033   2.690   5.365  0.2705 -0.3189  0.2808
 6802TIP3    H120370   4.024   2.711   5.458  0.1299 -0.4987  0.3091
 6802TIP3    H220371   4.126   2.706   5.346  0.5526 -1.3278  0.7202
 6803TIP3   OH220372   5.344   0.413   0.247  0.0008  0.7717  0.0755
 6803TIP3    H120373   5.366   0.396   0.155  1.2961  1.2031  0.2930
 6803TIP3    H220374   5.318   0.327   0.281  1.5272  0.1779 -0.1666
 6804TIP3   OH220375   0.228   6.300   4.458 -0.6997  0.1967 -0.2909
 6804TIP3    H120376   0.166   6.259   4.398 -2.3166  0.9994  0.7832
 6804TIP3    H220377   0.293   6.232   4.476 -1.5390 -0.8273 -1.0228
 6805TIP3   OH220378   1.423   3.734   0.310 -0.1117 -0.1170 -0.1222
 6805TIP3    H120379   1.411   3.644   0.280 -0.6508 -0.8436  2.0895
 6805TIP3    H220380   1.461   3.726   0.398  0.3657  1.8348 -0.0937
 6806TIP3   OH220381   1.568   3.645   1.915  0.1267 -0.7150 -0.4524
 6806TIP3    H120382   1.553   3.727   1.866  1.3399 -1.1355 -1.6049
 6806TIP3    H220383   1.627   3.670   1.986 -1.9757 -0.0149  1.1226
 6807TIP3   OH220384   4.541   5.030   3.012 -0.2255  0.6429  0.3075
 6807TIP3    H120385   4.582   5.090   2.950 -1.5459  1.1394 -0.1167
 6807TIP3    H220386   4.594   4.950   3.006  0.5752  1.1992 -0.3208
 6808TIP3   OH220387   3.221   4.054   3.304 -0.6653  0.6291  0.0131
 6808TIP3    H120388   3.166   4.083   3.377 -0.7753  0.9297 -0.1872
 6808TIP3    H220389   3.205   3.959   3.298  0.1849  0.3953  1.0841
 6809TIP3   OH220390   1.418   3.435   1.985 -0.3112  0.0173  0.4253
 6809TIP3    H120391   1.458   3.515   1.951  1.6604 -1.2898 -0.4962
 6809TIP3    H220392   1.413   3.449   2.080  0.7498  0.9357  0.3672
 6810TIP3   OH220393   7.152   5.966   2.230 -0.6727  0.4081 -0.2137
 6810TIP3    H120394   7.148   6.061   2.221 -1.2308  0.6204  1.8885
 6810TIP3    H220395   7.238   5.942   2.193 -0.4641  1.7286 -0.6238
 6811TIP3   OH220396   4.091   6.015   4.116  0.0021 -0.2255 -0.4585
 6811TIP3    H120397   4.165   6.060   4.075  0.4046 -0.0951  0.3818
 6811TIP3    H220398   4.049   5.967   4.045 -0.3027  1.2946 -1.3507
 6812TIP3   OH220399   2.851   3.884   4.090  0.2073 -0.2737  0.2150
 6812TIP3    H120400   2.931   3.934   4.105 -0.3385 -0.3097  4.3684
 6812TIP3    H220401   2.881   3.793   4.081  0.7738  0.0548 -1.9340
 6813TIP3   OH220402   2.428   0.247   3.868  0.2537  0.0493 -0.8083
 6813TIP3    H120403   2.447   0.169   3.920  1.6651  1.1290  0.3979
 6813TIP3    H220404   2.337   0.237   3.841 -1.2926  0.2918  3.5189
 6814TIP3   OH220405   7.067   4.807   4.146  0.2297 -0.4454  0.3167
 6814TIP3    H120406   7.158   4.782   4.132  0.2648 -0.7650  1.0986
 6814TIP3    H220407   7.071   4.895   4.182  0.2177 -0.3776  0.1537
 6815TIP3   OH220408   6.014   0.897   1.024 -0.2691 -0.2219 -0.6133
 6815TIP3    H120409   6.041   0.844   1.099  0.0278 -1.5261 -1.6160
 6815TIP3    H220410   5.932   0.939   1.053  0.5534  0.4107  0.9110
 6816TIP3   OH220411   7.044   3.704   4.699 -0.1857  0.1124  0.0491
 6816TIP3    H120412   7.039   3.609   4.692  1.0547 -0.0494  0.9379
 6816TIP3    H220413   6.974   3.728   4.759 -0.2895 -0.2861  0.0874
 6817TIP3   OH220414   3.257   3.334   2.507  0.3341 -0.2075 -0.5791
 6817TIP3    H120415   3.226   3.319   2.417 -1.4421 -1.0498  0.1113
 6817TIP3    H220416   3.240   3.251   2.552 -0.4519  0.7348  0.9470
 6818TIP3   OH220417   3.215   1.985   4.583 -0.0578  0.2643  0.0247
 6818TIP3    H120418   3.159   2.042   4.637 -1.1049  0.1213 -0.8695
 6818TIP3    H220419   3.160   1.909   4.564  1.1402 -0.8143  0.7575
 6819TIP3   OH220420   3.200   6.124   4.356  0.3271 -0.3684  0.3506
 6819TIP3    H120421   3.212   6.219   4.359  0.7428 -0.4129  0.2162
 6819TIP3    H220422   3.140   6.110   4.283  0.5205 -0.2300  0.1620
 6820TIP3   OH220423   6.745   1.517   3.387 -0.3977 -0.4375 -0.6048
 6820TIP3    H120424   6.775   1.591   3.439  1.1537 -0.5193 -1.3252
 6820TIP3    H220425   6.653   1.536   3.370  0.0777  1.6239 -1.2371
 6821TIP3   OH220426   4.869   5.133   3.988 -0.7848  0.6781 -0.2316
 6821TIP3    H120427   4.841   5.043   4.005  0.1087  0.0069 -2.0669
 6821TIP3    H220428   4.814   5.162   3.915  1.2377  0.3218 -2.0095
 6822TIP3   OH220429   4.394   6.652   1.725  0.5007  0.6823 -0.4065
 6822TIP3    H120430   4.453   6.727   1.721  0.2897  0.8091 -1.3752
 6822TIP3    H220431   4.307   6.689   1.708  0.4452  0.1661 -1.2997
 6823TIP3   OH220432   3.612   6.736   2.512  0.3411 -0.9208  0.3226
 6823TIP3    H120433   3.607   6.649   2.551 -1.1502 -1.5917 -1.2102
 6823TIP3    H220434   3.668   6.725   2.435 -1.6066 -1.1406 -1.1605
 6824TIP3   OH220435   4.287   0.647   5.700  0.3796 -0.4082  0.3595
 6824TIP3    H120436   4.249   0.564   5.670 -1.2954 -0.1447  1.5753
 6824TIP3    H220437   4.221   0.683   5.759  1.0109  1.8457 -0.1964
 6825TIP3   OH220438   6.514   0.249   5.364 -0.2268  0.7216  0.4588
 6825TIP3    H120439   6.517   0.177   5.302 -0.8790  0.6700  0.4888
 6825TIP3    H220440   6.423   0.279   5.363  0.1315  1.8581  0.0865
 6826TIP3   OH220441   1.525   2.618   3.652  0.1906  0.0041 -0.7069
 6826TIP3    H120442   1.474   2.698   3.661 -0.1473 -0.1970 -0.8349
 6826TIP3    H220443   1.465   2.548   3.678 -0.0125 -0.3591 -2.0529
 6827TIP3   OH220444   4.768   1.848   3.779 -0.2157 -0.1181 -0.1896
 6827TIP3    H120445   4.727   1.904   3.714 -1.6142 -1.5322 -0.5619
 6827TIP3    H220446   4.832   1.905   3.822 -1.8476  1.8844 -0.2663
 6828TIP3   OH220447   4.958   0.036   1.974  0.2237  0.0944  0.4080
 6828TIP3    H120448   5.034  -0.020   1.989  0.3361 -0.3108 -1.4362
 6828TIP3    H220449   4.886  -0.010   2.017 -0.1725 -2.8525 -2.9264
 6829TIP3   OH220450   5.744   4.596   4.029  0.0702 -0.4068  0.0648
 6829TIP3    H120451   5.800   4.563   4.099  0.6425  0.6099  0.1237
 6829TIP3    H220452   5.735   4.523   3.968  0.6976 -0.8804  0.5292
 6830TIP3   OH220453   2.109   2.745   2.193  0.2948  0.1731  0.4125
 6830TIP3    H120454   2.038   2.761   2.256 -0.8370 -2.2453 -0.1392
 6830TIP3    H220455   2.093   2.809   2.123 -0.3582  0.7411  1.0567
 6831TIP3   OH220456   4.309   4.009   5.364  0.4460  0.2580  0.0137
 6831TIP3    H120457   4.304   3.914   5.368  0.0486  0.2652 -0.1731
 6831TIP3    H220458   4.328   4.028   5.272 -0.4505  0.3806 -0.1618
 6832TIP3   OH220459   0.511   2.961  -0.010  0.4020 -1.1092  0.7056
 6832TIP3    H120460   0.431   2.943   0.041 -0.3487  0.5225  0.1695
 6832TIP3    H220461   0.516   3.056  -0.013  2.3306 -1.1787  0.6103
 6833TIP3   OH220462   3.584   5.660   1.284 -0.0602 -1.0042 -0.1229
 6833TIP3    H120463   3.489   5.655   1.285 -0.1958  0.7453 -1.1805
 6833TIP3    H220464   3.610   5.647   1.376 -1.3144 -1.2924  0.1989
 6834TIP3   OH220465   6.354   4.028   2.313  0.0241  0.4423 -0.2913
 6834TIP3    H120466   6.382   3.950   2.266 -0.0122  0.7744 -0.8673
 6834TIP3    H220467   6.277   4.000   2.362  1.2505 -0.4454  1.2123
 6835TIP3   OH220468   6.384   5.750   5.200 -0.8476  0.4385  0.2102
 6835TIP3    H120469   6.406   5.766   5.292 -1.1121  0.7370  0.2242
 6835TIP3    H220470   6.338   5.666   5.201 -0.1058  0.0267  0.2347
 6836TIP3   OH220471   4.697   4.177   4.986 -0.0187 -0.0600  0.8920
 6836TIP3    H120472   4.706   4.232   5.064  1.3037 -0.9392  1.3945
 6836TIP3    H220473   4.740   4.225   4.916  1.4848 -0.6030  1.4184
 6837TIP3   OH220474   3.141   0.715   5.418  0.0106 -0.0417  0.0389
 6837TIP3    H120475   3.074   0.779   5.394 -0.7320 -0.7622  0.1546
 6837TIP3    H220476   3.120   0.691   5.509  0.9460  0.3674  0.3759
 6838TIP3   OH220477   0.666   0.115   0.993 -0.2438 -0.2393 -0.5047
 6838TIP3    H120478   0.589   0.114   1.050  0.3526  2.6322  0.5075
 6838TIP3    H220479   0.647   0.183   0.929  1.1963  0.0704 -0.6281
 6839TIP3   OH220480   0.361   5.947   5.777  0.5229  0.2178  0.3203
 6839TIP3    H120481   0.324   5.957   5.689 -0.1773 -1.1342  0.4250
 6839TIP3    H220482   0.455   5.956   5.765  0.3424  1.4721 -0.3249
 6840TIP3   OH220483   4.465   6.692   3.187  0.2974 -0.2238  0.5379
 6840TIP3    H120484   4.487   6.601   3.169  1.7646  0.0247  1.0210
 6840TIP3    H220485   4.452   6.731   3.100 -0.0725 -0.8055  0.3231
 6841TIP3   OH220486   7.048   6.651   2.913  0.3766  0.6459 -0.1191
 6841TIP3    H120487   6.996   6.725   2.881  0.3781  0.0994 -1.4330
 6841TIP3    H220488   7.098   6.687   2.986 -0.6907  1.5779  0.1861
 6842TIP3   OH220489   4.809   0.275   3.945 -0.0870 -0.1992  0.1318
 6842TIP3    H120490   4.796   0.364   3.976  1.3432  0.1988 -0.3407
 6842TIP3    H220491   4.740   0.262   3.880 -0.6948  0.3229  0.6602
 6843TIP3   OH220492   0.028   0.439   1.170 -0.3724 -0.3642  0.2261
 6843TIP3    H120493   0.070   0.501   1.229 -1.0444 -1.7823  2.3175
 6843TIP3    H220494  -0.065   0.445   1.193 -0.8325 -0.1027 -1.5715
 6844TIP3   OH220495   5.730   0.299   0.122 -0.0968 -0.3617  0.5429
 6844TIP3    H120496   5.797   0.238   0.155 -0.9737 -2.5070 -1.3676
 6844TIP3    H220497   5.648   0.268   0.161 -0.6228 -0.7628 -0.8379
 6845TIP3   OH220498   0.474   1.802   1.527  0.2799 -0.4384 -0.2131
 6845TIP3    H120499   0.499   1.727   1.581 -3.7486 -1.2873  0.7944
 6845TIP3    H220500   0.503   1.879   1.576 -1.2956 -1.2503  2.1415
 6846TIP3   OH220501   0.931   0.342   0.087 -0.4620 -0.4833 -0.0297
 6846TIP3    H120502   0.841   0.320   0.063 -0.3562 -0.6659 -0.2522
 6846TIP3    H220503   0.984   0.308   0.016 -0.1841 -0.6958  0.2762
 6847TIP3   OH220504   5.114   1.448   2.147 -0.2146  0.2146 -0.4454
 6847TIP3    H120505   5.133   1.456   2.241  1.1634 -0.0526 -0.6748
 6847TIP3    H220506   5.108   1.538   2.116 -1.6175  0.3225  0.0447
 6848TIP3   OH220507   4.060   3.684   0.456  0.1883 -0.4898 -0.0181
 6848TIP3    H120508   4.068   3.691   0.551 -1.2607  1.2353  0.0377
 6848TIP3    H220509   3.985   3.625   0.443 -0.2229  0.0261 -0.0427
 6849TIP3   OH220510   2.750   0.953   0.351  0.3976  0.0088  0.0591
 6849TIP3    H120511   2.669   0.910   0.321 -0.1539  1.0762 -0.0550
 6849TIP3    H220512   2.724   1.044   0.366  1.6043  0.3940 -0.0622
 6850TIP3   OH220513   6.850   3.164   4.619 -0.3601 -0.0049  0.1999
 6850TIP3    H120514   6.791   3.116   4.677  0.7116 -0.8317  0.6256
 6850TIP3    H220515   6.935   3.121   4.628 -0.0278  0.1612 -1.5774
 6851TIP3   OH220516   0.247   1.686   5.481  0.5816 -0.8355  0.0569
 6851TIP3    H120517   0.323   1.630   5.465  0.4180 -0.6814 -1.3732
 6851TIP3    H220518   0.238   1.688   5.576  1.8224 -1.5791  0.2042
 6852TIP3   OH220519   1.144   4.743   1.594 -0.1182 -0.2135 -0.2595
 6852TIP3    H120520   1.135   4.654   1.630  1.3278 -0.5085 -0.5666
 6852TIP3    H220521   1.174   4.796   1.667  0.6317 -0.3410 -0.4644
 6853TIP3   OH220522   4.468   3.271   3.334  0.3719 -0.1394 -0.9930
 6853TIP3    H120523   4.487   3.182   3.303 -0.4240 -0.7777  0.2602
 6853TIP3    H220524   4.549   3.299   3.376  0.2228 -0.8188 -0.2190
 6854TIP3   OH220525   2.429   4.491   5.544  0.9831  0.5898  0.0704
 6854TIP3    H120526   2.471   4.561   5.594 -0.1883  1.8333 -0.6107
 6854TIP3    H220527   2.460   4.410   5.584 -0.0016  1.5152  2.8958
 6855TIP3   OH220528   1.005   3.043   2.140  0.4145 -0.5686  0.3814
 6855TIP3    H120529   1.096   3.014   2.148  0.8880  0.5021 -0.7668
 6855TIP3    H220530   0.971   3.039   2.230  2.3377  1.3000  1.2907
 6856TIP3   OH220531   1.253   4.595   5.587  0.4314 -0.2469  0.2784
 6856TIP3    H120532   1.313   4.522   5.570  0.1187 -0.3120 -0.5794
 6856TIP3    H220533   1.169   4.554   5.607  0.5529 -0.1455  1.0073
 6857TIP3   OH220534   2.835   3.145   5.845 -0.1659  0.1879  0.0543
 6857TIP3    H120535   2.776   3.084   5.802 -0.7364  1.5718 -1.2525
 6857TIP3    H220536   2.779   3.198   5.901 -0.6336  2.7374 -2.5796
 6858TIP3   OH220537   6.668   1.649   2.527 -0.0648 -0.7844  0.0465
 6858TIP3    H120538   6.751   1.603   2.532 -0.3315 -1.6494 -2.2412
 6858TIP3    H220539   6.602   1.580   2.532 -0.5421 -0.4059 -0.7136
 6859TIP3   OH220540   1.307   2.378   4.325 -0.3097  0.2482 -0.6498
 6859TIP3    H120541   1.371   2.349   4.389 -0.4559 -1.6346 -1.3006
 6859TIP3    H220542   1.251   2.302   4.311  0.6078  0.0749 -4.1119
 6860TIP3   OH220543   5.006   3.934   2.744  0.2710 -0.6447  0.5710
 6860TIP3    H120544   4.938   3.885   2.790 -1.2236  1.4820  0.7568
 6860TIP3    H220545   4.990   3.916   2.651 -1.4760  0.8581  0.5192
 6861TIP3   OH220546   4.420   1.388   0.158 -0.4489  0.2400  0.5999
 6861TIP3    H120547   4.464   1.326   0.216 -0.2131 -0.5239 -0.3763
 6861TIP3    H220548   4.357   1.434   0.215  0.3275  0.0752  1.6199
 6862TIP3   OH220549   3.111   0.526   4.763 -0.0900  0.5128  0.0970
 6862TIP3    H120550   3.172   0.485   4.702 -1.7485 -0.1993 -1.1635
 6862TIP3    H220551   3.165   0.584   4.816  1.8773 -1.1624  0.0010
 6863TIP3   OH220552   1.736   4.887   2.296  0.0959 -1.1085  0.0408
 6863TIP3    H120553   1.738   4.830   2.374  0.6396  1.2181  1.8264
 6863TIP3    H220554   1.669   4.952   2.315  0.6513 -0.1406 -1.1918
 6864TIP3   OH220555   0.150   2.741   1.984  0.2571  0.3126  0.2100
 6864TIP3    H120556   0.236   2.741   2.026  0.0554 -0.4552  0.6458
 6864TIP3    H220557   0.089   2.765   2.055  0.0168 -0.0504  0.1299
 6865TIP3   OH220558   2.246   0.314   5.685 -0.4680 -0.1143 -0.0440
 6865TIP3    H120559   2.267   0.385   5.745  0.1755  0.8698 -1.3887
 6865TIP3    H220560   2.321   0.310   5.625 -2.3183  0.8820 -2.5763
 6866TIP3   OH220561   2.861   5.539   1.044  0.2741  0.2604 -0.0673
 6866TIP3    H120562   2.793   5.486   1.086  1.1329  0.0091  1.0616
 6866TIP3    H220563   2.922   5.475   1.006 -0.4346  0.4860 -1.6521
 6867TIP3   OH220564   0.355   5.908   0.772 -0.4995 -0.6583 -0.2625
 6867TIP3    H120565   0.282   5.958   0.808  0.0222  0.1551 -0.3105
 6867TIP3    H220566   0.340   5.819   0.803 -0.8609 -0.2684  0.7307
 6868TIP3   OH220567   4.820   2.139   3.115  0.1177 -0.0654 -0.5992
 6868TIP3    H120568   4.863   2.068   3.068  0.4656  0.9745 -1.9258
 6868TIP3    H220569   4.768   2.183   3.049  0.2900  1.1978  0.0714
 6869TIP3   OH220570   7.008   5.737   5.800 -0.6157  0.4297 -0.5146
 6869TIP3    H120571   6.976   5.665   5.746 -0.3585  0.4504 -0.6960
 6869TIP3    H220572   7.032   5.696   5.884 -2.9053  0.6838  0.3421
 6870TIP3   OH220573   5.626   5.594   3.986  0.7463 -0.0854  0.3635
 6870TIP3    H120574   5.697   5.542   3.947  0.4087  0.3307 -0.8599
 6870TIP3    H220575   5.643   5.591   4.080  0.7255 -2.4108  0.3499
 6871TIP3   OH220576   4.529   3.462   1.953 -0.5599  0.1656  0.2506
 6871TIP3    H120577   4.455   3.486   1.899 -0.3306 -2.2608 -1.3007
 6871TIP3    H220578   4.602   3.453   1.892  0.4218  0.1460  1.3856
 6872TIP3   OH220579   2.789   1.597   5.159 -0.3725 -0.4278 -0.9992
 6872TIP3    H120580   2.853   1.558   5.099 -2.3305 -2.8271 -1.7306
 6872TIP3    H220581   2.723   1.635   5.102  0.1430  1.7303 -0.2567
 6873TIP3   OH220582   1.443   2.278   3.903  0.3776  0.1297 -0.0153
 6873TIP3    H120583   1.420   2.315   3.818  0.3768  0.1742  0.0040
 6873TIP3    H220584   1.426   2.349   3.965  0.0598 -0.0114  0.0589
 6874TIP3   OH220585   0.811   4.128   4.246  0.4095 -0.0704 -0.4285
 6874TIP3    H120586   0.741   4.106   4.307  0.3994  0.8103 -0.0997
 6874TIP3    H220587   0.810   4.224   4.243  1.8759 -0.0174 -0.0764
 6875TIP3   OH220588   2.558   2.187   0.307  0.0186 -0.4240 -0.4490
 6875TIP3    H120589   2.548   2.148   0.394  0.9768 -0.3462 -0.2870
 6875TIP3    H220590   2.566   2.281   0.324 -1.2069 -0.2502 -0.7487
 6876TIP3   OH220591   1.108   0.408   3.651 -0.2653 -0.4848 -0.2260
 6876TIP3    H120592   1.108   0.381   3.559  1.4226  0.2665 -0.5025
 6876TIP3    H220593   1.123   0.503   3.647 -1.5016 -0.2319  0.8089
 6877TIP3   OH220594   3.109   3.989   4.515  0.2852 -0.4532  0.0401
 6877TIP3    H120595   3.205   3.993   4.514  0.3063 -0.9052  0.1004
 6877TIP3    H220596   3.084   4.026   4.599  0.3922 -0.0423 -0.1079
 6878TIP3   OH220597   4.369   6.141   5.160 -0.1995  0.3806 -0.1755
 6878TIP3    H120598   4.442   6.100   5.113 -0.1476 -0.3042  0.4877
 6878TIP3    H220599   4.298   6.144   5.097 -1.1707 -3.4225  0.5302
 6879TIP3   OH220600   3.892   3.968   3.970  1.0058  0.3757 -0.6515
 6879TIP3    H120601   3.878   4.001   3.881  1.7100 -0.0336 -0.9120
 6879TIP3    H220602   3.968   4.017   4.002  0.2504  1.1305  0.0373
 6880TIP3   OH220603   3.149   2.459   1.686  0.1014 -0.0509 -0.3121
 6880TIP3    H120604   3.096   2.382   1.704  0.7984 -0.7022 -1.0163
 6880TIP3    H220605   3.219   2.428   1.629 -0.4400  1.3960 -1.8356
 6881TIP3   OH220606   5.726   2.153   1.156 -0.0265  0.1733  0.0277
 6881TIP3    H120607   5.722   2.248   1.157 -1.5910  0.1523  1.6149
 6881TIP3    H220608   5.649   2.127   1.104 -0.4511 -0.2076  0.8297
 6882TIP3   OH220609   5.424   5.015   3.672  0.0254 -0.3074  0.6166
 6882TIP3    H120610   5.344   4.979   3.709 -1.1687  3.0191  1.6120
 6882TIP3    H220611   5.482   5.027   3.747  0.8220 -1.0717  0.1463
 6883TIP3   OH220612   3.644   5.470   5.622 -0.0810  0.2546  0.3844
 6883TIP3    H120613   3.589   5.548   5.617 -0.9702 -0.1217  2.8003
 6883TIP3    H220614   3.696   5.472   5.542 -1.1645  2.4811 -0.3496
 6884TIP3   OH220615   0.994   3.398   3.022  0.1206 -0.4571 -0.4533
 6884TIP3    H120616   1.005   3.465   3.089  1.9851 -0.8679 -0.2889
 6884TIP3    H220617   1.009   3.445   2.939 -2.8417  0.1994 -0.7374
 6885TIP3   OH220618   2.003   3.029   3.426 -0.1715  0.2174  0.0335
 6885TIP3    H120619   2.066   2.961   3.450  0.1624  0.4185 -0.2582
 6885TIP3    H220620   2.030   3.056   3.338 -0.9602 -0.0382 -0.2992
 6886TIP3   OH220621   4.421   6.078   5.426 -1.1558 -0.6002 -0.2766
 6886TIP3    H120622   4.435   6.105   5.335 -2.0718  0.0200 -0.2486
 6886TIP3    H220623   4.333   6.109   5.447 -0.1415  1.2986  1.5611
 6887TIP3   OH220624   6.473   0.111   0.081 -0.0064 -0.3092 -0.3643
 6887TIP3    H120625   6.481   0.202   0.110 -1.3460  0.0273 -0.9687
 6887TIP3    H220626   6.463   0.117  -0.014  0.9110 -1.1683 -0.5259
 6888TIP3   OH220627   5.859   2.958   1.458  0.1728  0.6192  0.0218
 6888TIP3    H120628   5.778   2.924   1.422  1.1378 -2.4459  0.4887
 6888TIP3    H220629   5.868   3.046   1.420 -2.0968  0.0894 -1.9121
 6889TIP3   OH220630   6.796   1.405   2.628 -0.0093  0.1531 -0.0087
 6889TIP3    H120631   6.844   1.399   2.711  0.6286  1.0347 -0.2996
 6889TIP3    H220632   6.732   1.334   2.632  1.1020 -0.8555  0.5307
 6890TIP3   OH220633   1.100   4.371   4.164 -0.2183  0.4490  0.2136
 6890TIP3    H120634   1.177   4.327   4.128  0.2007  0.2119  1.3565
 6890TIP3    H220635   1.133   4.456   4.194 -0.5299  0.5909  0.1570
 6891TIP3   OH220636   3.430   1.864   1.744  0.3695  0.1770  0.1797
 6891TIP3    H120637   3.462   1.806   1.812 -1.7776  0.7403  1.7742
 6891TIP3    H220638   3.455   1.821   1.662 -0.7250 -2.8042  1.2742
 6892TIP3   OH220639   5.795   1.868   4.641 -0.2384  0.1222  0.4846
 6892TIP3    H120640   5.725   1.871   4.576  0.2544  1.3216 -0.0238
 6892TIP3    H220641   5.822   1.776   4.644 -2.3107 -0.5132  1.2336
 6893TIP3   OH220642   6.870   2.656   1.926 -0.0149 -0.5129 -0.0761
 6893TIP3    H120643   6.955   2.630   1.961 -0.3124 -0.9057  0.3699
 6893TIP3    H220644   6.885   2.668   1.832  0.3155 -1.5322 -0.1693
 6894TIP3   OH220645   1.677   3.698   2.896 -0.1962  0.1413 -0.6566
 6894TIP3    H120646   1.720   3.781   2.917  1.4079 -0.3214 -1.8800
 6894TIP3    H220647   1.691   3.644   2.974  1.4215  0.0459 -0.9789
 6895TIP3   OH220648   2.394   1.845   0.467  0.0063  0.5664  0.0259
 6895TIP3    H120649   2.422   1.754   0.469 -0.3770  0.4434 -0.0888
 6895TIP3    H220650   2.429   1.880   0.385  0.8193  0.7433  0.4394
 6896TIP3   OH220651   3.401   5.298   2.445 -0.2166  0.8629 -0.4121
 6896TIP3    H120652   3.370   5.335   2.363 -2.1506  0.5699  0.1479
 6896TIP3    H220653   3.463   5.363   2.478 -0.7500  1.8281 -1.2444
 6897TIP3   OH220654   1.449   1.954   0.575  0.0639  0.4934  0.1550
 6897TIP3    H120655   1.415   2.036   0.538 -0.1926 -0.2759 -1.4098
 6897TIP3    H220656   1.532   1.939   0.529 -0.3308 -0.5629 -0.2527
 6898TIP3   OH220657   3.289   2.639   5.656  0.2776 -0.1711  0.3671
 6898TIP3    H120658   3.360   2.681   5.608 -1.3590  1.3821 -0.8074
 6898TIP3    H220659   3.281   2.690   5.737  1.1406 -0.9840  0.9785
 6899TIP3   OH220660   1.653   2.913   4.169  0.1741 -0.0045  0.3491
 6899TIP3    H120661   1.616   2.970   4.101 -0.7835 -1.3404 -0.3182
 6899TIP3    H220662   1.581   2.853   4.191  0.9705 -0.6092  1.3981
 6900TIP3   OH220663   1.103   0.931   4.363 -0.2422  0.7034 -0.0186
 6900TIP3    H120664   1.126   0.887   4.281  1.6394  2.7116 -0.6518
 6900TIP3    H220665   1.169   0.901   4.425 -0.7406  0.3860  0.3699
 6901TIP3   OH220666   0.160   3.886   0.024  0.8133  0.0798  0.2390
 6901TIP3    H120667   0.073   3.880   0.064  1.0098 -0.7058  0.5632
 6901TIP3    H220668   0.154   3.833  -0.055  0.3497  1.8384 -0.9767
 6902TIP3   OH220669   3.321   6.635   1.613 -0.6381  0.6251 -0.3731
 6902TIP3    H120670   3.392   6.579   1.645 -0.4962  0.7648 -0.4451
 6902TIP3    H220671   3.255   6.632   1.682  0.1084  1.7640  0.4207
 6903TIP3   OH220672   0.581   6.068   4.234  0.2102 -0.2501  0.3577
 6903TIP3    H120673   0.579   6.130   4.160 -0.9398  0.8483  1.2623
 6903TIP3    H220674   0.674   6.058   4.254  0.4793  0.2647 -0.5630
 6904TIP3   OH220675   3.641   4.880   1.199 -0.0420  0.0825  0.1254
 6904TIP3    H120676   3.671   4.957   1.152 -1.3033  0.5510  0.0506
 6904TIP3    H220677   3.670   4.806   1.145  2.5256  0.3892  0.9840
 6905TIP3   OH220678   5.540   2.622   0.523  0.0830  0.2592 -0.0495
 6905TIP3    H120679   5.580   2.705   0.498  0.8699 -0.4000 -1.0724
 6905TIP3    H220680   5.450   2.629   0.493 -0.8675  1.9672  2.7421
 6906TIP3   OH220681   6.551   3.224   3.973 -0.1214 -0.1855  0.1743
 6906TIP3    H120682   6.459   3.211   3.998 -0.5968  1.4022 -0.5982
 6906TIP3    H220683   6.547   3.266   3.888  1.3380 -0.0520  0.1507
 6907TIP3   OH220684   4.331   3.644   0.386 -0.1722 -0.6065  0.1264
 6907TIP3    H120685   4.236   3.638   0.392 -0.3673  2.2201  2.2273
 6907TIP3    H220686   4.348   3.656   0.293 -2.0822  0.3846 -0.1632
 6908TIP3   OH220687   1.700   3.967   1.189  0.0201  0.0717 -0.0049
 6908TIP3    H120688   1.620   3.913   1.187 -0.2985  0.4259  1.6276
 6908TIP3    H220689   1.767   3.909   1.225  0.2208  0.1087 -0.3196
 6909TIP3   OH220690   6.386   6.022   1.501  0.4602 -0.2821  0.0497
 6909TIP3    H120691   6.293   6.040   1.512  0.4451  1.3758 -2.1349
 6909TIP3    H220692   6.390   5.952   1.436  0.7565 -1.9900  1.8172
 6910TIP3   OH220693   0.067   0.556   1.405 -0.0759  0.3613  0.4205
 6910TIP3    H120694   0.089   0.498   1.478 -1.3892 -1.3585 -0.4827
 6910TIP3    H220695  -0.028   0.558   1.403 -0.0644  0.7705 -0.9205
 6911TIP3   OH220696   4.521   5.949   0.202  0.3761  0.2700 -0.1234
 6911TIP3    H120697   4.553   5.894   0.273  1.8363  0.8429 -0.2975
 6911TIP3    H220698   4.563   5.914   0.123 -1.4729 -0.5637 -0.8013
 6912TIP3   OH220699   0.069   6.652   0.735  0.2723 -0.1600 -0.3400
 6912TIP3    H120700   0.056   6.733   0.784  1.4272 -1.2404  1.8887
 6912TIP3    H220701   0.146   6.612   0.775  0.2313 -1.9911 -1.9427
 6913TIP3   OH220702   3.930   4.579   1.015 -0.1311 -0.4891 -0.2155
 6913TIP3    H120703   3.916   4.537   0.930  0.4539 -0.3056 -0.4069
 6913TIP3    H220704   4.022   4.561   1.035 -0.0626  0.1132  0.0236
 6914TIP3   OH220705   3.473   5.851   2.923  0.6042  0.0161  0.0166
 6914TIP3    H120706   3.517   5.771   2.896 -0.7893 -0.5250 -0.7094
 6914TIP3    H220707   3.495   5.915   2.856  0.4723 -0.1854 -0.2178
 6915TIP3   OH220708   3.053   0.800   4.180 -0.3438 -0.8038  0.2394
 6915TIP3    H120709   3.019   0.860   4.247  0.9933 -0.2417  0.4607
 6915TIP3    H220710   3.143   0.831   4.165  0.2077 -2.4605 -0.0007
 6916TIP3   OH220711   6.529   6.081   3.600  0.1239 -0.0668 -0.4632
 6916TIP3    H120712   6.574   5.997   3.600  0.7837  0.2778 -1.1801
 6916TIP3    H220713   6.580   6.136   3.660 -0.4863 -0.2573  0.2503
 6917TIP3   OH220714   2.423   3.564   3.463  0.3882 -0.5010 -0.2330
 6917TIP3    H120715   2.468   3.579   3.547  1.4142  0.4410 -0.9204
 6917TIP3    H220716   2.385   3.476   3.472 -2.1868  0.6975  2.3744
 6918TIP3   OH220717   2.230   6.501   5.540 -0.0056 -0.4602  0.2741
 6918TIP3    H120718   2.311   6.541   5.572 -0.5353  0.7183  0.2122
 6918TIP3    H220719   2.248   6.479   5.449 -0.4794  2.0857 -0.5240
 6919TIP3   OH220720   3.029   2.391   3.627  0.1508 -0.0408  0.2176
 6919TIP3    H120721   3.072   2.476   3.616 -0.3470  0.0750 -0.9872
 6919TIP3    H220722   3.055   2.362   3.714 -0.0988  1.5867  0.8635
 6920TIP3   OH220723   4.515   6.308   1.954  0.1844 -0.3177  0.2479
 6920TIP3    H120724   4.491   6.325   1.863 -0.0365  1.5690  0.6341
 6920TIP3    H220725   4.431   6.302   2.000  0.2994 -1.1143  0.3766
 6921TIP3   OH220726   6.559   5.198   5.736  0.2922  0.2520  0.5563
 6921TIP3    H120727   6.535   5.110   5.705 -2.4935  1.3478 -0.6762
 6921TIP3    H220728   6.510   5.209   5.817  0.2768  0.8564  0.4633
 6922TIP3   OH220729   6.944   4.837   3.873 -0.9527 -0.2464 -0.1574
 6922TIP3    H120730   6.944   4.932   3.874 -2.6282 -0.1956  1.0729
 6922TIP3    H220731   6.974   4.812   3.960  1.6247 -0.9522 -1.1688
 6923TIP3   OH220732   3.770   2.878   0.684  0.1274 -0.9514  1.0430
 6923TIP3    H120733   3.815   2.895   0.601  0.3926  0.4206  1.4534
 6923TIP3    H220734   3.677   2.882   0.661  0.1274  1.7795  1.1826
 6924TIP3   OH220735   1.580   5.735   4.962 -0.0874 -0.3682 -0.4438
 6924TIP3    H120736   1.544   5.648   4.980  0.1052  0.1013  2.8038
 6924TIP3    H220737   1.652   5.744   5.024 -0.6620  2.4281 -0.0684
 6925TIP3   OH220738   2.187   1.200   1.973 -0.1957 -0.0772  0.0852
 6925TIP3    H120739   2.153   1.231   2.057  0.5152  0.3327  0.2306
 6925TIP3    H220740   2.281   1.216   1.978 -0.0768 -0.5204 -0.5917
 6926TIP3   OH220741   3.576   3.213   5.575 -0.2935  0.7827  0.6258
 6926TIP3    H120742   3.575   3.142   5.639  0.9623  1.6748  1.6746
 6926TIP3    H220743   3.665   3.247   5.578 -0.6089  1.7800 -0.5600
 6927TIP3   OH220744   2.546   2.143   4.871 -0.0153  0.1233  0.2220
 6927TIP3    H120745   2.602   2.210   4.910  1.1042 -0.4681 -0.3243
 6927TIP3    H220746   2.507   2.098   4.946 -1.7593  2.1295  0.5955
 6928TIP3   OH220747   0.182   0.127   3.550  0.1768 -0.3782  0.3224
 6928TIP3    H120748   0.256   0.144   3.608 -0.4730 -1.4304  1.4993
 6928TIP3    H220749   0.133   0.056   3.592 -1.3602  0.0986 -0.5516
 6929TIP3   OH220750   1.249   2.438   0.342  0.4592  0.2026  0.1220
 6929TIP3    H120751   1.263   2.498   0.269  0.5736  0.2916  0.2166
 6929TIP3    H220752   1.310   2.468   0.410  1.9355 -1.1658 -0.5259
 6930TIP3   OH220753   4.645   6.600   4.350  0.0278 -0.0383 -0.0231
 6930TIP3    H120754   4.714   6.613   4.284  2.1887  0.6236  2.2027
 6930TIP3    H220755   4.641   6.684   4.396 -2.3877 -0.0421 -0.1204
 6931TIP3   OH220756   5.835   6.305   4.068 -0.5672 -0.1024  0.4079
 6931TIP3    H120757   5.855   6.229   4.122 -0.8076  0.3072  1.0963
 6931TIP3    H220758   5.821   6.269   3.980  2.4905 -0.4854 -0.0347
 6932TIP3   OH220759   2.655   1.450   2.798  0.1528 -0.8626  0.2176
 6932TIP3    H120760   2.641   1.533   2.752  0.5404 -1.8041 -1.7013
 6932TIP3    H220761   2.723   1.469   2.862  0.2678  0.3080 -0.2268
 6933TIP3   OH220762   4.414   0.924   5.489  0.6212  0.3108 -0.1915
 6933TIP3    H120763   4.461   0.853   5.445  0.5723  1.5712 -2.4494
 6933TIP3    H220764   4.483   0.977   5.530  0.7766 -0.2659  0.2963
 6934TIP3   OH220765   1.675   1.030   1.236 -0.1794 -0.1061 -0.2115
 6934TIP3    H120766   1.703   0.938   1.239  0.3594  0.0174 -1.0613
 6934TIP3    H220767   1.593   1.028   1.188 -1.5297 -0.4285  1.9910
 6935TIP3   OH220768   0.659   1.325   1.278  0.1504  0.4961  0.3769
 6935TIP3    H120769   0.637   1.237   1.306  1.2276  0.4089  0.9910
 6935TIP3    H220770   0.655   1.322   1.182 -0.8139  0.0639  0.4246
 6936TIP3   OH220771   0.273   5.487   4.424  0.1996  0.2831 -0.6322
 6936TIP3    H120772   0.368   5.482   4.418  0.2251 -2.2021  0.5387
 6936TIP3    H220773   0.243   5.470   4.334  0.8923 -2.6624 -0.4035
 6937TIP3   OH220774   7.034   0.069   5.312 -0.1622  0.5059 -0.6128
 6937TIP3    H120775   7.087  -0.011   5.309 -1.2431 -0.2176 -1.3243
 6937TIP3    H220776   6.956   0.044   5.362  0.5875  1.8440  1.3202
 6938TIP3   OH220777   4.590   0.213   0.520  0.4046  0.2156  0.2718
 6938TIP3    H120778   4.540   0.181   0.445  0.1092 -0.8730  0.9159
 6938TIP3    H220779   4.577   0.307   0.519 -1.8034 -0.0437  0.5064
 6939TIP3   OH220780   5.882   1.201   4.893 -0.1688 -0.0369  0.1799
 6939TIP3    H120781   5.843   1.128   4.844 -1.9288  0.7576  0.3298
 6939TIP3    H220782   5.914   1.160   4.974  1.5072 -1.1125 -0.9710
 6940TIP3   OH220783   4.308   2.500   3.166  0.1250 -0.3257 -0.1151
 6940TIP3    H120784   4.267   2.421   3.130  0.8840  0.2812 -2.4301
 6940TIP3    H220785   4.286   2.570   3.105 -0.2209  1.2426  1.7024
 6941TIP3   OH220786   2.110   2.856   4.694  0.1410  0.1964  0.1902
 6941TIP3    H120787   2.144   2.802   4.766 -1.1444  1.0657  1.5205
 6941TIP3    H220788   2.126   2.946   4.722  0.2071  0.5478 -0.9416
 6942TIP3   OH220789   6.021   0.594   5.507  0.0228 -0.4692  0.3158
 6942TIP3    H120790   6.057   0.546   5.433 -1.2088 -0.9204 -0.0206
 6942TIP3    H220791   6.015   0.529   5.577 -2.4372 -1.1104 -0.3934
 6943TIP3   OH220792   5.828   2.891   4.691  0.0741 -0.3563  0.7866
 6943TIP3    H120793   5.765   2.964   4.686 -0.9308 -1.1628  1.3273
 6943TIP3    H220794   5.860   2.894   4.781 -0.8550 -1.2712  1.1723
 6944TIP3   OH220795   2.919   6.468   1.314 -0.2262  0.6073  0.3685
 6944TIP3    H120796   3.009   6.481   1.344 -0.6698  1.3513  1.4495
 6944TIP3    H220797   2.869   6.456   1.395 -1.1297  0.3705 -0.2140
 6945TIP3   OH220798   0.062   6.028   0.366  0.5574 -0.3599 -0.1676
 6945TIP3    H120799   0.119   6.102   0.381  1.0859 -0.5453 -1.1404
 6945TIP3    H220800   0.099   5.957   0.418  0.6043 -0.1994  0.0175
 6946TIP3   OH220801   1.106   6.395   3.859 -0.5277 -0.7103 -0.4541
 6946TIP3    H120802   1.144   6.308   3.849 -0.5611 -0.5905 -1.9037
 6946TIP3    H220803   1.180   6.451   3.881 -0.3770 -0.9782 -0.2730
 6947TIP3   OH220804   5.389   5.582   2.781  0.1744  0.1687  0.3043
 6947TIP3    H120805   5.335   5.661   2.781  0.9338  0.7045 -0.9098
 6947TIP3    H220806   5.423   5.575   2.692  2.3820  0.0481  1.0821
 6948TIP3   OH220807   6.096   4.468   3.394 -0.0277 -0.0923  0.1860
 6948TIP3    H120808   6.104   4.563   3.380  0.3729 -0.4293 -2.2917
 6948TIP3    H220809   6.132   4.454   3.482  0.3331  1.9942  0.4291
 6949TIP3   OH220810   5.982   5.670   1.568  0.0918 -0.2339 -0.9187
 6949TIP3    H120811   5.963   5.640   1.657 -1.0279  0.1315 -1.0204
 6949TIP3    H220812   5.896   5.692   1.532  0.4565 -1.0028 -2.3247
 6950TIP3   OH220813   5.333   4.378   4.416  0.3316 -0.3965 -0.2171
 6950TIP3    H120814   5.264   4.405   4.356 -0.9329 -0.3751  1.1787
 6950TIP3    H220815   5.408   4.359   4.360 -1.1449 -1.5527 -1.9160
 6951TIP3   OH220816   6.789   5.902   3.249  0.0044 -0.4028  0.4447
 6951TIP3    H120817   6.773   5.815   3.286 -1.0608 -0.2220  0.4316
 6951TIP3    H220818   6.854   5.941   3.307  1.3296 -1.6042 -0.1636
 6952TIP3   OH220819   3.843   4.558   4.786 -0.2905  0.1466  0.0095
 6952TIP3    H120820   3.820   4.465   4.795  0.5536 -0.3743 -2.4691
 6952TIP3    H220821   3.762   4.604   4.807 -1.4628 -1.2867 -1.1244
 6953TIP3   OH220822   4.700   5.281   3.718  0.3427  0.4668  0.4426
 6953TIP3    H120823   4.762   5.245   3.655  2.0906  1.4170  1.5545
 6953TIP3    H220824   4.639   5.333   3.665 -0.0662 -1.1501 -0.7612
 6954TIP3   OH220825   2.155   5.716   4.592  0.4008  0.2831 -0.3342
 6954TIP3    H120826   2.162   5.812   4.600 -1.2906  0.4078  0.1561
 6954TIP3    H220827   2.143   5.686   4.682 -0.4592 -0.2300 -0.6061
 6955TIP3   OH220828   4.920   2.807   0.767  0.1502 -0.2317  0.9839
 6955TIP3    H120829   4.838   2.800   0.718  0.7284 -0.0932 -0.0351
 6955TIP3    H220830   4.898   2.860   0.844 -1.0486 -1.4164  1.5043
 6956TIP3   OH220831   1.494   3.692   5.519 -0.3883 -0.5099  0.0725
 6956TIP3    H120832   1.493   3.774   5.470 -0.0061  0.2351  1.2756
 6956TIP3    H220833   1.518   3.626   5.454  1.0300  0.5740 -0.5576
 6957TIP3   OH220834   4.025   2.989   1.113 -0.4797 -0.4205 -0.3616
 6957TIP3    H120835   3.974   2.949   1.183 -2.6745  1.4099 -0.7963
 6957TIP3    H220836   4.027   3.082   1.135  0.3325 -0.0555 -1.8116
 6958TIP3   OH220837   2.027   1.630   4.857 -0.2238 -0.2220  0.3730
 6958TIP3    H120838   2.036   1.694   4.928 -0.3781 -0.2915  0.4537
 6958TIP3    H220839   1.939   1.644   4.822 -0.1387 -0.1696  0.1762
 6959TIP3   OH220840   0.652   2.197   4.903 -0.3414 -0.4706  0.3146
 6959TIP3    H120841   0.675   2.289   4.888 -0.4099 -0.5377 -0.1940
 6959TIP3    H220842   0.583   2.201   4.970 -2.9811  0.0938 -2.2449
 6960TIP3   OH220843   4.997   0.973   2.589  0.0947  0.4417  0.0111
 6960TIP3    H120844   5.001   1.065   2.617  0.9841  0.0215  1.3006
 6960TIP3    H220845   5.075   0.961   2.534  0.7266  0.0980  0.9737
 6961TIP3   OH220846   6.215   2.673   3.299  0.1191  0.0808  0.1232
 6961TIP3    H120847   6.165   2.679   3.381  0.0878 -1.3008  0.2336
 6961TIP3    H220848   6.235   2.580   3.290  0.9037  0.3343 -0.9884
 6962TIP3   OH220849   0.591   2.038   4.662 -0.7984 -0.4496 -0.0108
 6962TIP3    H120850   0.617   2.114   4.715 -2.0908  1.1335 -1.5094
 6962TIP3    H220851   0.525   1.993   4.715 -0.6574 -0.0176  0.5379
 6963TIP3   OH220852   7.051   4.555   0.470  0.0972  0.0499 -0.1269
 6963TIP3    H120853   7.118   4.623   0.471  0.7809 -0.6123  1.0255
 6963TIP3    H220854   6.974   4.597   0.431  0.7396  1.2476 -0.1279
 6964TIP3   OH220855   0.245   3.464   3.886  0.0853  0.3073 -0.7430
 6964TIP3    H120856   0.185   3.459   3.812  0.5646  1.5808 -1.2424
 6964TIP3    H220857   0.223   3.546   3.930 -1.2029 -1.0946  1.4564
 6965TIP3   OH220858   2.466   0.095   5.242 -0.1614  0.0582 -0.1964
 6965TIP3    H120859   2.480   0.016   5.190  0.4386 -0.4108  0.6582
 6965TIP3    H220860   2.467   0.065   5.332  0.5345  1.1067  0.1635
 6966TIP3   OH220861   1.829   2.244   2.939  0.7455 -0.0483 -0.1820
 6966TIP3    H120862   1.868   2.322   2.898  0.8714 -0.6336 -1.2052
 6966TIP3    H220863   1.899   2.180   2.941  0.6776 -0.1057  0.7880
 6967TIP3   OH220864   0.958   4.292   1.962  0.4242  0.1407 -0.0643
 6967TIP3    H120865   0.960   4.299   1.867  2.0056 -0.2496 -0.0986
 6967TIP3    H220866   0.992   4.376   1.993 -1.0014  0.6441  0.2097
 6968TIP3   OH220867   0.442   2.650   3.394  0.4689  0.0240  0.0471
 6968TIP3    H120868   0.468   2.563   3.364  0.2234 -0.0483  0.0416
 6968TIP3    H220869   0.405   2.636   3.481  0.8823  0.1909  0.2531
 6969TIP3   OH220870   3.927   6.246   4.840  0.0940 -0.4646 -0.2450
 6969TIP3    H120871   3.834   6.231   4.824  0.1709 -1.3473  0.0725
 6969TIP3    H220872   3.958   6.164   4.880  0.6784  0.3588  1.0438
 6970TIP3   OH220873   0.159   5.766   2.407 -0.1386 -0.1368  0.1410
 6970TIP3    H120874   0.125   5.842   2.454  2.2192  1.8360 -1.1516
 6970TIP3    H220875   0.253   5.781   2.401 -0.1010 -1.0201 -3.7675
 6971TIP3   OH220876   7.217   2.710   0.440 -0.1014 -0.1862  0.4334
 6971TIP3    H120877   7.262   2.729   0.522 -0.3501  0.5094  0.4210
 6971TIP3    H220878   7.129   2.683   0.467  0.0360 -0.6624  0.4195
 6972TIP3   OH220879   5.145   4.475   5.253  0.4584  0.3457  0.1837
 6972TIP3    H120880   5.126   4.565   5.277  0.1847 -0.1291  1.8589
 6972TIP3    H220881   5.078   4.423   5.297  0.7840 -0.7121 -0.5118
 6973TIP3   OH220882   3.645   5.536   3.186  0.2230 -0.0861 -0.1017
 6973TIP3    H120883   3.598   5.456   3.159  0.7698 -0.8235  1.0584
 6973TIP3    H220884   3.575   5.598   3.206 -0.2313 -0.5016 -0.3562
 6974TIP3   OH220885   0.768   6.757   0.557 -0.1040 -0.3552 -0.1208
 6974TIP3    H120886   0.789   6.792   0.470  1.1769  0.7983  0.6242
 6974TIP3    H220887   0.815   6.673   0.561  0.4653 -0.0442 -0.2513
 6975TIP3   OH220888   5.944   2.734   3.074 -0.1391 -0.5126 -0.1893
 6975TIP3    H120889   5.925   2.640   3.068  2.4490 -1.1103 -0.0951
 6975TIP3    H220890   5.899   2.762   3.154 -2.4537 -1.2175 -1.1804
 6976TIP3   OH220891   1.098   0.040   3.522  0.3052 -0.0519  0.1167
 6976TIP3    H120892   1.073   0.056   3.613  1.9728 -1.5508  0.9225
 6976TIP3    H220893   1.030  -0.018   3.488 -0.2873  0.4528  0.4402
 6977TIP3   OH220894   2.637   3.130   2.614 -0.3087 -0.1067  0.0345
 6977TIP3    H120895   2.727   3.129   2.583 -0.9357 -0.0204 -1.9397
 6977TIP3    H220896   2.618   3.222   2.632  0.0741 -0.1597  0.7192
 6978TIP3   OH220897   1.765   3.964   2.589 -0.5684  0.0699 -0.3634
 6978TIP3    H120898   1.853   3.953   2.552 -0.3654 -1.0330  0.3759
 6978TIP3    H220899   1.760   4.056   2.614 -0.2453  0.5371 -1.9370
 6979TIP3   OH220900   6.809   3.510   3.557 -0.4259  0.4332 -0.3927
 6979TIP3    H120901   6.808   3.590   3.505  0.8681  1.1336  0.6033
 6979TIP3    H220902   6.810   3.541   3.648 -0.8040 -0.7364  0.0325
 6980TIP3   OH220903   2.541   0.008   1.224 -0.2499  0.3986  0.0646
 6980TIP3    H120904   2.501   0.072   1.283 -0.8960 -1.0406  1.2699
 6980TIP3    H220905   2.467  -0.037   1.184  0.0357 -2.1382  2.1467
 6981TIP3   OH220906   2.442   4.938   5.041 -0.5185  0.3547  0.0898
 6981TIP3    H120907   2.484   4.973   5.120  0.0197 -1.2754  0.5650
 6981TIP3    H220908   2.382   4.871   5.074 -0.4913 -0.1494 -0.8678
 6982TIP3   OH220909   2.725   5.621   3.335 -0.5737  0.7357 -0.0020
 6982TIP3    H120910   2.764   5.565   3.402 -1.9330 -1.1677 -0.6898
 6982TIP3    H220911   2.794   5.683   3.312  0.1113  1.1313  2.7439
 6983TIP3   OH220912   3.375   0.582   0.541 -0.4966 -0.9996 -0.1998
 6983TIP3    H120913   3.387   0.512   0.478 -0.2789 -0.8276 -0.3505
 6983TIP3    H220914   3.432   0.559   0.615  0.0128 -0.6964 -0.4889
 6984TIP3   OH220915   0.935   5.847   2.312  0.5773 -0.1607 -0.2317
 6984TIP3    H120916   0.886   5.832   2.393 -0.7227 -1.0775 -1.1469
 6984TIP3    H220917   0.976   5.762   2.292  1.9455  0.3890  0.1087
 6985TIP3   OH220918   4.182   1.114   3.201  0.5186  0.4097  0.7408
 6985TIP3    H120919   4.099   1.130   3.155 -0.3461 -1.6307  1.5114
 6985TIP3    H220920   4.218   1.202   3.214 -0.8588  1.2715 -0.7720
 6986TIP3   OH220921   0.367   4.137   5.443 -0.5709 -0.2993  0.0621
 6986TIP3    H120922   0.293   4.076   5.448 -1.2641  0.5901  1.2565
 6986TIP3    H220923   0.329   4.216   5.406  0.1177 -0.2800 -0.6223
 6987TIP3   OH220924   4.858   0.285   0.444  0.0895  0.1179  0.1923
 6987TIP3    H120925   4.772   0.248   0.463  0.1316  0.4118  0.9871
 6987TIP3    H220926   4.842   0.352   0.378 -0.2047 -0.2476 -0.1099
 6988TIP3   OH220927   3.440   1.606   1.071  0.0862 -0.2172 -0.1345
 6988TIP3    H120928   3.439   1.543   0.998 -2.7766 -0.0894 -0.3116
 6988TIP3    H220929   3.425   1.552   1.149 -1.4595  0.0977 -0.1888
 6989TIP3   OH220930   5.789   2.849   0.579 -0.2400  0.5568  0.0701
 6989TIP3    H120931   5.721   2.878   0.519  0.4656  2.5588  0.1684
 6989TIP3    H220932   5.850   2.800   0.524 -1.3180 -0.5719 -0.1583
 6990TIP3   OH220933   5.122   5.063   0.672  0.2410  0.2371 -0.4803
 6990TIP3    H120934   5.168   5.028   0.748 -1.4672  0.5256  0.7502
 6990TIP3    H220935   5.097   4.985   0.622 -1.9767 -0.3328  1.3161
 6991TIP3   OH220936   3.152   2.201   5.360  0.1952 -0.0914  0.3463
 6991TIP3    H120937   3.215   2.195   5.431  0.2044  1.3856  0.4960
 6991TIP3    H220938   3.132   2.110   5.338  1.4760 -0.5787  1.0773
 6992TIP3   OH220939   3.902   0.647   1.879 -0.2109  0.2648  0.8792
 6992TIP3    H120940   3.909   0.720   1.817  0.9095 -0.9703 -0.5082
 6992TIP3    H220941   3.828   0.671   1.935 -0.6146  1.9104 -0.2741
 6993TIP3   OH220942   3.578   6.458   4.575  0.2400 -0.3046 -0.0478
 6993TIP3    H120943   3.544   6.514   4.646  1.8314 -1.3579  1.6329
 6993TIP3    H220944   3.533   6.374   4.587 -1.1281  0.1297 -1.7218
 6994TIP3   OH220945   2.906   4.636   5.809 -0.3227  0.3984  0.0418
 6994TIP3    H120946   2.929   4.670   5.895  0.3125 -0.8873  0.4067
 6994TIP3    H220947   2.960   4.557   5.799  1.0836  1.5418 -2.3411
 6995TIP3   OH220948   0.725   3.234   1.781  0.3699  0.3133  0.2575
 6995TIP3    H120949   0.809   3.225   1.824  0.5028 -0.8482 -0.2282
 6995TIP3    H220950   0.741   3.295   1.709  1.0957 -0.7992 -0.5549
 6996TIP3   OH220951   1.857   1.653   2.264 -0.2456  0.0554  0.0266
 6996TIP3    H120952   1.927   1.668   2.327  0.6979  0.0447 -0.9855
 6996TIP3    H220953   1.830   1.562   2.280  0.1255 -0.0120  0.2883
 6997TIP3   OH220954   5.692   6.216   2.790 -0.0297 -0.0219 -0.0096
 6997TIP3    H120955   5.669   6.134   2.745 -0.3991 -0.0970  0.3196
 6997TIP3    H220956   5.657   6.206   2.878 -2.1743  1.4424 -0.6146
 6998TIP3   OH220957   1.897   2.683   3.266  0.2241 -0.6137  0.5475
 6998TIP3    H120958   1.807   2.712   3.278  0.0290 -1.7142  2.0911
 6998TIP3    H220959   1.937   2.750   3.210 -1.3733  0.2099  0.3422
 6999TIP3   OH220960   7.169   1.763   2.368  0.0224 -0.3557  0.3106
 6999TIP3    H120961   7.138   1.707   2.439 -0.0930  0.7554  1.1742
 6999TIP3    H220962   7.243   1.716   2.330  0.3536 -0.7840  1.4478
 7000TIP3   OH220963   5.751   4.853   4.167  0.2157  0.0818 -0.0382
 7000TIP3    H120964   5.745   4.786   4.098  0.8845  0.1097 -0.1312
 7000TIP3    H220965   5.776   4.805   4.245  1.3477  0.2959 -0.2509
 7001TIP3   OH220966   5.194   4.587   0.049 -0.6606  0.0513  0.2633
 7001TIP3    H120967   5.283   4.554   0.048 -1.3494 -2.0038 -1.2695
 7001TIP3    H220968   5.142   4.514   0.082 -2.2085 -0.3815 -2.7716
 7002TIP3   OH220969   1.851   4.539   2.118  0.1052  0.3521 -0.7450
 7002TIP3    H120970   1.800   4.514   2.041  0.1797 -2.1830 -0.0619
 7002TIP3    H220971   1.787   4.538   2.190  0.4442  0.6784 -0.4317
 7003TIP3   OH220972   4.630   6.650   0.828 -0.1171 -0.7848 -0.6415
 7003TIP3    H120973   4.577   6.571   0.820 -0.6594 -0.4954 -0.0025
 7003TIP3    H220974   4.681   6.653   0.747 -0.4723 -1.5074 -0.9003
 7004TIP3   OH220975   4.274   1.157   3.603 -0.9182 -0.6170 -0.2646
 7004TIP3    H120976   4.200   1.164   3.543 -1.5050 -0.7160  0.4355
 7004TIP3    H220977   4.350   1.141   3.546 -1.3922 -0.2796 -1.0033
 7005TIP3   OH220978   6.522   4.187   3.301  0.4233 -0.3092  0.1917
 7005TIP3    H120979   6.573   4.131   3.360 -1.7268 -0.1403  2.3868
 7005TIP3    H220980   6.443   4.136   3.283  0.4759  0.1855 -1.5897
 7006TIP3   OH220981   0.108   2.349   1.000  0.8054  0.3092  0.1558
 7006TIP3    H120982   0.051   2.419   0.970  2.6256  0.8463 -2.3985
 7006TIP3    H220983   0.188   2.394   1.028  1.3343 -0.6456  0.2213
 7007TIP3   OH220984   4.802   1.604   0.412 -0.4578 -0.5220 -0.6891
 7007TIP3    H120985   4.772   1.687   0.372 -0.8519 -0.1007  0.4509
 7007TIP3    H220986   4.787   1.539   0.343  1.9297  0.6353 -2.4657
 7008TIP3   OH220987   5.748   1.227   4.333  0.0363 -0.1235 -0.0449
 7008TIP3    H120988   5.699   1.309   4.329 -2.4466 -1.5512 -2.8399
 7008TIP3    H220989   5.709   1.180   4.407  0.2458  0.4960  0.4652
 7009TIP3   OH220990   2.616   4.957   2.182 -0.6187  0.1724 -1.2228
 7009TIP3    H120991   2.582   5.029   2.128 -2.1524  0.7852  0.4401
 7009TIP3    H220992   2.556   4.953   2.256  1.1451 -0.8957  0.2407
 7010TIP3   OH220993   5.936   4.474   3.078 -0.2428 -0.0642  0.4816
 7010TIP3    H120994   5.856   4.494   3.029 -0.2960 -1.1792  0.1026
 7010TIP3    H220995   5.968   4.560   3.106 -1.1657  0.4534  0.0034
 7011TIP3   OH220996   1.267   5.327   5.018 -0.1261  0.5680  0.0826
 7011TIP3    H120997   1.194   5.269   4.995 -0.0106  0.3731  0.2155
 7011TIP3    H220998   1.345   5.273   5.010 -0.0132  0.7198  0.1529
 7012TIP3   OH220999   5.284   5.438   1.034  0.1464  0.2399  0.1754
 7012TIP3    H121000   5.211   5.497   1.013 -0.2053 -0.7305 -1.4794
 7012TIP3    H221001   5.361   5.480   0.997 -0.1048 -0.2875 -1.0079
 7013TIP3   OH221002   5.391   2.898   3.158  0.1802 -0.0017  0.1868
 7013TIP3    H121003   5.315   2.903   3.215 -0.0279 -2.4939  0.2628
 7013TIP3    H221004   5.357   2.914   3.070 -0.3602 -0.5953  0.2809
 7014TIP3   OH221005   2.345   5.259   5.309 -0.2908 -0.0489 -0.5307
 7014TIP3    H121006   2.399   5.330   5.273 -0.7838  0.6957  0.1576
 7014TIP3    H221007   2.372   5.254   5.401  0.2630 -1.2706 -0.7424
 7015TIP3   OH221008   4.797   4.548   3.082  0.1907 -0.5000  0.3922
 7015TIP3    H121009   4.880   4.561   3.037 -0.0097  0.8045  0.3688
 7015TIP3    H221010   4.762   4.467   3.045  1.1185 -0.6889 -0.1009
 7016TIP3   OH221011   0.281   3.940   0.434  0.3618  0.4296  0.0632
 7016TIP3    H121012   0.304   3.973   0.347  0.8761 -1.1850 -0.4466
 7016TIP3    H221013   0.358   3.890   0.462 -0.0986  0.2808  1.1242
 7017TIP3   OH221014   2.761   1.360   2.532 -0.3005  0.4380 -0.1507
 7017TIP3    H121015   2.821   1.289   2.511 -2.2597 -1.6035  0.7584
 7017TIP3    H221016   2.746   1.352   2.626 -1.3242  1.4147 -0.2050
 7018TIP3   OH221017   0.197   3.274   0.784  0.6865 -0.7042 -0.4778
 7018TIP3    H121018   0.132   3.285   0.714  1.5356 -1.1688 -1.3562
 7018TIP3    H221019   0.145   3.251   0.861 -0.3252  0.3935 -0.7930
 7019TIP3   OH221020   2.564   5.938   1.751 -0.2666  0.1132  0.0915
 7019TIP3    H121021   2.519   5.959   1.832 -0.1721 -0.4681  0.3013
 7019TIP3    H221022   2.624   5.867   1.774  1.7460  1.7458  0.1196
 7020TIP3   OH221023   3.520   0.146   5.537  0.4650  0.1213 -0.2686
 7020TIP3    H121024   3.446   0.205   5.522  1.3945  1.2146 -0.6961
 7020TIP3    H221025   3.481   0.059   5.537 -0.8853  0.6918 -0.0423
 7021TIP3   OH221026   2.331   2.661   5.135 -0.5719 -0.4837 -0.3337
 7021TIP3    H121027   2.275   2.604   5.189  0.7701 -0.6604  0.9234
 7021TIP3    H221028   2.355   2.733   5.193  2.8442 -1.8691  0.2525
 7022TIP3   OH221029   5.559   4.448   4.927  0.3670  0.3471 -0.1592
 7022TIP3    H121030   5.645   4.485   4.946  0.6276 -0.6701  0.6908
 7022TIP3    H221031   5.538   4.394   5.003 -1.1372  0.7663 -0.2409
 7023TIP3   OH221032   0.974   5.126   0.402 -0.8994  0.3643 -0.0051
 7023TIP3    H121033   0.985   5.067   0.477  1.0824 -0.2770 -0.7462
 7023TIP3    H221034   1.011   5.209   0.431  1.8162 -0.4361 -0.8476
 7024TIP3   OH221035   0.505   5.906   5.385 -0.4328 -0.2503  0.3662
 7024TIP3    H121036   0.561   5.894   5.462 -1.1698  1.1448  1.1678
 7024TIP3    H221037   0.536   5.989   5.347  0.0957 -1.0488 -1.0237
 7025TIP3   OH221038   2.104   5.711  -0.009 -0.1376 -0.6258 -1.0064
 7025TIP3    H121039   2.091   5.729   0.084 -0.0617 -1.1057 -0.9010
 7025TIP3    H221040   2.172   5.644  -0.011  2.1018  1.4954 -1.5244
 7026TIP3   OH221041   4.920   3.786   3.300 -0.0165  0.2100 -0.5005
 7026TIP3    H121042   4.962   3.850   3.357 -1.4915  1.8057 -1.1056
 7026TIP3    H221043   4.838   3.828   3.273 -0.2481 -1.2598 -2.2842
 7027TIP3   OH221044   4.954   6.163   2.468  0.5486 -0.6979  0.0203
 7027TIP3    H121045   4.917   6.090   2.518 -0.1437 -1.0031 -0.9191
 7027TIP3    H221046   4.940   6.140   2.376 -0.0874  0.8135 -0.2908
 7028TIP3   OH221047   6.583   0.339   2.448  0.1273  0.3764 -0.1200
 7028TIP3    H121048   6.506   0.391   2.424 -0.6003 -0.3863  0.5164
 7028TIP3    H221049   6.638   0.399   2.497 -0.6812  0.5926  0.5612
 7029TIP3   OH221050   4.082   5.183   1.304 -0.1570 -0.1499  1.0082
 7029TIP3    H121051   4.068   5.092   1.276 -1.3053 -0.0076  1.0799
 7029TIP3    H221052   4.032   5.191   1.385 -1.6272  1.0591  0.0321
 7030TIP3   OH221053   6.060   3.149   3.673 -0.1503 -0.2071 -0.4951
 7030TIP3    H121054   6.155   3.143   3.685 -0.1845  1.2259  0.8875
 7030TIP3    H221055   6.025   3.072   3.718  0.2563  0.6620  1.4240
 7031TIP3   OH221056   4.959   0.450   0.934 -0.5055 -0.8022 -0.2831
 7031TIP3    H121057   4.889   0.456   0.870 -0.2113 -2.0275 -0.7314
 7031TIP3    H221058   5.040   0.458   0.883 -0.2719  1.1008  0.2760
 7032TIP3   OH221059   5.714   5.724   3.512 -0.1975 -0.0858  0.5150
 7032TIP3    H121060   5.660   5.645   3.521  1.6281 -1.4621 -0.1565
 7032TIP3    H221061   5.672   5.773   3.441 -0.0170 -1.6292 -0.7099
 7033TIP3   OH221062   1.319   3.240   0.541  0.2187 -0.2318  0.1707
 7033TIP3    H121063   1.323   3.304   0.471 -0.3981 -0.5914 -0.2008
 7033TIP3    H221064   1.396   3.258   0.595  1.5607 -0.8910 -1.4245
 7034TIP3   OH221065   3.804   6.560   5.725  0.9871  0.1600  0.2025
 7034TIP3    H121066   3.759   6.598   5.650  1.1064  0.9053  0.4955
 7034TIP3    H221067   3.888   6.606   5.728  0.8373  0.4009  1.0043
 7035TIP3   OH221068   4.311   4.044   2.323  0.1299  0.0892 -0.1439
 7035TIP3    H121069   4.328   4.028   2.416  0.2925  0.4528 -0.1066
 7035TIP3    H221070   4.364   3.979   2.278  1.2979  0.8964 -0.0149
 7036TIP3   OH221071   5.039   1.348   1.880  0.0804 -0.0341 -0.5090
 7036TIP3    H121072   5.060   1.334   1.973  0.8196 -0.1957 -0.6919
 7036TIP3    H221073   4.946   1.368   1.879  0.5509  2.7556  0.6002
 7037TIP3   OH221074   6.446   1.876   5.320 -1.0075  0.0499 -0.1595
 7037TIP3    H121075   6.402   1.813   5.377 -0.0810 -0.1867  0.3193
 7037TIP3    H221076   6.537   1.876   5.350 -0.9143  1.3569 -0.4007
 7038TIP3   OH221077   1.613   5.186   1.094  0.3275 -0.0071 -0.7477
 7038TIP3    H121078   1.592   5.279   1.084  1.0059  0.0850 -1.3923
 7038TIP3    H221079   1.620   5.173   1.188  0.9504  0.7698 -0.6781
 7039TIP3   OH221080   4.572   4.646   1.975 -0.0000 -0.3848  0.3440
 7039TIP3    H121081   4.557   4.688   1.890 -0.7772 -1.8438 -0.2824
 7039TIP3    H221082   4.602   4.558   1.953  0.3823 -0.5882  1.5973
 7040TIP3   OH221083   1.267   4.499   5.039  0.4062  0.0844  0.0926
 7040TIP3    H121084   1.254   4.434   4.971  0.6599 -0.4113  0.5121
 7040TIP3    H221085   1.179   4.532   5.057  0.0088 -1.4604  1.1547
 7041TIP3   OH221086   5.723   4.963   1.141 -0.2269 -0.1151  0.0448
 7041TIP3    H121087   5.720   5.026   1.069  1.4813 -1.2955 -1.1607
 7041TIP3    H221088   5.692   5.012   1.217 -2.4859  1.0673 -1.5230
 7042TIP3   OH221089   1.028   6.717   2.473  0.4998  0.0465 -0.3455
 7042TIP3    H121090   1.020   6.750   2.383 -1.8309  1.7186  0.3839
 7042TIP3    H221091   1.074   6.787   2.520  0.6881 -0.3139  0.0105
 7043TIP3   OH221092   4.607   3.394   4.675 -0.7547 -0.3635 -0.7229
 7043TIP3    H121093   4.558   3.447   4.737 -1.8271 -1.7191 -0.3621
 7043TIP3    H221094   4.698   3.421   4.686 -1.0407  0.0114  0.8276
 7044TIP3   OH221095   3.537   1.169   4.770 -0.2071  0.5775 -0.3003
 7044TIP3    H121096   3.483   1.248   4.777 -1.4536 -0.2746  0.1343
 7044TIP3    H221097   3.513   1.117   4.847  1.9741  0.5763  0.4424
 7045TIP3   OH221098   6.390   0.809   0.087  0.2829 -0.1624  0.0094
 7045TIP3    H121099   6.404   0.872   0.158 -1.3748  1.2906 -0.8637
 7045TIP3    H221100   6.341   0.738   0.128 -1.0411  0.8624  0.2953
 7046TIP3   OH221101   2.700   1.638   0.185 -0.1578  0.5604 -0.8495
 7046TIP3    H121102   2.606   1.650   0.196 -0.4229 -1.3031 -0.6769
 7046TIP3    H221103   2.740   1.705   0.241 -1.3986  0.5959  0.0333
 7047TIP3   OH221104   2.146   4.383   1.905  0.8339 -0.0266  0.0238
 7047TIP3    H121105   2.233   4.422   1.909  0.8010 -0.0301  1.1613
 7047TIP3    H221106   2.115   4.385   1.996 -0.0812 -0.6318 -0.2628
 7048TIP3   OH221107   0.452   0.725   2.939 -0.5981  0.5800 -0.1910
 7048TIP3    H121108   0.458   0.657   3.006  0.5266  0.2765 -0.5869
 7048TIP3    H221109   0.538   0.727   2.898 -0.8412  1.7316 -0.6953
 7049TIP3   OH221110   0.483   6.018   1.474  0.0382 -0.1853  0.5281
 7049TIP3    H121111   0.414   6.085   1.469  0.1997 -0.0167  0.5586
 7049TIP3    H221112   0.436   5.938   1.498 -0.1451 -0.0650  0.5752
 7050TIP3   OH221113   4.588   6.138   4.892 -0.2636 -0.1464  0.7959
 7050TIP3    H121114   4.631   6.194   4.828 -2.3678  0.5494 -0.0965
 7050TIP3    H221115   4.628   6.052   4.879 -0.8300 -0.1054 -1.7073
 7051TIP3   OH221116   4.400   3.919   2.622 -0.7999  0.0680  0.7645
 7051TIP3    H121117   4.335   3.886   2.685 -1.4509 -0.1875 -0.0233
 7051TIP3    H221118   4.424   3.842   2.570  1.2950 -0.1972  1.9940
 7052TIP3   OH221119   0.351   4.734   2.966  0.3923 -0.2707  0.5529
 7052TIP3    H121120   0.428   4.693   2.928  0.3957 -0.3679  0.6639
 7052TIP3    H221121   0.316   4.668   3.027 -0.8439 -0.9835 -0.8695
 7053TIP3   OH221122   6.057   2.792   4.623  0.3656  0.1675  0.2298
 7053TIP3    H121123   6.109   2.765   4.699  0.3512 -1.8721 -0.4265
 7053TIP3    H221124   5.968   2.800   4.657  0.4231 -0.3623  0.5108
 7054TIP3   OH221125   3.995   5.777   5.543  0.0411 -0.2558  0.4740
 7054TIP3    H121126   3.988   5.862   5.499  1.5822 -0.4040 -0.1081
 7054TIP3    H221127   3.992   5.799   5.636  0.3061  0.4400  0.3281
 7055TIP3   OH221128   3.111   2.243   3.037  0.2508  0.0235  0.6251
 7055TIP3    H121129   3.081   2.194   3.114 -0.4996  0.7140  0.7949
 7055TIP3    H221130   3.128   2.331   3.070 -0.9727  0.5784 -0.1615
 7056TIP3   OH221131   0.734   4.706   0.431 -0.5325  0.0038 -0.1408
 7056TIP3    H121132   0.735   4.749   0.516 -0.0678 -2.8882  1.4434
 7056TIP3    H221133   0.735   4.778   0.367 -2.9347  2.3546  2.2003
 7057TIP3   OH221134   1.786   3.740   5.395  0.1169 -0.0006 -0.0414
 7057TIP3    H121135   1.745   3.795   5.461 -1.2871  0.7200 -1.4410
 7057TIP3    H221136   1.789   3.795   5.316 -2.4596 -2.1738 -1.8680
 7058TIP3   OH221137   3.105   6.031   3.694  0.1178 -0.0565 -0.0498
 7058TIP3    H121138   3.132   6.115   3.729 -1.2026 -0.2082  1.4679
 7058TIP3    H221139   3.055   6.053   3.615 -1.6975  0.7660  1.2591
 7059TIP3   OH221140   5.984   1.197   4.457 -0.6468  0.5046  0.1842
 7059TIP3    H121141   5.973   1.116   4.507  1.4558 -0.4392 -0.7281
 7059TIP3    H221142   5.914   1.195   4.392  0.6891 -1.8829 -1.3439
 7060TIP3   OH221143   3.739   6.670   1.425 -0.3749 -0.1669 -0.1557
 7060TIP3    H121144   3.763   6.760   1.447 -0.5653  0.2227 -1.4440
 7060TIP3    H221145   3.805   6.642   1.361 -0.4578 -0.8493  0.0558
 7061TIP3   OH221146   7.108   6.502   2.695 -0.1641  0.1023 -0.1735
 7061TIP3    H121147   7.110   6.554   2.775  2.4837  0.4704 -0.3938
 7061TIP3    H221148   7.160   6.424   2.715 -0.2180 -0.2271 -1.2495
 7062TIP3   OH221149   5.781   6.153   0.045  0.3387  0.3224  0.0486
 7062TIP3    H121150   5.757   6.171   0.136  0.0154  1.3408 -0.2219
 7062TIP3    H221151   5.870   6.186   0.036  0.1781  0.7104 -0.1404
 7063TIP3   OH221152   5.134   1.681   0.845  0.3647  0.2811 -0.1636
 7063TIP3    H121153   5.066   1.717   0.788 -0.5844  0.0027  0.7608
 7063TIP3    H221154   5.162   1.601   0.801  1.8295  1.5561 -1.7600
 7064TIP3   OH221155   7.123   1.915   3.997  0.1740  0.2484 -0.1933
 7064TIP3    H121156   7.045   1.967   4.019 -0.2868  0.0556 -1.3102
 7064TIP3    H221157   7.132   1.924   3.902  0.4893 -1.1395 -0.3150
 7065TIP3   OH221158   7.069   0.449   4.991 -0.4491 -0.0830 -0.3454
 7065TIP3    H121159   7.123   0.378   5.023  0.2138  0.0823 -1.0511
 7065TIP3    H221160   7.010   0.470   5.063 -0.2535 -0.9455  0.0737
 7066TIP3   OH221161   2.314   5.522   4.509 -0.2599 -0.1994 -0.4272
 7066TIP3    H121162   2.378   5.532   4.580  1.2261 -0.0816 -1.7089
 7066TIP3    H221163   2.253   5.594   4.521  0.3682  0.2300  0.3269
 7067TIP3   OH221164   3.815   0.116   3.005 -0.2254 -0.4046  0.5364
 7067TIP3    H121165   3.787   0.066   2.927 -0.0950 -0.3391  0.4478
 7067TIP3    H221166   3.734   0.157   3.037 -0.5722 -1.6422  1.3205
 7068TIP3   OH221167   3.123   3.734   4.033  0.0106  0.1235  0.0883
 7068TIP3    H121168   3.203   3.786   4.043 -0.2186  0.1290  2.4322
 7068TIP3    H221169   3.087   3.761   3.948  2.8086 -0.3909 -1.3678
 7069TIP3   OH221170   1.944   1.767   5.345 -0.0187 -0.2857 -0.1317
 7069TIP3    H121171   2.036   1.794   5.350 -0.5722  2.5471 -2.3059
 7069TIP3    H221172   1.904   1.804   5.424  0.5721 -1.0158  0.5226
 7070TIP3   OH221173   3.512   5.049   3.741  0.4364  0.2802  0.1832
 7070TIP3    H121174   3.545   5.130   3.780  0.2141  0.7986 -0.6797
 7070TIP3    H221175   3.536   4.981   3.803  0.7639  0.9893  0.8480
 7071TIP3   OH221176   3.061   3.288   3.012  0.1139 -0.1638 -0.3656
 7071TIP3    H121177   3.127   3.283   2.944 -1.3762 -1.0698 -1.8329
 7071TIP3    H221178   3.010   3.366   2.992  0.9091  0.7505  0.9814
 7072TIP3   OH221179   3.991   3.418   3.930  0.1266 -0.1370 -0.1874
 7072TIP3    H121180   4.022   3.330   3.949 -0.9868 -0.4437  0.3168
 7072TIP3    H221181   4.045   3.448   3.857  1.2826 -0.7844  0.3846
 7073TIP3   OH221182   4.879   3.760   5.662  0.0254 -0.0878 -0.2592
 7073TIP3    H121183   4.884   3.771   5.567  2.1844  1.0379 -0.0763
 7073TIP3    H221184   4.854   3.847   5.695 -1.5254 -0.6642  0.2095
 7074TIP3   OH221185  -0.009   3.140   1.401 -0.1313 -0.0741  0.4390
 7074TIP3    H121186   0.002   3.225   1.445  0.4731 -0.4998  1.1481
 7074TIP3    H221187   0.068   3.132   1.345 -0.4773  0.0951 -0.0624
 7075TIP3   OH221188   3.267   0.249   3.868 -0.4575  0.0678  0.0977
 7075TIP3    H121189   3.303   0.163   3.891  1.5003  0.6172 -0.6278
 7075TIP3    H221190   3.173   0.235   3.863 -0.2914 -1.7743  1.0522
 7076TIP3   OH221191   6.416   3.894   2.029  0.5535 -0.0693  0.3561
 7076TIP3    H121192   6.505   3.890   1.993  1.0872  0.5263  1.5276
 7076TIP3    H221193   6.373   3.963   1.979  1.4496  1.1106  1.1563
 7077TIP3   OH221194   3.519   4.429   5.831  0.0297 -0.3880 -0.0408
 7077TIP3    H121195   3.578   4.356   5.848 -0.3444 -1.1499 -1.7749
 7077TIP3    H221196   3.577   4.502   5.810  0.4081 -0.0890  1.8700
 7078TIP3   OH221197   2.416   3.257   2.435 -0.2347  0.8634 -0.5971
 7078TIP3    H121198   2.363   3.331   2.406 -0.2378  0.5684 -1.3594
 7078TIP3    H221199   2.507   3.286   2.423 -0.2334  0.4301 -1.7477
 7079TIP3   OH221200   4.217   3.365   4.644 -0.8581 -0.6054 -0.1930
 7079TIP3    H121201   4.204   3.413   4.563 -0.8186  0.2053  0.2764
 7079TIP3    H221202   4.128   3.342   4.673 -1.4871  3.8965  2.3830
 7080TIP3   OH221203   5.800   2.234   2.371  0.2228  1.1404 -0.5375
 7080TIP3    H121204   5.724   2.189   2.333 -0.3706  1.2707  0.4744
 7080TIP3    H221205   5.873   2.175   2.352 -0.1238  0.9759 -1.4563
 7081TIP3   OH221206   3.801   1.732   0.301  0.3733 -0.0475  0.0220
 7081TIP3    H121207   3.712   1.763   0.284  0.2120 -0.5009  0.0367
 7081TIP3    H221208   3.790   1.641   0.327  0.8480 -0.1139 -0.0089
 7082TIP3   OH221209   0.743   5.313   3.454  0.2089  0.1970  0.7240
 7082TIP3    H121210   0.756   5.223   3.485  2.9273  0.2461 -0.0090
 7082TIP3    H221211   0.648   5.325   3.453 -0.2116 -2.5041  1.2579
 7083TIP3   OH221212   0.065   6.414   1.231 -0.5559 -0.6289  0.2845
 7083TIP3    H121213   0.010   6.489   1.210  1.1387  0.6662  0.2800
 7083TIP3    H221214   0.096   6.383   1.146 -1.8686 -1.8717  0.2223
 7084TIP3   OH221215   0.858   4.712   4.392  0.0072  0.0212 -0.4603
 7084TIP3    H121216   0.925   4.775   4.365 -1.3463  2.7923  1.9886
 7084TIP3    H221217   0.791   4.719   4.324 -0.0366  1.1536 -0.3316
 7085TIP3   OH221218   1.762   0.554   5.327 -0.2746 -0.5860 -0.6289
 7085TIP3    H121219   1.676   0.514   5.314  0.2904 -2.1505  0.1203
 7085TIP3    H221220   1.767   0.569   5.421  0.4582 -1.0138 -0.5874
 7086TIP3   OH221221   3.175   2.933   4.624  0.0711  0.1412 -0.4089
 7086TIP3    H121222   3.189   2.921   4.530 -2.6016 -0.9974 -0.7308
 7086TIP3    H221223   3.103   2.995   4.630 -0.8199 -0.9582  0.8322
 7087TIP3   OH221224   5.763   4.879   1.879 -0.4037 -0.2820  0.0666
 7087TIP3    H121225   5.683   4.844   1.840 -1.7961  2.9947 -0.3991
 7087TIP3    H221226   5.819   4.899   1.804  0.7038 -2.1067  0.3658
 7088TIP3   OH221227   6.512   5.094   3.861 -0.1868  0.1308  0.3754
 7088TIP3    H121228   6.510   5.189   3.850 -0.8655 -0.0593 -1.6386
 7088TIP3    H221229   6.423   5.071   3.890 -0.3003  0.0566 -0.0129
 7089TIP3   OH221230   1.456   4.398   1.931 -0.3549 -0.4957 -0.2165
 7089TIP3    H121231   1.529   4.338   1.941  0.5294  0.0966 -2.5256
 7089TIP3    H221232   1.385   4.344   1.896 -0.3205 -0.6549 -0.0401
 7090TIP3   OH221233   4.161   2.497   2.356 -0.5334 -0.1505  0.2670
 7090TIP3    H121234   4.090   2.548   2.396  0.5903  1.2515  0.5827
 7090TIP3    H221235   4.207   2.561   2.302  0.4462 -1.0540  0.0239
 7091TIP3   OH221236   3.555   5.699   0.150 -0.3369 -0.0494 -0.0335
 7091TIP3    H121237   3.561   5.645   0.229  0.6696  1.3946  0.9181
 7091TIP3    H221238   3.471   5.743   0.156  0.8277  2.1681  1.7308
 7092TIP3   OH221239   1.876   0.196   4.848  0.0453  0.1882 -0.0734
 7092TIP3    H121240   1.794   0.208   4.799  0.3337  2.3054 -0.1432
 7092TIP3    H221241   1.854   0.220   4.938  0.6835  1.2546 -0.1897
 7093TIP3   OH221242   3.968   0.271   5.586  1.1370  0.2929 -0.4999
 7093TIP3    H121243   3.922   0.247   5.505  0.6407  1.4743 -0.6015
 7093TIP3    H221244   3.902   0.260   5.655  0.4822  2.4095 -0.7002
 7094TIP3   OH221245   0.185   5.816   0.499 -0.3187 -0.3321  0.9564
 7094TIP3    H121246   0.198   5.753   0.428  0.3455  1.0002 -0.1476
 7094TIP3    H221247   0.243   5.786   0.569  1.3832  0.0186 -0.2322
 7095TIP3   OH221248   5.563   4.814   2.180 -0.6097 -0.3277  0.6469
 7095TIP3    H121249   5.547   4.806   2.086  3.2033  0.2760 -0.2326
 7095TIP3    H221250   5.525   4.735   2.218 -2.5370 -0.4208 -1.3047
 7096TIP3   OH221251   0.561   3.941   3.689 -0.7634  0.0616  0.3078
 7096TIP3    H121252   0.622   3.950   3.762 -1.9255  1.1314  1.1857
 7096TIP3    H221253   0.497   3.876   3.719 -0.8199 -0.0609 -0.0686
 7097TIP3   OH221254   3.544   3.905   2.844 -0.3840 -0.0157  0.6301
 7097TIP3    H121255   3.586   3.879   2.762 -0.8448  3.4835 -0.9016
 7097TIP3    H221256   3.608   3.962   2.886  0.0144 -2.0569  3.0602
 7098TIP3   OH221257   6.609   2.793   0.450  0.0097 -0.4066 -0.0303
 7098TIP3    H121258   6.701   2.807   0.470 -0.1408 -0.9081  1.0876
 7098TIP3    H221259   6.606   2.707   0.408  0.1021 -0.1581 -0.5597
 7099TIP3   OH221260   0.951   0.730   3.151  0.6896 -0.2500  0.1754
 7099TIP3    H121261   0.921   0.731   3.242  0.4748 -0.5836  0.1101
 7099TIP3    H221262   0.929   0.818   3.119 -0.5081 -0.5715  0.0485
 7100TIP3   OH221263   0.825   4.340   3.758  0.1053  0.6740 -0.5006
 7100TIP3    H121264   0.830   4.321   3.664 -0.1004  1.8260 -0.7615
 7100TIP3    H221265   0.885   4.414   3.771 -0.0671  0.6994  0.2212
 7101TIP3   OH221266   4.313   1.488   2.023 -0.4154  0.0336  0.0717
 7101TIP3    H121267   4.322   1.507   2.117 -0.0961  1.3027 -0.1942
 7101TIP3    H221268   4.286   1.572   1.985  1.4852  0.0905 -1.2577
 7102TIP3   OH221269   2.774   6.512   1.536  0.1255  0.3892  0.6507
 7102TIP3    H121270   2.811   6.550   1.616  1.3313 -2.2964  1.4989
 7102TIP3    H221271   2.713   6.446   1.568  2.3914 -2.4514 -0.4565
 7103TIP3   OH221272   5.453   1.941   4.255 -0.6991  0.6253  0.0729
 7103TIP3    H121273   5.531   1.961   4.204 -0.8823  0.7351 -0.1685
 7103TIP3    H221274   5.395   1.896   4.193  1.1422 -4.2629  1.4030
 7104TIP3   OH221275   4.325   1.864   2.412  0.1020  0.4977  0.2669
 7104TIP3    H121276   4.380   1.941   2.423 -1.5706  1.6975  0.5099
 7104TIP3    H221277   4.272   1.883   2.334  0.8402 -1.1649 -0.7100
 7105TIP3   OH221278   5.707   4.525   2.894 -0.1216  0.2040 -0.5853
 7105TIP3    H121279   5.650   4.592   2.854 -0.0699 -0.4088 -1.7181
 7105TIP3    H221280   5.689   4.446   2.844  0.8997 -0.2822 -0.1941
 7106TIP3   OH221281   3.937   5.002   2.677 -0.1567  0.2161  0.2696
 7106TIP3    H121282   3.941   5.086   2.724 -1.8547 -0.3126  1.4695
 7106TIP3    H221283   3.871   5.017   2.608 -0.2972 -0.0686  0.3432
 7107TIP3   OH221284   1.357   5.434   0.143 -0.1313 -0.3509  0.0947
 7107TIP3    H121285   1.366   5.515   0.093 -1.6087 -0.5163 -0.4862
 7107TIP3    H221286   1.396   5.454   0.228  0.0250  0.7870 -0.2276
 7108TIP3   OH221287   3.894   5.395   0.549  0.5866 -0.3753  0.7996
 7108TIP3    H121288   3.817   5.448   0.568  0.2819  0.7586 -2.7730
 7108TIP3    H221289   3.859   5.313   0.513  1.0014 -0.1722 -0.1005
 7109TIP3   OH221290   0.155   2.588   5.045 -0.2341  0.5302 -0.6993
 7109TIP3    H121291   0.202   2.624   4.970 -0.8326 -0.2723 -1.4830
 7109TIP3    H221292   0.218   2.530   5.087 -0.6740 -1.0661 -2.1343
 7110TIP3   OH221293   0.455   5.485   0.239 -0.9595  0.4642 -0.0791
 7110TIP3    H121294   0.501   5.491   0.155 -1.6304  1.4302 -0.3977
 7110TIP3    H221295   0.505   5.542   0.297  0.8578 -1.9327  0.8766
 7111TIP3   OH221296   3.779   1.481   0.869 -0.6751  0.6242 -0.1132
 7111TIP3    H121297   3.766   1.388   0.888  1.2050  0.4143  0.3164
 7111TIP3    H221298   3.858   1.483   0.815 -1.8681  1.8248 -1.9639
 7112TIP3   OH221299   1.303   5.528   0.831  0.3599  0.1629 -0.0687
 7112TIP3    H121300   1.297   5.587   0.756  0.6679  2.0509  1.3469
 7112TIP3    H221301   1.226   5.472   0.823  0.5086  0.1361 -1.8986
 7113TIP3   OH221302   3.037   5.266   5.682  0.5132  0.2168 -0.2341
 7113TIP3    H121303   3.040   5.308   5.596 -1.2650  0.7118 -0.0955
 7113TIP3    H221304   2.956   5.298   5.722  0.8743 -0.6567  1.2970
 7114TIP3   OH221305   3.732   1.054   5.400 -0.4816  0.0138  0.0461
 7114TIP3    H121306   3.714   0.960   5.412  1.7787 -0.4173  0.3702
 7114TIP3    H221307   3.708   1.071   5.309  0.5118 -1.2712 -0.4911
 7115TIP3   OH221308   4.577   3.761   4.633 -0.3897 -0.4710 -0.0350
 7115TIP3    H121309   4.513   3.729   4.569 -0.3051 -1.5981  0.4186
 7115TIP3    H221310   4.660   3.760   4.586 -0.4153 -0.7859 -0.0810
 7116TIP3   OH221311   0.381   4.148   3.715  0.2504 -0.7155 -0.3363
 7116TIP3    H121312   0.431   4.227   3.695 -0.5763 -0.3346 -0.9741
 7116TIP3    H221313   0.443   4.076   3.700  1.3512 -0.1702  1.3509
 7117TIP3   OH221314   1.918   4.352   4.982  0.8262  0.5802 -0.2827
 7117TIP3    H121315   2.007   4.365   4.949  0.7175 -0.7143 -1.1518
 7117TIP3    H221316   1.929   4.341   5.077  1.8349 -1.2434 -0.5556
 7118TIP3   OH221317   4.782   4.234   1.750  0.1248 -0.3934  0.0745
 7118TIP3    H121318   4.764   4.187   1.669 -0.4207  0.8388 -0.5540
 7118TIP3    H221319   4.859   4.287   1.731  0.7463 -1.0314  0.7776
 7119TIP3   OH221320   6.938   4.890   1.809 -0.5233  0.2065  0.1403
 7119TIP3    H121321   6.879   4.893   1.884  0.6536 -1.1632  1.1814
 7119TIP3    H221322   7.016   4.936   1.838 -0.4617  0.6055 -0.6405
 7120TIP3   OH221323   4.987   2.847   1.916 -0.1511 -0.2693 -0.8349
 7120TIP3    H121324   4.986   2.798   1.998  0.1087 -3.1157 -2.3878
 7120TIP3    H221325   4.897   2.877   1.904  0.0229  1.0631  0.9195
 7121TIP3   OH221326   6.691   2.897   3.572  0.5318  0.3172  0.1821
 7121TIP3    H121327   6.651   2.938   3.495  2.0493  1.1851 -0.1967
 7121TIP3    H221328   6.656   2.946   3.646 -2.7794 -2.0134  0.3544
 7122TIP3   OH221329   3.083   6.053   2.425 -1.1293 -1.1445 -0.4676
 7122TIP3    H121330   3.091   5.959   2.440 -3.2696 -0.9890  2.5621
 7122TIP3    H221331   3.167   6.089   2.454 -1.9611 -1.8150  3.3705
 7123TIP3   OH221332   0.539   6.388   4.252  0.3339  0.4835  0.2803
 7123TIP3    H121333   0.470   6.342   4.300  1.5209 -1.0816  0.5754
 7123TIP3    H221334   0.619   6.368   4.300  1.3947 -0.0615 -1.6037
 7124TIP3   OH221335   2.556   6.105   0.237  0.2621  0.5669 -0.1189
 7124TIP3    H121336   2.535   6.196   0.216 -2.3495 -0.1712 -1.0739
 7124TIP3    H221337   2.505   6.086   0.315  0.5965 -0.1424 -0.0663
 7125TIP3   OH221338   3.169   2.665   3.486 -0.2904  0.1770 -0.3360
 7125TIP3    H121339   3.174   2.701   3.397  2.5693 -0.6102 -0.5865
 7125TIP3    H221340   3.165   2.743   3.542 -1.3765  0.6901 -1.0644
 7126TIP3   OH221341   2.928   3.498   2.030  0.6435 -0.0172  0.2327
 7126TIP3    H121342   2.874   3.521   1.954 -0.2596 -0.8707  0.5912
 7126TIP3    H221343   2.924   3.574   2.087  0.9188  0.4371 -0.3359
 7127TIP3   OH221344   4.225   0.299   3.210  0.0406  0.3026 -0.2298
 7127TIP3    H121345   4.135   0.273   3.229 -0.1765  0.1760 -1.3615
 7127TIP3    H221346   4.217   0.363   3.140  0.8763 -0.2357 -0.8342
 7128TIP3   OH221347   4.305   6.701   5.063  0.2904 -0.1532  0.9972
 7128TIP3    H121348   4.319   6.609   5.086  0.0506 -0.9827 -1.8480
 7128TIP3    H221349   4.383   6.724   5.012 -0.0539  0.9886  0.9728
 7129TIP3   OH221350   1.722   3.533   5.224 -0.2697 -0.1161  0.2136
 7129TIP3    H121351   1.749   3.602   5.284  1.4643 -1.1006  0.6270
 7129TIP3    H221352   1.660   3.480   5.275 -2.5599  1.7086 -0.4856
 7130TIP3   OH221353   6.805   3.513   1.322 -0.0793  0.0005  0.4696
 7130TIP3    H121354   6.735   3.447   1.322 -0.7061  0.6522  0.0147
 7130TIP3    H221355   6.863   3.486   1.393 -0.8388 -0.5138  0.9111
 7131TIP3   OH221356   7.029   4.049   4.779  0.2296  0.3929  0.2967
 7131TIP3    H121357   7.113   4.093   4.794 -0.2664  1.3779  0.3059
 7131TIP3    H221358   6.995   4.032   4.867 -0.2566  1.3544  0.3025
 7132TIP3   OH221359   0.113   0.783   2.893  0.1013 -0.1036 -0.3574
 7132TIP3    H121360   0.159   0.852   2.846 -0.7976  0.8002  0.0450
 7132TIP3    H221361   0.124   0.805   2.986  0.3198 -0.8487 -0.2004
 7133TIP3   OH221362   3.131   3.289   0.347 -0.7302  0.0542  0.0248
 7133TIP3    H121363   3.051   3.334   0.320 -0.8527  0.9930  1.8198
 7133TIP3    H221364   3.124   3.283   0.442 -0.1643 -2.7714 -0.0184
 7134TIP3   OH221365   3.537   4.234   1.066 -0.6267 -0.3727  0.0989
 7134TIP3    H121366   3.571   4.323   1.076 -0.9781 -0.2473  0.1963
 7134TIP3    H221367   3.471   4.240   0.997 -0.2774 -0.6667 -0.2681
 7135TIP3   OH221368   1.288   3.043   1.841 -0.7738  0.0842 -0.3935
 7135TIP3    H121369   1.245   2.997   1.770 -1.0564 -0.7188  0.2800
 7135TIP3    H221370   1.258   3.134   1.834  1.4595  0.7506 -3.0670
 7136TIP3   OH221371   3.595   5.420   2.111 -0.8507 -0.1366 -0.5371
 7136TIP3    H121372   3.601   5.358   2.039 -0.5716 -0.4197 -0.2772
 7136TIP3    H221373   3.616   5.505   2.072  3.1044 -0.7511 -0.1345
 7137TIP3   OH221374   6.266   5.049   3.973 -0.1779 -0.1506 -0.1103
 7137TIP3    H121375   6.251   5.119   4.037  0.0894  0.5635 -0.8203
 7137TIP3    H221376   6.182   5.038   3.929 -0.0076  0.2820 -0.5482
 7138TIP3   OH221377   0.478   2.947   0.845  0.0950  0.5082  0.3251
 7138TIP3    H121378   0.465   2.979   0.756  0.3601  0.6209  0.3235
 7138TIP3    H221379   0.569   2.917   0.846 -0.0436  0.0976  0.4339
 7139TIP3   OH221380   6.812   6.558   2.004  0.3845 -0.4896 -0.2523
 7139TIP3    H121381   6.757   6.507   1.945  0.5653 -0.0084 -0.8495
 7139TIP3    H221382   6.902   6.536   1.980  0.5191  1.3731 -1.7258
 7140TIP3   OH221383   0.359   6.814   2.838  0.4204 -0.1399  0.1267
 7140TIP3    H121384   0.426   6.772   2.784  1.0039  0.1227  0.6248
 7140TIP3    H221385   0.313   6.742   2.881  0.9192 -0.3025  0.3994
 7141TIP3   OH221386   7.146   4.018   5.640 -0.1842 -0.0524 -0.6328
 7141TIP3    H121387   7.156   4.110   5.614  1.3003  0.0695  0.2247
 7141TIP3    H221388   7.070   3.987   5.591 -0.8709  1.7032 -0.7585
 7142TIP3   OH221389   3.747   5.836   3.401 -0.6294  0.1898  0.6735
 7142TIP3    H121390   3.839   5.811   3.394 -0.8469 -1.0538  1.9172
 7142TIP3    H221391   3.731   5.890   3.324  0.1253 -2.6852 -1.6695
 7143TIP3   OH221392   0.404   1.322   3.819 -0.0263  0.2840  0.1056
 7143TIP3    H121393   0.375   1.400   3.866  1.1090  0.0780  1.2204
 7143TIP3    H221394   0.323   1.281   3.788 -0.8340  0.5032  1.7871
 7144TIP3   OH221395   6.718   5.068   1.087 -0.2366  0.3665 -0.0337
 7144TIP3    H121396   6.654   5.096   1.153 -1.4194 -0.7342 -0.6731
 7144TIP3    H221397   6.797   5.048   1.137 -0.7274  0.7141  0.9039
 7145TIP3   OH221398   2.254   1.035   2.245  0.2712 -0.0897 -0.1545
 7145TIP3    H121399   2.307   1.104   2.286  0.0132  0.8818 -1.4098
 7145TIP3    H221400   2.174   1.080   2.216 -0.0021 -0.9690 -0.8009
 7146TIP3   OH221401   4.813   1.558   2.553 -0.1458 -0.2200  0.6045
 7146TIP3    H121402   4.835   1.596   2.638  1.0323  1.0987 -0.2286
 7146TIP3    H221403   4.736   1.606   2.524 -1.3453 -1.5570  1.4445
 7147TIP3   OH221404   2.871   2.576   4.015 -0.3083  0.6268 -0.8638
 7147TIP3    H121405   2.877   2.567   3.920  1.7482 -0.6519 -0.6763
 7147TIP3    H221406   2.823   2.499   4.044 -0.8469  0.9647 -0.8507
 7148TIP3   OH221407   3.056   0.750   1.572  0.5594 -0.4454 -0.2725
 7148TIP3    H121408   3.103   0.756   1.489 -0.5474  1.2317 -0.8308
 7148TIP3    H221409   2.978   0.698   1.552 -0.1445  0.6713 -0.5403
 7149TIP3   OH221410   5.744   5.998   1.417 -0.1414 -0.2354 -0.0946
 7149TIP3    H121411   5.735   6.092   1.433  0.4396  0.0639 -1.3836
 7149TIP3    H221412   5.704   5.984   1.331  0.7476 -0.9688 -0.4062
 7150TIP3   OH221413   1.994   6.416   4.088  0.3789  0.1394 -0.2036
 7150TIP3    H121414   1.961   6.406   3.999 -0.1846  0.5019 -0.0404
 7150TIP3    H221415   2.089   6.406   4.079  0.4592  1.3756 -1.0439
 7151TIP3   OH221416   1.694   2.923   2.276 -0.0651 -0.2574 -0.4304
 7151TIP3    H121417   1.763   2.947   2.214  1.3030 -0.0668  1.1020
 7151TIP3    H221418   1.633   2.870   2.224  0.8715  0.1317 -1.9954
 7152TIP3   OH221419   1.695   1.356   5.893 -0.5474  0.2828 -0.3343
 7152TIP3    H121420   1.776   1.382   5.850 -1.6582 -0.2479 -2.9576
 7152TIP3    H221421   1.665   1.280   5.843 -2.3288  0.0612  0.9789
 7153TIP3   OH221422   1.143   3.004   0.560 -0.3366  0.1552  0.0126
 7153TIP3    H121423   1.110   2.988   0.648 -2.9929  0.0020 -0.8914
 7153TIP3    H221424   1.193   3.085   0.567  0.6250 -0.5493  1.8691
 7154TIP3   OH221425   6.430   1.581   3.109  0.4147  0.0158  0.2792
 7154TIP3    H121426   6.465   1.496   3.085  2.8356  0.8430  0.6513
 7154TIP3    H221427   6.421   1.578   3.204 -0.1023 -0.0008  0.2378
 7155TIP3   OH221428   1.980   6.666   5.269  0.1373  0.0901 -0.2764
 7155TIP3    H121429   1.895   6.680   5.312  1.0123  0.8491  1.3332
 7155TIP3    H221430   2.044   6.686   5.338  1.6251 -2.2846 -0.8869
 7156TIP3   OH221431   6.194   1.788   4.234 -0.0518  0.3491  0.6288
 7156TIP3    H121432   6.137   1.832   4.171  0.0524 -1.0127 -0.4779
 7156TIP3    H221433   6.211   1.702   4.195  1.5064  0.1402  1.6684
 7157TIP3   OH221434   3.828   4.817   0.115 -0.4932 -0.1449  0.2702
 7157TIP3    H121435   3.868   4.768   0.187  1.5375  0.0994 -0.6253
 7157TIP3    H221436   3.898   4.827   0.051 -2.2316 -0.4456 -1.8227
 7158TIP3   OH221437   0.350   4.702   2.436  0.5529  0.3357  0.2998
 7158TIP3    H121438   0.309   4.648   2.504  1.8478 -0.4910  0.4587
 7158TIP3    H221439   0.435   4.726   2.473 -0.3217  3.3500  0.6567
 7159TIP3   OH221440   1.833   3.284   1.882  0.5638  0.0629 -0.1210
 7159TIP3    H121441   1.811   3.342   1.809  1.7619  2.8914  1.6105
 7159TIP3    H221442   1.863   3.204   1.840  0.0084  1.0904 -2.6896
 7160TIP3   OH221443   5.496   5.746   0.611  0.2376 -0.0881 -0.1767
 7160TIP3    H121444   5.542   5.686   0.670  1.0656  0.0516 -0.6781
 7160TIP3    H221445   5.507   5.832   0.651  2.6122  0.3369 -1.5662
 7161TIP3   OH221446   2.245   4.988   5.774 -0.1573 -0.6167 -0.0022
 7161TIP3    H121447   2.320   5.039   5.805  0.5327 -0.4838 -1.8077
 7161TIP3    H221448   2.274   4.897   5.779 -0.5814 -0.7096  1.0804
 7162TIP3   OH221449   3.398   1.372   2.476  0.1483 -0.0242 -0.1044
 7162TIP3    H121450   3.327   1.341   2.533 -1.0025  0.0081 -1.4522
 7162TIP3    H221451   3.471   1.314   2.494 -1.0717 -1.7926 -0.5647
 7163TIP3   OH221452   5.056   4.160   4.624  0.6843 -0.4092  0.6393
 7163TIP3    H121453   5.143   4.129   4.648  0.7946 -0.4826  0.1491
 7163TIP3    H221454   5.055   4.157   4.529  1.1309  2.1918  0.4830
 7164TIP3   OH221455   5.877   4.728   4.374 -0.5728  0.0496 -1.1626
 7164TIP3    H121456   5.907   4.665   4.439 -0.6932 -0.1856 -1.3352
 7164TIP3    H221457   5.815   4.784   4.421 -0.4032  0.0909 -0.9889
 7165TIP3   OH221458   5.758   0.774   4.309 -0.2391  0.1724 -0.7010
 7165TIP3    H121459   5.709   0.766   4.391 -2.5709  0.2157 -1.9949
 7165TIP3    H221460   5.794   0.862   4.311 -1.9714  0.9173 -0.5543
 7166TIP3   OH221461   5.405   2.746   0.210  0.0800 -0.1544 -0.0874
 7166TIP3    H121462   5.475   2.690   0.177  1.2803  0.5199  1.2039
 7166TIP3    H221463   5.441   2.835   0.204 -1.2907  0.3722 -0.8943
 7167TIP3   OH221464   6.826   1.971   0.619 -0.0909 -0.0295  0.4104
 7167TIP3    H121465   6.749   1.918   0.598  0.2549  0.4389 -2.4042
 7167TIP3    H221466   6.842   1.954   0.712 -3.1873 -0.6232  0.9348
 7168TIP3   OH221467   6.814   5.025   5.242 -0.2676  0.5921  0.1413
 7168TIP3    H121468   6.894   5.066   5.274  1.2445 -0.8419 -1.5909
 7168TIP3    H221469   6.815   4.937   5.280 -0.9618  0.5323  0.0307
 7169TIP3   OH221470   0.346   5.549   1.229  0.5944 -0.1572  0.0798
 7169TIP3    H121471   0.416   5.491   1.200  1.7241  0.5489  1.2965
 7169TIP3    H221472   0.302   5.500   1.299  0.0301 -0.4904 -0.5004
 7170TIP3   OH221473   2.501   3.125   0.551 -0.0731 -0.1872 -0.9463
 7170TIP3    H121474   2.536   3.053   0.499  0.0549 -1.2183  0.5162
 7170TIP3    H221475   2.448   3.176   0.489 -0.4646 -1.7305 -1.9316
 7171TIP3   OH221476   5.061   1.311   0.520  0.8662  0.6325 -0.8229
 7171TIP3    H121477   5.059   1.219   0.546 -0.1991  1.3128  1.7566
 7171TIP3    H221478   5.154   1.330   0.508  1.2428 -0.3699  0.2902
 7172TIP3   OH221479   5.324   0.337   2.039  0.1494 -0.3704  0.0578
 7172TIP3    H121480   5.306   0.338   2.133  0.0919  0.9027  0.0485
 7172TIP3    H221481   5.418   0.353   2.032  0.1641 -0.5221 -0.0996
 7173TIP3   OH221482   3.819   6.237   3.091  0.0080  0.3603 -0.1722
 7173TIP3    H121483   3.864   6.173   3.036 -0.7728  1.4931 -2.2443
 7173TIP3    H221484   3.819   6.197   3.179  2.4420 -0.9421 -0.6629
 7174TIP3   OH221485   2.949   4.136   1.102 -0.5344  0.4939  0.2196
 7174TIP3    H121486   2.981   4.172   1.020 -0.3376 -0.9351 -0.3579
 7174TIP3    H221487   3.026   4.132   1.159 -0.3180 -0.0772 -0.1092
 7175TIP3   OH221488   1.794   4.907   0.913  0.7244  0.7060  0.1161
 7175TIP3    H121489   1.871   4.858   0.884 -0.6375 -0.7527 -1.2422
 7175TIP3    H221490   1.775   4.967   0.841 -0.1835  0.0736 -0.1980
 7176TIP3   OH221491   3.049   2.920   1.940  0.3503  0.4073 -0.0886
 7176TIP3    H121492   3.082   2.848   1.994  1.5782 -0.5783 -2.0401
 7176TIP3    H221493   2.958   2.931   1.968 -0.0649 -2.3127 -0.1058
 7177TIP3   OH221494   6.994   0.193   2.933  0.1239  0.0517  0.6614
 7177TIP3    H121495   7.076   0.217   2.890 -1.1741 -0.1944 -2.1665
 7177TIP3    H221496   6.989   0.098   2.925 -0.6337  0.1033  0.3970
 7178TIP3   OH221497   4.283   1.699   0.815  0.0874  0.1763  0.1979
 7178TIP3    H121498   4.369   1.723   0.852  0.6872 -2.1081  0.4246
 7178TIP3    H221499   4.304   1.642   0.741 -1.2322 -0.0010 -0.0633
 7179TIP3   OH221500   4.171   6.370   4.742 -0.6027 -0.2850  0.4315
 7179TIP3    H121501   4.089   6.344   4.783 -0.7033  1.6327  1.5403
 7179TIP3    H221502   4.228   6.394   4.814  0.9142 -1.3808 -0.3353
 7180TIP3   OH221503   4.060   2.434   5.169  0.3174  0.3831  0.2169
 7180TIP3    H121504   4.110   2.506   5.208  0.5135  0.6871 -0.5808
 7180TIP3    H221505   3.985   2.423   5.227  1.5031 -0.3684  1.6900
 7181TIP3   OH221506   1.797   6.716   0.841 -0.0054  0.3462  0.0011
 7181TIP3    H121507   1.813   6.752   0.928  3.2041  0.0922 -0.3692
 7181TIP3    H221508   1.871   6.746   0.788 -1.4196 -0.2015 -2.4570
 7182TIP3   OH221509   2.355   6.378   5.266 -0.2990  0.2765  0.8277
 7182TIP3    H121510   2.384   6.398   5.177 -0.8331 -1.6351  0.1800
 7182TIP3    H221511   2.421   6.317   5.300 -1.1203 -0.5200  1.0199
 7183TIP3   OH221512   5.583   4.077   1.613 -0.6569  0.2223  0.4378
 7183TIP3    H121513   5.506   4.022   1.633 -1.1641  0.8569  0.2750
 7183TIP3    H221514   5.581   4.086   1.518  0.1070 -0.4411  0.3518
 7184TIP3   OH221515   6.342   6.411   3.161 -0.1096 -0.2288 -0.0314
 7184TIP3    H121516   6.369   6.342   3.222  0.3078  0.8601  1.0523
 7184TIP3    H221517   6.261   6.446   3.197 -0.2652 -0.0778 -0.5148
 7185TIP3   OH221518   3.745   5.862   1.135  0.2142  0.3592 -0.3078
 7185TIP3    H121519   3.732   5.786   1.192  1.4416 -0.7982 -1.4762
 7185TIP3    H221520   3.831   5.847   1.095 -0.3068  1.4322 -1.9449
 7186TIP3   OH221521   1.533   2.966   4.568  0.0920 -0.3421 -0.4427
 7186TIP3    H121522   1.564   3.035   4.626 -0.2499 -0.1411 -0.4955
 7186TIP3    H221523   1.463   2.923   4.617 -0.6868  0.2890 -0.9810
 7187TIP3   OH221524   0.231   6.356   0.661 -0.3649 -0.3679  0.4831
 7187TIP3    H121525   0.254   6.322   0.747 -1.9900 -0.7326  0.7953
 7187TIP3    H221526   0.307   6.409   0.635 -0.0819  0.2032  2.3696
 7188TIP3   OH221527   5.946   0.097   2.853 -0.1019  0.5627  0.5788
 7188TIP3    H121528   5.904   0.112   2.938  1.1175 -2.6176  1.8984
 7188TIP3    H221529   6.038   0.119   2.868  0.1362 -0.0922  0.1144
 7189TIP3   OH221530   2.776   2.798   4.882 -0.5437  0.2437 -0.2731
 7189TIP3    H121531   2.817   2.788   4.967 -1.4748 -1.0719  0.0522
 7189TIP3    H221532   2.698   2.743   4.886 -0.1015 -0.6256 -2.3105
 7190TIP3   OH221533   3.075   1.088   2.161  0.3863 -0.1734  0.2321
 7190TIP3    H121534   3.038   1.170   2.130  1.4900  0.4188  0.4503
 7190TIP3    H221535   3.028   1.020   2.112  1.5102  0.6829 -2.1798
 7191TIP3   OH221536   0.320   0.949   1.581 -0.3524  0.0277  0.3854
 7191TIP3    H121537   0.375   0.888   1.631  1.8232  0.4802 -1.2653
 7191TIP3    H221538   0.344   0.933   1.490 -0.7045  2.4114 -0.1899
 7192TIP3   OH221539   3.617   2.412   5.453  0.7572 -0.6049 -0.0994
 7192TIP3    H121540   3.624   2.384   5.544 -0.3097  0.0526  0.1933
 7192TIP3    H221541   3.567   2.494   5.456  1.9697  0.2268 -1.1305
 7193TIP3   OH221542   4.736   2.566   0.069 -0.1953 -0.1498 -0.6775
 7193TIP3    H121543   4.769   2.479   0.089  1.2054  0.1407 -1.5811
 7193TIP3    H221544   4.654   2.572   0.117 -0.4834 -2.0798 -0.8427
 7194TIP3   OH221545   7.005   0.020   1.770 -0.2083  0.1964 -0.3783
 7194TIP3    H121546   7.077   0.063   1.724  0.5733 -0.1010  0.5469
 7194TIP3    H221547   6.985   0.078   1.843 -1.6676  0.8294 -1.2329
 7195TIP3   OH221548   6.718   3.759   5.375  0.1986 -0.7747 -0.0044
 7195TIP3    H121549   6.689   3.693   5.437  0.5772 -1.0026 -0.0726
 7195TIP3    H221550   6.813   3.752   5.373  0.4334  1.0583  1.4358
 7196TIP3   OH221551   3.054   0.664   2.826 -0.0272  0.5107 -0.4561
 7196TIP3    H121552   2.999   0.624   2.893 -2.2025  2.9757 -0.6334
 7196TIP3    H221553   2.999   0.665   2.747  0.5491  2.2919 -0.8659
 7197TIP3   OH221554   0.659   5.527   0.527 -0.0251 -0.1432 -0.2586
 7197TIP3    H121555   0.729   5.545   0.591  1.3166  1.0099 -1.9318
 7197TIP3    H221556   0.665   5.433   0.511 -0.3364 -0.4369  1.2350
 7198TIP3   OH221557   1.057   3.317   3.844 -0.2659 -0.4228 -0.1676
 7198TIP3    H121558   1.007   3.246   3.886 -0.5739  0.3528  0.8165
 7198TIP3    H221559   1.138   3.322   3.894  0.4912 -1.1447 -1.2647
 7199TIP3   OH221560   2.558   2.225   0.963  0.1008  0.6065  0.2748
 7199TIP3    H121561   2.638   2.221   0.910 -0.0588 -0.3941  0.0787
 7199TIP3    H221562   2.513   2.304   0.933  0.8205  0.9625  0.1020
 7200TIP3   OH221563   4.986   1.222   4.558 -0.1734  0.0856  0.0335
 7200TIP3    H121564   5.028   1.280   4.494 -0.0715  1.7437  1.5259
 7200TIP3    H221565   4.896   1.255   4.565 -0.5760 -0.9205 -0.1984
 7201TIP3   OH221566   1.692   6.761   2.002 -0.6407 -0.0881  0.5923
 7201TIP3    H121567   1.758   6.760   2.071 -0.6801 -2.1020  0.6604
 7201TIP3    H221568   1.715   6.686   1.946 -3.4906 -1.5966  1.2638
 7202TIP3   OH221569   6.783   1.879   5.848  0.3263  0.6157  0.1876
 7202TIP3    H121570   6.839   1.887   5.771 -1.0637  0.6132 -0.8827
 7202TIP3    H221571   6.806   1.795   5.887  0.7736  0.4304 -0.4626
 7203TIP3   OH221572   0.287   4.153   2.179  0.5669 -0.0636 -0.1526
 7203TIP3    H121573   0.311   4.062   2.194 -1.8439 -1.1832 -2.3518
 7203TIP3    H221574   0.326   4.175   2.094  0.2735  0.6236 -0.1231
 7204TIP3   OH221575   3.380   5.165   0.917 -0.1326  0.3650 -0.9067
 7204TIP3    H121576   3.448   5.226   0.891  0.3394 -0.0285 -0.5997
 7204TIP3    H221577   3.338   5.139   0.834  1.2298 -0.7267 -1.2828
 7205TIP3   OH221578   0.047   1.935   4.493  0.2365 -0.2976 -0.3223
 7205TIP3    H121579  -0.030   1.989   4.475 -0.0075 -0.6902 -0.4806
 7205TIP3    H221580   0.012   1.854   4.530  0.7256  0.4473  1.9252
 7206TIP3   OH221581   4.956   5.330   4.611  0.2578 -0.6377  0.5509
 7206TIP3    H121582   4.988   5.261   4.552  0.5811 -0.4771  0.5367
 7206TIP3    H221583   5.033   5.354   4.663  0.4528  0.5532 -0.2565
 7207TIP3   OH221584   0.153   3.974   5.375  0.5758  0.4150 -0.3882
 7207TIP3    H121585   0.182   3.918   5.303 -1.9950  0.8415 -1.8890
 7207TIP3    H221586   0.113   3.914   5.438 -0.8270  0.3481 -1.2931
 7208TIP3   OH221587   5.923   6.381   4.796 -0.1330 -0.3443  0.3916
 7208TIP3    H121588   5.978   6.460   4.800 -0.2562 -0.3006  2.5844
 7208TIP3    H221589   5.970   6.317   4.849  0.5327 -2.1998 -2.2602
 7209TIP3   OH221590   2.317   2.562   4.482  0.4817  0.6653  0.1309
 7209TIP3    H121591   2.307   2.489   4.544  1.2257  1.8051  1.6542
 7209TIP3    H221592   2.347   2.520   4.401 -1.8624 -1.0258  0.0395
 7210TIP3   OH221593   3.096   4.063   5.058  0.0408  0.1976  0.1467
 7210TIP3    H121594   3.066   3.972   5.061 -1.2576  0.6127  0.5332
 7210TIP3    H221595   3.015   4.114   5.059  0.7672  1.4096  2.0771
 7211TIP3   OH221596   0.600   0.112   1.388 -0.1985  0.6186 -0.5578
 7211TIP3    H121597   0.560   0.186   1.433 -0.6678 -0.1006  0.2424
 7211TIP3    H221598   0.694   0.119   1.408 -0.0649  1.6531 -1.4756
 7212TIP3   OH221599   1.291   1.225   0.761 -0.3539 -0.0369 -0.0021
 7212TIP3    H121600   1.368   1.260   0.716  0.8102  1.1240  2.6673
 7212TIP3    H221601   1.225   1.295   0.754 -0.0716  0.2658  0.3328
 7213TIP3   OH221602   0.546   2.906   3.474  0.7714 -0.1094  0.1966
 7213TIP3    H121603   0.500   2.990   3.473 -0.9881 -0.9731  2.0661
 7213TIP3    H221604   0.495   2.850   3.414 -0.0207 -0.7299  1.3958
 7214TIP3   OH221605   3.664   4.598   4.194  0.0106  0.7983 -0.3725
 7214TIP3    H121606   3.611   4.671   4.163 -1.2687 -0.1255 -0.4149
 7214TIP3    H221607   3.733   4.639   4.246 -0.3719  2.0658 -0.8307
 7215TIP3   OH221608   6.135   5.670   4.214 -0.2618  0.2400 -0.1767
 7215TIP3    H121609   6.079   5.713   4.149  1.7059 -0.2392 -2.3499
 7215TIP3    H221610   6.204   5.735   4.231 -0.8293  0.4127  1.6213
 7216TIP3   OH221611   3.630   1.446   3.181  0.2375  0.1717 -0.5415
 7216TIP3    H121612   3.698   1.472   3.243  0.0735  0.3997 -0.4525
 7216TIP3    H221613   3.633   1.351   3.180 -0.4845  0.1042  0.6606
 7217TIP3   OH221614   1.197   1.221   2.438  0.5438  0.0600  0.2125
 7217TIP3    H121615   1.137   1.296   2.439  0.0996 -0.2555 -1.0211
 7217TIP3    H221616   1.155   1.157   2.381  0.5275 -1.4942  1.8570
 7218TIP3   OH221617   1.220   4.595   4.199  0.7385  0.5540  0.0546
 7218TIP3    H121618   1.297   4.628   4.152  0.1145  0.9919 -0.6746
 7218TIP3    H221619   1.249   4.587   4.290  0.7096  3.8476  0.4684
 7219TIP3   OH221620   3.415   0.129   4.550 -0.0039  0.4089 -0.1207
 7219TIP3    H121621   3.417   0.094   4.639 -1.6923  0.9078  0.1531
 7219TIP3    H221622   3.333   0.096   4.514  1.2134 -0.7939 -1.9554
 7220TIP3   OH221623   5.507   3.185   2.892  0.1196 -0.2599  0.0534
 7220TIP3    H121624   5.535   3.162   2.803 -0.1654 -1.7494  0.3140
 7220TIP3    H221625   5.577   3.151   2.948  1.9157  3.3686  0.3480
 7221TIP3   OH221626   5.177   1.936   2.509  0.9322 -0.7377  0.4591
 7221TIP3    H121627   5.139   1.877   2.444 -1.2324 -1.2645  2.0805
 7221TIP3    H221628   5.168   2.023   2.470 -2.8579 -0.7146  1.0010
 7222TIP3   OH221629   3.875   3.482   0.350 -0.1973 -0.3066 -0.1313
 7222TIP3    H121630   3.789   3.525   0.348 -0.4594 -0.7671  0.9450
 7222TIP3    H221631   3.855   3.388   0.344  0.4252 -0.3631 -4.2141
 7223TIP3   OH221632   1.224   4.304   2.198 -0.8484  0.0817  0.3094
 7223TIP3    H121633   1.142   4.254   2.192 -0.7982 -0.1545  1.4595
 7223TIP3    H221634   1.277   4.271   2.126 -2.2984  1.2854 -1.4076
 7224TIP3   OH221635   0.585   4.897   4.386 -0.2312 -0.3728 -0.5196
 7224TIP3    H121636   0.614   4.883   4.477  3.1437  0.7404 -1.2836
 7224TIP3    H221637   0.587   4.992   4.375  0.4192 -0.5484 -2.0502
 7225TIP3   OH221638   0.991   4.906   1.925  0.9816  0.3851 -0.8527
 7225TIP3    H121639   1.078   4.868   1.922  1.0838  0.6599 -1.4147
 7225TIP3    H221640   0.932   4.831   1.919  1.1638  0.1675 -0.1270
 7226TIP3   OH221641   5.201   1.256   1.443 -0.8292  0.3483 -0.1942
 7226TIP3    H121642   5.245   1.341   1.445  1.1404 -0.6325  0.0959
 7226TIP3    H221643   5.212   1.222   1.532 -0.7643 -0.6081 -0.5627
 7227TIP3   OH221644   4.317   5.546   4.308  0.3602  0.2057  0.1327
 7227TIP3    H121645   4.371   5.622   4.288  0.4999 -0.2484 -1.3358
 7227TIP3    H221646   4.376   5.471   4.293  0.5935 -0.2061  2.6884
 7228TIP3   OH221647   5.673   4.865   5.363  0.2385 -0.2219 -0.2247
 7228TIP3    H121648   5.750   4.921   5.373  0.5268 -0.8339  1.1684
 7228TIP3    H221649   5.601   4.927   5.347  0.4509  0.6582  1.8281
 7229TIP3   OH221650   7.175   6.424   0.603 -0.5733 -0.3212  0.2225
 7229TIP3    H121651   7.269   6.411   0.609 -0.7632 -1.9595  0.1624
 7229TIP3    H221652   7.158   6.502   0.655  0.9294  0.6208 -0.6265
 7230TIP3   OH221653   0.057   4.535   3.879  0.1173  0.1598  0.0670
 7230TIP3    H121654   0.007   4.591   3.819  1.1679 -0.6526 -1.6116
 7230TIP3    H221655  -0.010   4.491   3.931 -0.7974  1.2783 -0.1143
 7231TIP3   OH221656   5.928   5.442   3.254  0.4816 -0.3119 -0.2927
 7231TIP3    H121657   5.868   5.370   3.269  0.6061 -0.1183  1.2280
 7231TIP3    H221658   5.997   5.405   3.199 -0.9002 -0.5677 -1.9382
 7232TIP3   OH221659   2.073   5.637   3.158  0.3828 -0.6464 -0.5134
 7232TIP3    H121660   1.983   5.667   3.144  0.2002 -0.6675  0.5477
 7232TIP3    H221661   2.064   5.547   3.188  0.7176 -0.4178  0.2868
 7233TIP3   OH221662   6.898   4.215   3.797 -0.0495 -0.2992 -0.1108
 7233TIP3    H121663   6.842   4.188   3.870  0.0629  0.9156  0.4513
 7233TIP3    H221664   6.850   4.287   3.756  2.1790  2.6693  2.0221
 7234TIP3   OH221665   4.523   4.984   4.718 -0.3542 -0.4011  0.1187
 7234TIP3    H121666   4.440   5.006   4.759 -0.7072 -1.0251 -0.2554
 7234TIP3    H221667   4.510   4.898   4.680  0.2014 -0.1588 -0.6569
 7235TIP3   OH221668   3.948   5.919   4.709  0.2671  0.3717 -0.2851
 7235TIP3    H121669   3.981   5.843   4.757  0.1207  0.4883  0.0023
 7235TIP3    H221670   3.861   5.893   4.680 -0.4160  0.9764  1.1331
 7236TIP3   OH221671   4.807   2.135   3.886  0.3314 -0.0363 -0.0159
 7236TIP3    H121672   4.869   2.137   3.812  1.1264  0.3916  0.6426
 7236TIP3    H221673   4.725   2.167   3.849  0.6086 -0.2052 -0.8089
 7237TIP3   OH221674   3.949   2.643   3.272  0.0814 -0.7861 -0.1075
 7237TIP3    H121675   3.906   2.703   3.211 -0.0473  1.3733  1.9225
 7237TIP3    H221676   4.038   2.678   3.282  0.0305 -0.9349  1.0739
 7238TIP3   OH221677   1.268   3.991   3.977  0.4348 -0.2206 -0.3276
 7238TIP3    H121678   1.304   4.079   3.977  0.3951 -0.2055 -0.7539
 7238TIP3    H221679   1.238   3.978   4.067  2.4238 -0.6202  0.3325
 7239TIP3   OH221680   3.052   5.118   4.168  0.0771  0.2465  0.0926
 7239TIP3    H121681   3.063   5.132   4.262  0.0531 -1.0081  0.2948
 7239TIP3    H221682   2.971   5.164   4.146  0.2887  0.8779  0.5992
 7240TIP3   OH221683   1.001   0.454   5.037 -0.8381 -0.5199  0.3049
 7240TIP3    H121684   0.989   0.513   5.112  0.0283  0.9322 -0.6408
 7240TIP3    H221685   1.006   0.512   4.961 -0.9256 -1.8995 -0.8043
 7241TIP3   OH221686   6.455   1.426   4.687  0.2164 -0.4800 -0.3270
 7241TIP3    H121687   6.421   1.480   4.616  0.7550  0.2061 -0.0650
 7241TIP3    H221688   6.435   1.475   4.767  1.9359  0.0200 -0.1687
 7242TIP3   OH221689   1.717   6.126   3.416  0.5616 -0.2443  0.0568
 7242TIP3    H121690   1.727   6.190   3.486 -0.3908 -0.8383  0.7632
 7242TIP3    H221691   1.769   6.161   3.344  0.9604  0.7530  0.8021
 7243TIP3   OH221692   4.518   0.279   0.794  0.0460  0.8304  0.6231
 7243TIP3    H121693   4.582   0.291   0.724  0.4209 -0.5766  0.6865
 7243TIP3    H221694   4.570   0.283   0.874  0.0501 -0.2003  0.6814
 7244TIP3   OH221695   6.587   1.038   5.612  0.1942 -0.0094  0.6800
 7244TIP3    H121696   6.538   0.975   5.558  0.4582 -0.6568  1.1734
 7244TIP3    H221697   6.532   1.050   5.690 -1.5660  3.0629 -0.8559
 7245TIP3   OH221698   2.190   3.818   1.801 -0.7211  0.0062 -0.2304
 7245TIP3    H121699   2.185   3.734   1.847  0.7658  0.9374  1.7631
 7245TIP3    H221700   2.283   3.831   1.782 -1.1349  0.2967 -2.4118
 7246TIP3   OH221701   0.789   5.664   4.446 -0.5271 -0.3210 -0.4407
 7246TIP3    H121702   0.880   5.685   4.423 -0.9959  0.7649 -1.3382
 7246TIP3    H221703   0.739   5.684   4.367 -1.7068  0.1851  0.4181
 7247TIP3   OH221704   5.300   4.608   1.792  0.0193 -0.1530  1.0069
 7247TIP3    H121705   5.256   4.683   1.751  1.7427  1.0620  1.2615
 7247TIP3    H221706   5.341   4.562   1.719  0.8170  0.4530  1.0604
 7248TIP3   OH221707   0.644   4.109   5.319 -0.3396  0.1025 -0.5192
 7248TIP3    H121708   0.586   4.097   5.394 -0.8735  0.7012 -0.8234
 7248TIP3    H221709   0.651   4.204   5.309  3.5865  0.2877  1.7076
 7249TIP3   OH221710   2.616   2.758   1.200 -0.3464  0.2906 -0.0748
 7249TIP3    H121711   2.628   2.826   1.266  0.8451 -0.6110  0.6912
 7249TIP3    H221712   2.705   2.724   1.185 -1.0017 -1.6876  0.2540
 7250TIP3   OH221713   3.103   4.123   0.629  0.2096  0.0526  0.3877
 7250TIP3    H121714   3.166   4.174   0.578 -1.4909 -0.5892 -2.5730
 7250TIP3    H221715   3.149   4.042   0.651  0.0864 -1.1095 -3.0921
 7251TIP3   OH221716   6.058   0.911   0.513 -0.6824  0.1903  0.2502
 7251TIP3    H121717   6.060   0.866   0.598  0.2515  1.3742  0.8837
 7251TIP3    H221718   6.069   1.004   0.535 -1.5464  0.6431 -1.0956
 7252TIP3   OH221719   7.207   3.228   4.287  0.1270  0.6326 -0.1106
 7252TIP3    H121720   7.147   3.289   4.329  0.3493  0.8810 -0.1593
 7252TIP3    H221721   7.231   3.167   4.356 -0.5212  0.2696 -0.1929
 7253TIP3   OH221722   2.857   1.059   5.240 -0.0726  0.5611  0.1223
 7253TIP3    H121723   2.765   1.075   5.262 -0.3507 -1.2758  0.4628
 7253TIP3    H221724   2.893   1.146   5.225 -1.8588  1.3356 -0.0165
 7254TIP3   OH221725   1.617   2.139   5.506  0.1936  0.0900  0.0575
 7254TIP3    H121726   1.521   2.135   5.509  0.2349 -1.0617  0.9589
 7254TIP3    H221727   1.637   2.199   5.435 -1.2013  0.2095 -0.2610
 7255TIP3   OH221728   4.088   2.035   3.460 -0.5118 -0.4497 -0.1965
 7255TIP3    H121729   4.049   2.120   3.478 -0.5218 -0.1869 -1.3400
 7255TIP3    H221730   4.121   2.004   3.544 -0.2718  0.8125  0.1878
 7256TIP3   OH221731   6.144   6.253   1.212  0.1351 -0.3366 -0.1581
 7256TIP3    H121732   6.167   6.337   1.171 -0.2169  0.3580  1.0202
 7256TIP3    H221733   6.219   6.197   1.194  1.6290  1.0595  1.2822
 7257TIP3   OH221734   3.058   5.350   0.970  0.5978  0.4240 -0.3289
 7257TIP3    H121735   3.135   5.323   0.919  1.1786 -0.9919  1.2037
 7257TIP3    H221736   3.026   5.269   1.009 -0.8072  1.2262  0.2567
 7258TIP3   OH221737   1.802   1.149   0.493 -0.5694  0.1515 -1.0241
 7258TIP3    H121738   1.736   1.160   0.561 -1.2776  0.1439 -1.6975
 7258TIP3    H221739   1.754   1.159   0.411  0.0369 -1.0601 -1.5516
 7259TIP3   OH221740   0.083   0.852   4.782  0.1851  0.5794  0.5119
 7259TIP3    H121741   0.120   0.771   4.745 -2.2088  0.3027 -1.5413
 7259TIP3    H221742   0.157   0.893   4.827  2.3812 -1.0188 -1.3510
 7260TIP3   OH221743   2.641   1.210   0.403 -0.5074 -0.2598 -0.2075
 7260TIP3    H121744   2.663   1.269   0.331 -0.8143  0.7755  0.5255
 7260TIP3    H221745   2.548   1.224   0.419 -0.5832 -0.9332 -0.0101
 7261TIP3   OH221746   0.526   1.123   3.264 -0.0997 -0.0039 -0.1952
 7261TIP3    H121747   0.511   1.042   3.214  0.8559  0.4221 -1.2139
 7261TIP3    H221748   0.461   1.120   3.334 -0.6725 -1.2248 -0.7432
 7262TIP3   OH221749   3.064   6.348  -0.014 -0.5793 -0.3353 -0.1705
 7262TIP3    H121750   3.008   6.283  -0.057 -1.0332 -0.2501  0.2868
 7262TIP3    H221751   3.056   6.330   0.079  0.0820 -0.2557 -0.0896
 7263TIP3   OH221752   5.648   5.523   2.895  0.1374 -0.0696  0.2863
 7263TIP3    H121753   5.637   5.548   2.987  0.6382 -0.1366  0.3662
 7263TIP3    H221754   5.559   5.507   2.864 -0.0061 -0.4570  0.8788
 7264TIP3   OH221755   3.667   6.454   3.406 -0.3662  0.1610  0.1991
 7264TIP3    H121756   3.637   6.422   3.321  2.3188 -2.6267  0.1333
 7264TIP3    H221757   3.612   6.408   3.469 -0.1863 -0.3131  0.0141
 7265TIP3   OH221758   2.008   3.553   2.390 -0.1320  0.1541  0.2898
 7265TIP3    H121759   2.019   3.504   2.308 -0.2544 -0.8041  0.8314
 7265TIP3    H221760   1.915   3.542   2.411 -0.1572  0.6185  0.4186
 7266TIP3   OH221761   3.993   2.045   0.754 -0.2598  0.2465  0.1254
 7266TIP3    H121762   3.953   2.092   0.681 -1.6394 -0.7913  0.1701
 7266TIP3    H221763   3.982   1.953   0.732 -0.3084 -0.0789  1.4351
 7267TIP3   OH221764   0.738   4.256   3.242 -0.4435  0.4601  0.3998
 7267TIP3    H121765   0.794   4.185   3.210  0.3936  0.8300  1.0336
 7267TIP3    H221766   0.649   4.228   3.217 -0.0546 -0.4274 -0.0572
 7268TIP3   OH221767   6.581   3.011   3.799 -0.1956  0.7238 -0.2658
 7268TIP3    H121768   6.595   3.079   3.864 -0.5211 -0.3563  0.9715
 7268TIP3    H221769   6.534   2.941   3.846  1.2902 -0.9382 -1.1086
 7269TIP3   OH221770   0.603   0.688   4.045 -0.1194 -0.3349  0.6508
 7269TIP3    H121771   0.600   0.681   4.140  0.8206  2.1231  0.9308
 7269TIP3    H221772   0.550   0.765   4.025  1.1561  0.2397 -0.6504
 7270TIP3   OH221773   5.544   2.240   0.817  0.8122  0.0329  0.1415
 7270TIP3    H121774   5.604   2.174   0.851 -0.6991 -0.8007  1.3273
 7270TIP3    H221775   5.574   2.323   0.855  0.1326 -0.6434  2.3346
 7271TIP3   OH221776   0.011   4.243   1.354 -0.4271 -0.1575 -0.0147
 7271TIP3    H121777   0.009   4.212   1.263  1.2502  0.3251 -0.2445
 7271TIP3    H221778   0.010   4.163   1.406 -0.3487 -0.4659 -0.4789
 7272TIP3   OH221779   0.802   3.131   2.784  0.6342  0.3901  0.1200
 7272TIP3    H121780   0.837   3.160   2.700  1.7594 -1.1382  0.0305
 7272TIP3    H221781   0.723   3.185   2.797  0.4821  0.6992 -1.8629
 7273TIP3   OH221782   0.527   2.322   2.250  0.7661  0.5159  0.0734
 7273TIP3    H121783   0.585   2.246   2.250  0.0168 -0.0893 -1.2827
 7273TIP3    H221784   0.459   2.300   2.186 -0.2210  1.7622  0.6543
 7274TIP3   OH221785   2.080   0.329   2.222  0.3800 -0.1873 -0.7337
 7274TIP3    H121786   2.173   0.340   2.239 -0.0580  1.8189  0.7305
 7274TIP3    H221787   2.037   0.362   2.302 -1.5837 -0.8627 -1.4505
 7275TIP3   OH221788   1.205   5.377   2.231  0.1623  0.3472  0.0016
 7275TIP3    H121789   1.182   5.290   2.198  1.5914 -0.3544  0.7421
 7275TIP3    H221790   1.278   5.404   2.176 -0.4051  1.1789 -0.3502
 7276TIP3   OH221791   1.002   5.245   4.471 -0.7449  0.4201  0.2694
 7276TIP3    H121792   0.921   5.256   4.421 -1.0086 -1.2864  0.2719
 7276TIP3    H221793   1.071   5.239   4.405 -0.8045  0.3786  0.2112
 7277TIP3   OH221794   1.031   1.009   2.340  0.1661 -0.4088  0.1517
 7277TIP3    H121795   1.072   0.941   2.286 -1.2351 -0.9166 -0.3185
 7277TIP3    H221796   0.959   1.042   2.286  1.8381  2.7335 -0.3862
 7278TIP3   OH221797   3.393   4.574   4.732 -0.5518 -0.5376  0.5064
 7278TIP3    H121798   3.438   4.595   4.650 -0.5046  0.7116  0.8223
 7278TIP3    H221799   3.310   4.621   4.726  0.2994  1.3218  2.0103
 7279TIP3   OH221800   1.794   6.477   2.362  0.7380  0.5066 -0.0256
 7279TIP3    H121801   1.828   6.407   2.306  2.1853  0.5180  0.7736
 7279TIP3    H221802   1.798   6.555   2.308  2.5919  0.6063  0.1941
 7280TIP3   OH221803   4.502   2.221   1.865 -0.4169  0.1454  0.5720
 7280TIP3    H121804   4.566   2.150   1.864 -0.6814 -0.0842 -0.5242
 7280TIP3    H221805   4.551   2.298   1.835 -1.2253 -0.5822 -3.0918
 7281TIP3   OH221806   0.356   5.160   1.898  0.2188  0.1227  0.6376
 7281TIP3    H121807   0.417   5.089   1.919 -0.0039 -0.3753 -0.3765
 7281TIP3    H221808   0.284   5.118   1.852  0.0423  0.9942  0.0898
 7282TIP3   OH221809   6.475   3.038   2.479  0.1740  0.2977 -0.0440
 7282TIP3    H121810   6.443   3.091   2.552 -1.2664  0.1089 -0.5207
 7282TIP3    H221811   6.425   3.067   2.404  1.1760  0.0187 -0.8446
 7283TIP3   OH221812   6.834   6.703   3.677  0.2476 -0.1969  0.0513
 7283TIP3    H121813   6.877   6.771   3.625 -1.1254  0.4196 -0.3504
 7283TIP3    H221814   6.756   6.746   3.712  0.4143 -1.0158  1.4845
 7284TIP3   OH221815   5.419   0.288   3.768  0.3471  0.5510 -0.2875
 7284TIP3    H121816   5.413   0.332   3.682  1.5253  0.7033 -0.3005
 7284TIP3    H221817   5.341   0.319   3.815  1.2457  2.9192 -0.2043
 7285TIP3   OH221818   3.189   1.108   0.605  0.0473  0.5467  0.4894
 7285TIP3    H121819   3.221   1.112   0.515  1.2272  1.7359  0.9266
 7285TIP3    H221820   3.206   1.018   0.633  1.3827  0.6616  0.1179
 7286TIP3   OH221821   1.068   4.167   2.518  0.1108  0.3114 -0.1721
 7286TIP3    H121822   1.134   4.200   2.457 -1.1436 -0.3529 -1.9871
 7286TIP3    H221823   1.074   4.072   2.511 -1.0181  0.2417 -0.3741
 7287TIP3   OH221824   3.843   5.020   2.095  0.1187 -0.1056  0.0144
 7287TIP3    H121825   3.919   5.045   2.042 -0.2591  1.6460  0.2561
 7287TIP3    H221826   3.869   4.938   2.137  1.4473 -0.1110 -0.7742
 7288TIP3   OH221827   4.874   5.066   2.336 -0.7874  0.0279 -0.5275
 7288TIP3    H121828   4.865   5.136   2.271 -1.7929  1.7704  1.3532
 7288TIP3    H221829   4.786   5.028   2.342 -1.0950  0.8778  0.7982
 7289TIP3   OH221830   4.640   5.417   3.947 -0.9013  0.1766  0.1597
 7289TIP3    H121831   4.547   5.395   3.932 -0.4605 -1.2077 -0.7875
 7289TIP3    H221832   4.687   5.360   3.887  0.5302  1.7637 -0.2931
 7290TIP3   OH221833   3.010   6.062   2.029 -0.1692 -0.0161  0.0197
 7290TIP3    H121834   2.960   6.048   1.948  0.5352 -0.0226 -0.4176
 7290TIP3    H221835   3.030   5.973   2.060  0.1463 -0.0106 -0.1659
 7291TIP3   OH221836   0.577   4.228   2.076 -0.4523  0.0031 -0.0458
 7291TIP3    H121837   0.631   4.214   1.998  0.2498 -0.1047  0.4603
 7291TIP3    H221838   0.616   4.172   2.143  0.0126  1.3872  0.8858
 7292TIP3   OH221839   0.808   0.285   2.671 -0.0067  0.1900  0.4101
 7292TIP3    H121840   0.869   0.255   2.739  0.6132  0.8341  0.1539
 7292TIP3    H221841   0.725   0.296   2.716  0.1412 -0.3927  0.8370
 7293TIP3   OH221842   0.439   1.475   0.867  0.0229  0.7171 -0.2044
 7293TIP3    H121843   0.441   1.489   0.962  0.4831 -0.9340  0.0610
 7293TIP3    H221844   0.457   1.561   0.830  0.0674  1.3504  1.2107
 7294TIP3   OH221845   3.200   5.315   3.915  0.5059  0.3814 -0.2496
 7294TIP3    H121846   3.157   5.306   4.000  1.8051 -0.1592  0.3806
 7294TIP3    H221847   3.205   5.226   3.881  0.4878  0.5291 -0.6455
 7295TIP3   OH221848   2.474   6.168   5.115 -0.1180  0.4737 -0.2575
 7295TIP3    H121849   2.568   6.160   5.126  0.1303  2.3502 -0.6034
 7295TIP3    H221850   2.460   6.162   5.021 -0.5435 -1.2774 -0.1074
 7296TIP3   OH221851   2.958   3.510   2.918 -0.3407 -0.2406 -0.0325
 7296TIP3    H121852   2.902   3.581   2.887  0.1937  0.0581 -0.3261
 7296TIP3    H221853   2.969   3.452   2.843 -0.4890 -0.4541  0.1072
 7297TIP3   OH221854   5.993   2.568   4.323 -0.8089 -0.0659 -0.3041
 7297TIP3    H121855   6.075   2.560   4.373 -0.1881 -1.3348 -1.4964
 7297TIP3    H221856   5.927   2.527   4.379 -0.0955 -1.5960 -0.5570
 7298TIP3   OH221857   0.227   4.366   4.653 -0.7617  0.0227  0.3932
 7298TIP3    H121858   0.202   4.450   4.616 -0.8990  0.5891  1.7268
 7298TIP3    H221859   0.145   4.327   4.682 -0.6539 -0.3962  0.1408
 7299TIP3   OH221860   6.478   6.228   1.962  0.2326  0.5792 -0.2838
 7299TIP3    H121861   6.479   6.322   1.980 -0.7401  0.4335  0.5940
 7299TIP3    H221862   6.389   6.211   1.931  0.0082 -0.2505  0.7594
 7300TIP3   OH221863   4.097   2.747   1.343  0.0801  0.4899  0.0518
 7300TIP3    H121864   4.027   2.813   1.349 -0.3788  0.3918 -2.8452
 7300TIP3    H221865   4.050   2.665   1.328  0.7585  0.4394 -2.0200
 7301TIP3   OH221866   3.605   2.726   4.863 -0.0911  0.0350 -0.2203
 7301TIP3    H121867   3.668   2.798   4.865 -1.0902  1.0038 -1.4658
 7301TIP3    H221868   3.534   2.755   4.920  0.3279 -0.8150  0.7550
 7302TIP3   OH221869   4.459   2.073   2.552 -0.4907  0.2618  0.1565
 7302TIP3    H121870   4.389   2.104   2.610  1.5198  1.9648  1.8172
 7302TIP3    H221871   4.512   2.015   2.607  0.2672  0.2008 -0.6116
 7303TIP3   OH221872   5.396   3.448   3.665  0.0923 -0.1650 -0.4132
 7303TIP3    H121873   5.410   3.398   3.585 -1.2902 -1.5581  0.1658
 7303TIP3    H221874   5.304   3.475   3.661 -0.0972 -0.5663  0.8522
 7304TIP3   OH221875   3.504   6.058   2.732  0.2676 -0.3208  0.9042
 7304TIP3    H121876   3.572   6.096   2.675 -0.8641  1.5032  0.6816
 7304TIP3    H221877   3.449   6.133   2.756 -0.6268 -1.4457  2.5519
 7305TIP3   OH221878   1.831   0.984   3.041 -0.5468  0.1064  0.2332
 7305TIP3    H121879   1.881   0.974   2.960  1.2193  0.2869  1.2497
 7305TIP3    H221880   1.849   1.074   3.069 -2.5145  0.6186 -0.0131
 7306TIP3   OH221881   4.209   1.735   4.657  0.0191 -0.2424  0.3405
 7306TIP3    H121882   4.198   1.779   4.573  0.2745  0.1977  0.5324
 7306TIP3    H221883   4.121   1.728   4.693  0.0616  1.0349  0.7606
 7307TIP3   OH221884   6.714   4.064   4.761 -0.3092 -0.0912 -0.0417
 7307TIP3    H121885   6.755   4.135   4.809  1.4951 -0.7335 -0.5789
 7307TIP3    H221886   6.637   4.041   4.813  0.1454  0.9575  1.1376
 7308TIP3   OH221887   1.283   0.030   1.599 -0.0535 -0.5040 -0.1038
 7308TIP3    H121888   1.246   0.044   1.686 -0.2685 -0.6537 -0.1701
 7308TIP3    H221889   1.348  -0.038   1.612 -0.9624 -1.4279 -0.2786
 7309TIP3   OH221890   7.025   1.861   1.318 -0.2799 -0.0829 -0.1254
 7309TIP3    H121891   6.955   1.840   1.256 -1.7702  1.4112  0.9413
 7309TIP3    H221892   7.046   1.953   1.300 -0.8552  0.4353  1.6115
 7310TIP3   OH221893   0.423   0.581   0.132  0.2164 -0.3674  0.3361
 7310TIP3    H121894   0.432   0.659   0.187  0.5544 -0.6520  0.6905
 7310TIP3    H221895   0.413   0.615   0.043 -3.4085  0.2768  0.8046
 7311TIP3   OH221896   1.432   6.629   5.163  0.0575  0.3858  0.3211
 7311TIP3    H121897   1.396   6.682   5.234  0.7511  0.2082  0.8200
 7311TIP3    H221898   1.513   6.674   5.138 -0.0875  0.3453 -0.2283
 7312TIP3   OH221899   0.472   0.403   5.276 -0.0067  0.3800 -0.3555
 7312TIP3    H121900   0.393   0.412   5.328  0.6655 -0.5907  0.9114
 7312TIP3    H221901   0.541   0.442   5.330  0.7201 -0.6896 -0.4743
 7313TIP3   OH221902   2.078   4.789   3.091  0.0172 -0.5870  0.0050
 7313TIP3    H121903   2.005   4.785   3.030 -0.3951 -0.7746  0.5027
 7313TIP3    H221904   2.077   4.880   3.122  0.2546 -0.4800 -0.2975
 7314TIP3   OH221905   3.555   0.394   3.885  0.4922 -0.6372  0.2181
 7314TIP3    H121906   3.524   0.310   3.852 -0.2784 -1.4055  2.7167
 7314TIP3    H221907   3.478   0.450   3.885  0.6675 -0.3927 -0.0216
 7315TIP3   OH221908   6.048   2.960   2.733 -0.1785 -0.2175  0.2283
 7315TIP3    H121909   5.975   2.909   2.697 -1.8265  2.7566 -1.0335
 7315TIP3    H221910   6.017   2.991   2.818 -0.4987  1.1668 -0.3671
 7316TIP3   OH221911   2.459   4.142   0.683  0.5583  0.0278 -0.1256
 7316TIP3    H121912   2.443   4.237   0.679 -0.8699 -0.0235  2.4014
 7316TIP3    H221913   2.456   4.114   0.591  2.1723  2.5408 -1.0610
 7317TIP3   OH221914   0.511   3.230   0.058  0.3061  0.4892 -0.5850
 7317TIP3    H121915   0.468   3.303   0.103 -1.1198  0.1307 -1.3072
 7317TIP3    H221916   0.576   3.272   0.001 -0.1085  1.1731 -0.5695
 7318TIP3   OH221917   6.554   2.267   4.803  0.1234 -0.1602 -0.3331
 7318TIP3    H121918   6.500   2.288   4.727 -0.3559  0.9062  0.2799
 7318TIP3    H221919   6.643   2.263   4.769  0.9164  6.2220 -0.1759
 7319TIP3   OH221920   4.955   5.259   2.885 -0.1175 -0.1557  0.0459
 7319TIP3    H121921   4.967   5.224   2.973  0.2405 -0.8953 -0.2890
 7319TIP3    H221922   5.039   5.243   2.841 -0.4492 -0.2337 -0.5694
 7320TIP3   OH221923   5.113   0.252   3.462  0.2884 -0.1784  0.1881
 7320TIP3    H121924   5.122   0.338   3.502  2.4040 -0.2698  0.0212
 7320TIP3    H221925   5.121   0.191   3.535  0.0290 -0.2654  0.1447
 7321TIP3   OH221926   0.865   4.788   0.713  0.5993 -0.1948  0.3711
 7321TIP3    H121927   0.770   4.776   0.725  0.3090 -0.0161 -1.3673
 7321TIP3    H221928   0.901   4.700   0.720  0.3166 -0.2508  1.1468
 7322TIP3   OH221929   6.653   1.541   0.740 -0.1072  0.3917  0.1429
 7322TIP3    H121930   6.579   1.494   0.701  0.2456 -0.4047  0.4198
 7322TIP3    H221931   6.722   1.475   0.747  0.6507  1.1412 -0.1684
 7323TIP3   OH221932   5.125   2.283   0.543 -0.6084 -0.2779  0.0540
 7323TIP3    H121933   5.221   2.288   0.547 -0.6439  3.4674  0.2916
 7323TIP3    H221934   5.097   2.287   0.635 -0.9939 -0.9345 -0.0330
 7324TIP3   OH221935   3.552   1.346   3.838 -0.0260  0.3693  0.6181
 7324TIP3    H121936   3.642   1.316   3.836 -0.1459  0.0076 -1.4748
 7324TIP3    H221937   3.535   1.366   3.931  1.4664 -1.6589  1.4010
 7325TIP3   OH221938   4.219   0.856   3.042 -0.1341  0.4959  0.1434
 7325TIP3    H121939   4.259   0.916   3.106 -0.4663 -0.8658  1.6893
 7325TIP3    H221940   4.204   0.910   2.965  1.2617  1.9549  0.8307
 7326TIP3   OH221941   2.221   3.323   2.887  1.0537 -0.2629  0.0983
 7326TIP3    H121942   2.158   3.282   2.946  0.8159  0.1650  0.1428
 7326TIP3    H221943   2.190   3.413   2.875  1.5526 -0.0977 -0.0231
 7327TIP3   OH221944   1.718   3.487   3.912  0.5918 -0.0288  0.1833
 7327TIP3    H121945   1.782   3.556   3.895  0.3633  0.4782  1.2722
 7327TIP3    H221946   1.735   3.461   4.002  0.4028 -1.1229 -0.0869
 7328TIP3   OH221947   6.243   1.245   3.967  0.0443 -0.0248 -0.4794
 7328TIP3    H121948   6.242   1.217   4.058 -0.7538 -2.0152 -1.0397
 7328TIP3    H221949   6.336   1.247   3.943  0.2200 -0.3792  0.1431
 7329TIP3   OH221950   6.905   1.763   3.321  0.0687  0.0084 -0.1581
 7329TIP3    H121951   6.884   1.792   3.410  1.3212  0.1843  0.0991
 7329TIP3    H221952   6.974   1.698   3.333 -0.2019 -0.4387 -0.9671
 7330TIP3   OH221953   1.512   5.482   4.945 -0.2074  0.8505 -0.0323
 7330TIP3    H121954   1.492   5.393   4.972  1.1439  0.0508 -1.4778
 7330TIP3    H221955   1.459   5.497   4.867  1.6134  0.1949 -1.4848
 7331TIP3   OH221956   0.748   4.935   0.985 -0.2677  0.2624 -0.3993
 7331TIP3    H121957   0.736   4.880   1.062  1.4469  1.3555  0.7035
 7331TIP3    H221958   0.835   4.912   0.952 -0.0049  1.4781 -0.6003
 7332TIP3   OH221959   0.940   1.123   5.210 -0.0485 -0.5322 -0.0932
 7332TIP3    H121960   1.005   1.149   5.275 -0.4614 -1.0169  0.5295
 7332TIP3    H221961   0.857   1.125   5.257 -0.5049  0.2084 -0.9159
 7333TIP3   OH221962   3.826   3.243   5.144 -0.1937 -0.0347  0.1044
 7333TIP3    H121963   3.901   3.195   5.180 -0.8439 -1.9333 -0.9408
 7333TIP3    H221964   3.849   3.257   5.052 -0.7417  0.1923 -0.0002
 7334TIP3   OH221965   6.771   5.568   5.084 -0.1882  0.0999 -0.2375
 7334TIP3    H121966   6.701   5.540   5.143 -1.5979  1.8429 -1.0229
 7334TIP3    H221967   6.778   5.663   5.097  2.2666 -0.0361  0.0332
 7335TIP3   OH221968   0.231   6.237   5.800 -0.8659 -0.4031 -0.0658
 7335TIP3    H121969   0.193   6.152   5.777 -1.7326 -0.5792  1.8645
 7335TIP3    H221970   0.324   6.228   5.777 -1.1564 -1.4859 -0.8926
 7336TIP3   OH221971   5.338   0.683   1.034  0.0506  0.0826  0.0478
 7336TIP3    H121972   5.290   0.624   0.976  0.0590 -0.5100  0.6261
 7336TIP3    H221973   5.417   0.634   1.058  0.6638  0.8247 -0.4445
 7337TIP3   OH221974   5.425   5.382   5.102  0.0797 -0.4102  0.3525
 7337TIP3    H121975   5.436   5.424   5.017  0.5530 -1.0961  0.0729
 7337TIP3    H221976   5.513   5.381   5.140 -0.1661  0.1161  0.9664
 7338TIP3   OH221977   0.179   1.265   3.994 -0.4243 -0.5285  0.0836
 7338TIP3    H121978   0.255   1.302   4.038  0.0344 -1.1051 -0.2167
 7338TIP3    H221979   0.154   1.191   4.049 -0.6743 -0.4405  0.0910
 7339TIP3   OH221980   2.418   3.194   0.799 -0.0821  0.1634 -0.1029
 7339TIP3    H121981   2.331   3.171   0.831 -0.2927  2.8094  1.5204
 7339TIP3    H221982   2.416   3.173   0.706 -1.0679 -3.4735  0.5846
 7340TIP3   OH221983   3.386   6.230   4.583  0.0250 -0.4231  0.2398
 7340TIP3    H121984   3.374   6.137   4.560 -1.1269 -0.7060  1.7963
 7340TIP3    H221985   3.386   6.231   4.679  2.1570  0.9652  0.2906
 7341TIP3   OH221986   6.772   1.118   5.384  0.3717  0.0774  0.0339
 7341TIP3    H121987   6.847   1.072   5.420  1.6017  2.4317  0.6483
 7341TIP3    H221988   6.701   1.099   5.445  1.0135 -0.4525  0.6299
 7342TIP3   OH221989   1.835   4.931   0.318 -0.0655  0.5036  0.1401
 7342TIP3    H121990   1.913   4.877   0.333 -1.4822 -2.1932 -1.3506
 7342TIP3    H221991   1.762   4.868   0.317 -1.8299  2.3978 -2.1199
 7343TIP3   OH221992   1.429   3.421   0.350 -0.4966  0.0847 -0.6755
 7343TIP3    H121993   1.520   3.405   0.375 -0.7164  1.1133  0.9037
 7343TIP3    H221994   1.414   3.361   0.277  0.6372 -2.1008  0.7479
 7344TIP3   OH221995   6.180   5.416   4.994 -0.3951 -0.4352  0.1304
 7344TIP3    H121996   6.181   5.456   4.906 -0.3445 -0.5009  0.1015
 7344TIP3    H221997   6.240   5.342   4.988 -0.9035 -0.8448  0.0314
 7345TIP3   OH221998   2.862   1.890   0.139  0.5540  0.9621 -0.4908
 7345TIP3    H121999   2.886   1.879   0.047 -2.0558 -1.0426 -1.0338
 7345TIP3    H222000   2.770   1.864   0.144  0.2627  2.1009  2.5181
 7346TIP3   OH222001   5.199   2.000   3.540 -0.7369  0.4404  0.4177
 7346TIP3    H122002   5.283   1.969   3.504  0.7720  2.2295  2.1460
 7346TIP3    H222003   5.154   1.920   3.567 -0.3621 -0.6911 -2.0000
 7347TIP3   OH222004   6.236   3.138   3.312  0.3274 -0.1389 -0.1482
 7347TIP3    H122005   6.276   3.147   3.398  3.2704  2.1990 -1.5696
 7347TIP3    H222006   6.242   3.225   3.273 -0.6877 -1.1374 -2.8033
 7348TIP3   OH222007   0.664   4.653   5.553 -0.1655  0.3346  0.4101
 7348TIP3    H122008   0.693   4.585   5.614 -1.8100 -0.1205  0.7279
 7348TIP3    H222009   0.692   4.735   5.592 -0.4292 -0.0115  1.3449
 7349TIP3   OH222010   3.362   4.767   3.139  0.1232  0.2326 -0.2565
 7349TIP3    H122011   3.452   4.743   3.116 -0.2487  0.3874 -1.9952
 7349TIP3    H222012   3.309   4.694   3.109 -0.4956  0.9234 -0.8910
 7350TIP3   OH222013   5.995   2.925   5.375 -0.5733  0.4921  0.1607
 7350TIP3    H122014   6.071   2.913   5.318 -0.0055  2.8125  0.3224
 7350TIP3    H222015   5.930   2.863   5.342  1.0025 -0.8105 -0.6446
 7351TIP3   OH222016   0.695   5.504   5.264  0.0280  0.0960 -0.2447
 7351TIP3    H122017   0.617   5.558   5.271  0.4606  0.5135  2.2224
 7351TIP3    H222018   0.751   5.551   5.202 -1.2555  0.2666 -1.3258
 7352TIP3   OH222019   0.658   0.183   4.927  1.0215  0.2333  0.3663
 7352TIP3    H122020   0.607   0.184   5.008  0.1319 -1.5263 -0.1202
 7352TIP3    H222021   0.641   0.267   4.886 -1.6764 -0.3413  0.1469
 7353TIP3   OH222022   6.798   0.630   3.593  0.3696 -0.5296 -0.4008
 7353TIP3    H122023   6.769   0.577   3.519 -3.4752 -1.5936  1.6164
 7353TIP3    H222024   6.849   0.570   3.648  0.8823 -0.5114 -0.8554
 7354TIP3   OH222025   3.824   3.524   2.049  0.7796 -0.3910  0.0105
 7354TIP3    H122026   3.820   3.486   1.961  0.0090 -0.0069 -0.1344
 7354TIP3    H222027   3.805   3.451   2.107  0.5494 -0.4973 -0.1933
 7355TIP3   OH222028   0.294   0.695   1.269 -0.2713  0.0574 -0.1084
 7355TIP3    H122029   0.346   0.622   1.235  0.4274  0.7271 -0.5056
 7355TIP3    H222030   0.217   0.653   1.307  1.2361 -1.1075  1.8954
 7356TIP3   OH222031   1.736   5.999   4.479  0.1331  0.1835 -0.6786
 7356TIP3    H122032   1.759   5.980   4.388 -1.1936 -0.5538 -0.8955
 7356TIP3    H222033   1.818   5.994   4.527  0.4568 -2.4681 -1.3602
 7357TIP3   OH222034   1.017   5.599   2.283  0.1152  0.6496 -0.0595
 7357TIP3    H122035   1.059   5.553   2.356  1.9878  1.9197 -0.2583
 7357TIP3    H222036   1.040   5.547   2.206  0.6458  0.8741 -0.0617
 7358TIP3   OH222037   1.414   2.708   5.718  0.6823 -0.4544 -0.4492
 7358TIP3    H122038   1.358   2.654   5.773  1.3215 -0.5498  0.1206
 7358TIP3    H222039   1.479   2.647   5.682  1.7024 -0.0108  0.5792
 7359TIP3   OH222040   3.453   6.710   4.444  0.0705  0.0826 -0.1127
 7359TIP3    H122041   3.501   6.788   4.413 -1.4571  1.4025  0.6825
 7359TIP3    H222042   3.483   6.699   4.534  0.6408 -0.5679 -0.3747
 7360TIP3   OH222043   6.108   1.160   5.800  0.3445 -0.3418 -0.0991
 7360TIP3    H122044   6.183   1.211   5.771  0.3535  1.0233  2.1551
 7360TIP3    H222045   6.033   1.204   5.760  0.5084  0.1634  0.1465
 7361TIP3   OH222046   7.145   4.518   0.880  0.2378 -0.1719 -0.0604
 7361TIP3    H122047   7.234   4.523   0.846 -0.3957  1.0611 -1.6436
 7361TIP3    H222048   7.106   4.602   0.858 -0.4703  0.4960  3.2042
 7362TIP3   OH222049   0.412   3.153   5.389  0.3993  0.0247 -0.2671
 7362TIP3    H122050   0.480   3.089   5.369  1.5088  0.6427  1.3668
 7362TIP3    H222051   0.438   3.232   5.342  0.8822  0.2834  0.4156
 7363TIP3   OH222052   2.221   0.682   2.009 -0.2792  1.0142 -0.2465
 7363TIP3    H122053   2.295   0.700   1.952 -0.5476  2.0217 -0.2975
 7363TIP3    H222054   2.171   0.613   1.963  0.2481  0.8190 -0.5352
 7364TIP3   OH222055   1.136   1.678   0.786  0.7160  0.0294 -0.5272
 7364TIP3    H122056   1.230   1.692   0.776  1.3744 -3.1102  0.2999
 7364TIP3    H222057   1.123   1.668   0.880 -0.6043  1.0478 -0.5662
 7365TIP3   OH222058   5.249   0.911   2.441 -0.1360  0.2203 -0.3458
 7365TIP3    H122059   5.274   0.970   2.370 -0.3650  0.1635 -0.4765
 7365TIP3    H222060   5.253   0.824   2.403 -3.4853  0.3498 -1.3507
 7366TIP3   OH222061   0.145   2.438   2.108 -0.3658  0.5330  0.4135
 7366TIP3    H122062   0.104   2.359   2.072  0.9174  0.3682 -0.7859
 7366TIP3    H222063   0.165   2.416   2.198 -0.7662 -0.2184  0.3264
 7367TIP3   OH222064   6.392   2.034   0.734  0.3800  0.3371  0.4666
 7367TIP3    H122065   6.438   2.061   0.813  0.3491 -0.0214  0.6105
 7367TIP3    H222066   6.426   2.092   0.666  0.1905  0.8398  0.7972
 7368TIP3   OH222067   4.122   3.962   0.219  0.3521  0.3778 -0.3866
 7368TIP3    H122068   4.124   3.950   0.314 -1.1073 -0.7718 -0.4645
 7368TIP3    H222069   4.214   3.963   0.193  0.7565 -0.8735  0.8653
 7369TIP3   OH222070   4.819   1.213   5.345 -0.0779  0.2516 -0.4171
 7369TIP3    H122071   4.888   1.269   5.380 -0.0418  0.4838 -0.8497
 7369TIP3    H222072   4.866   1.141   5.303 -0.1119  0.1246 -0.2348
 7370TIP3   OH222073   3.504   5.917   2.178 -0.3758  0.6517 -0.0759
 7370TIP3    H122074   3.504   5.921   2.274 -2.2746  1.3116 -0.0685
 7370TIP3    H222075   3.502   6.008   2.150  0.8311  0.4920 -0.8015
 7371TIP3   OH222076   0.493   0.756   1.948  0.0128 -0.3719 -0.1364
 7371TIP3    H122077   0.406   0.739   1.984 -1.0089  2.1402 -1.1885
 7371TIP3    H222078   0.547   0.684   1.980 -1.9753 -0.9511  2.1881
 7372TIP3   OH222079   0.917   6.252   4.949 -0.6160  0.5662  0.0216
 7372TIP3    H122080   0.921   6.264   5.044 -0.6870 -0.0939  0.1087
 7372TIP3    H222081   0.945   6.337   4.913 -0.3123  0.7261  0.6291
 7373TIP3   OH222082   2.528   1.218   0.041 -0.8328 -0.5825 -0.1053
 7373TIP3    H122083   2.468   1.290   0.021  0.1269  0.0409 -0.8172
 7373TIP3    H222084   2.599   1.258   0.091  0.5642 -0.6548 -1.9357
 7374TIP3   OH222085   1.693   3.936   2.071 -0.0173 -0.1738  0.0679
 7374TIP3    H122086   1.782   3.941   2.036  0.5211 -0.0487  1.3710
 7374TIP3    H222087   1.706   3.912   2.163 -1.3241  0.1487  0.3478
 7375TIP3   OH222088   1.730   6.160   0.204  0.3382 -0.2935 -0.6089
 7375TIP3    H122089   1.755   6.174   0.296 -1.2015  1.1356 -0.3496
 7375TIP3    H222090   1.813   6.166   0.156  0.8934  1.4505  0.4638
 7376TIP3   OH222091   6.316   2.643   4.177  0.1577 -0.0833  0.3555
 7376TIP3    H122092   6.272   2.570   4.220 -2.7587  1.5987  0.4843
 7376TIP3    H222093   6.325   2.616   4.086 -1.1268 -0.5348  0.3464
 7377TIP3   OH222094   4.281   4.323   2.390 -0.1799  0.1908 -0.4201
 7377TIP3    H122095   4.301   4.238   2.351 -1.1198  0.0219 -0.5713
 7377TIP3    H222096   4.303   4.313   2.482  0.7936  0.1591 -0.6510
 7378TIP3   OH222097   2.691   0.699   4.876  0.1370  0.0299 -0.2819
 7378TIP3    H122098   2.723   0.656   4.796 -1.1996 -2.6517  0.4920
 7378TIP3    H222099   2.767   0.701   4.934  0.3936 -0.7887 -0.5697
 7379TIP3   OH222100   6.705   5.663   2.613 -0.5150  0.1083  0.3040
 7379TIP3    H122101   6.711   5.697   2.524 -1.6893 -0.0959  0.1280
 7379TIP3    H222102   6.771   5.594   2.617 -1.0926 -0.5306 -0.7198
 7380TIP3   OH222103   2.661   6.118   2.501 -0.0804 -0.0778  0.1156
 7380TIP3    H122104   2.678   6.038   2.450 -1.5595 -1.3832  1.5526
 7380TIP3    H222105   2.739   6.127   2.557 -0.5589 -1.4611  1.0601
 7381TIP3   OH222106   3.256   0.511   5.256 -0.4027 -0.1666  0.5225
 7381TIP3    H122107   3.243   0.582   5.319  1.5106 -0.6947  1.5770
 7381TIP3    H222108   3.338   0.534   5.212 -0.3093 -1.2076  0.1449
 7382TIP3   OH222109   5.844   4.413   1.015 -0.0652  0.1255 -0.1325
 7382TIP3    H122110   5.917   4.404   0.954 -0.6362 -0.9482 -0.6851
 7382TIP3    H222111   5.818   4.323   1.035 -2.3372  0.4404 -1.3061
 7383TIP3   OH222112   3.444   1.887   1.299  0.1180 -0.7517 -0.2022
 7383TIP3    H122113   3.494   1.930   1.229 -0.3276 -0.3813 -0.2984
 7383TIP3    H222114   3.362   1.862   1.257  0.3118 -1.5620 -0.1023
 7384TIP3   OH222115   2.383   5.614   5.702  0.8253  0.0723  0.5044
 7384TIP3    H122116   2.319   5.611   5.773 -0.8275 -0.1873 -0.9296
 7384TIP3    H222117   2.443   5.541   5.721 -0.6780 -1.1805  0.6749
 7385TIP3   OH222118   6.961   5.228   3.301 -0.5050  0.1328 -0.3859
 7385TIP3    H122119   7.029   5.160   3.293  0.1112  0.9333 -2.7469
 7385TIP3    H222120   7.000   5.293   3.359  1.3295  1.0870 -2.5045
 7386TIP3   OH222121   3.175   2.031   5.659 -0.2573  0.0107 -0.0364
 7386TIP3    H122122   3.249   2.052   5.602  0.0226  0.3853  0.4555
 7386TIP3    H222123   3.192   1.942   5.688  0.9045  0.6562  1.4083
 7387TIP3   OH222124   6.223   1.023   0.719 -0.1939 -0.1157 -0.5100
 7387TIP3    H122125   6.298   1.058   0.671 -0.6551 -0.1617 -1.2733
 7387TIP3    H222126   6.233   0.928   0.715  1.3108 -0.1700  1.9580
 7388TIP3   OH222127   2.592   3.904   4.267 -0.3436  0.3939  0.2478
 7388TIP3    H122128   2.680   3.869   4.279  0.5787  2.0790 -1.0479
 7388TIP3    H222129   2.573   3.888   4.175 -1.6549 -0.4396  0.6439
 7389TIP3   OH222130   1.789   2.664   4.381  0.2032  0.2374 -0.1931
 7389TIP3    H122131   1.868   2.613   4.395  0.3335 -0.1772 -2.2226
 7389TIP3    H222132   1.819   2.755   4.375  0.4168  0.1725 -0.1000
 7390TIP3   OH222133   1.445   2.016   3.084 -0.2574  0.4294  0.4938
 7390TIP3    H122134   1.382   2.028   3.154 -1.2214  0.5502 -0.3636
 7390TIP3    H222135   1.459   2.104   3.049  1.0894  0.5397  1.2413
 7391TIP3   OH222136   5.913   2.934   4.097 -0.4577 -0.0822  0.0631
 7391TIP3    H122137   5.985   2.959   4.155 -0.6074  0.2702  0.0992
 7391TIP3    H222138   5.835   2.973   4.136 -0.8810 -1.5073  0.7118
 7392TIP3   OH222139   5.131   4.677   0.996  0.4313  0.1184  0.3722
 7392TIP3    H122140   5.159   4.599   1.045 -1.2894 -0.6697  0.2100
 7392TIP3    H222141   5.157   4.659   0.906 -0.2647 -0.4549  0.2746
 7393TIP3   OH222142   1.464   5.013   0.382  0.1964 -0.3595  0.1428
 7393TIP3    H122143   1.504   5.061   0.310  1.0003 -0.3339  0.5849
 7393TIP3    H222144   1.384   5.061   0.403  0.1817 -0.1229 -0.4436
 7394TIP3   OH222145   1.423   4.714   4.645  0.2196 -0.5412  0.1999
 7394TIP3    H122146   1.483   4.781   4.611  0.9143 -1.2741 -0.0466
 7394TIP3    H222147   1.350   4.764   4.681 -0.1805  0.3087 -1.6458
 7395TIP3   OH222148   3.968   5.175   3.176  0.0316  0.7976 -0.0486
 7395TIP3    H122149   4.020   5.198   3.100  0.2551  1.4667  0.3017
 7395TIP3    H222150   4.023   5.114   3.226 -0.6230 -0.6823 -1.0536
 7396TIP3   OH222151   5.830   0.133   4.812 -0.6025 -0.0903  0.2001
 7396TIP3    H122152   5.759   0.154   4.752 -0.2870  0.7098  0.1014
 7396TIP3    H222153   5.882   0.067   4.766 -1.0735 -0.4157  0.1272
 7397TIP3   OH222154   5.079   5.027   5.159 -0.1787  0.3237  0.0546
 7397TIP3    H122155   5.036   4.953   5.202  0.5384 -0.8898 -1.2751
 7397TIP3    H222156   5.014   5.060   5.097  0.0182 -0.1010 -0.3761
 7398TIP3   OH222157   2.693   5.171   3.648  0.1901  0.5985 -0.8176
 7398TIP3    H122158   2.597   5.174   3.642 -0.0211 -0.3049  1.2986
 7398TIP3    H222159   2.716   5.252   3.693 -0.0144 -0.8896  2.1996
 7399TIP3   OH222160   7.208   6.042   1.251 -0.8221  0.6640 -0.0986
 7399TIP3    H122161   7.211   5.950   1.226 -2.0298  0.4177  0.5649
 7399TIP3    H222162   7.188   6.089   1.170  0.4395  0.4309 -0.5699
 7400TIP3   OH222163   5.932   2.071   2.143  0.4952 -0.1603  0.2254
 7400TIP3    H122164   5.989   2.034   2.075  0.1624  0.0952 -0.1965
 7400TIP3    H222165   5.909   1.996   2.198 -0.2027 -0.6064 -0.6415
 7401TIP3   OH222166   4.238   1.479   3.482  0.3245  0.0371  0.8923
 7401TIP3    H122167   4.303   1.530   3.434  1.8337 -2.8451 -0.4030
 7401TIP3    H222168   4.251   1.505   3.574  0.4384  2.4533  0.2578
 7402TIP3   OH222169   6.585   1.152   3.361  0.0736  0.1268  0.5992
 7402TIP3    H122170   6.564   1.067   3.399 -0.4881 -0.3378 -0.7164
 7402TIP3    H222171   6.681   1.159   3.370  0.2091 -0.9496  0.1104
 7403TIP3   OH222172   3.634   3.785   1.192  0.3073 -0.2095 -0.7033
 7403TIP3    H122173   3.699   3.802   1.123 -0.6337 -0.7990 -1.7710
 7403TIP3    H222174   3.630   3.689   1.197 -1.1910 -0.2071 -1.3732
 7404TIP3   OH222175   7.091   5.541   4.238 -0.1377 -0.3108  0.2949
 7404TIP3    H122176   7.114   5.491   4.317  1.4010  0.8443  0.6118
 7404TIP3    H222177   7.086   5.632   4.268  0.6440  0.1600 -0.9810
 7405TIP3   OH222178   1.018   5.700   4.143  0.3372  0.3872  0.3897
 7405TIP3    H122179   1.049   5.766   4.205  2.7268 -0.8736  0.6313
 7405TIP3    H222180   1.018   5.745   4.058 -0.4547  1.3673  0.8843
 7406TIP3   OH222181   6.503   5.176   3.516 -0.4344  0.9380 -0.1061
 7406TIP3    H122182   6.482   5.234   3.589  0.4423 -0.0620  0.9790
 7406TIP3    H222183   6.581   5.129   3.544 -0.3531  0.1748 -1.5057
 7407TIP3   OH222184   4.384   1.219   5.409 -0.3074  0.8891 -0.0534
 7407TIP3    H122185   4.397   1.232   5.315  0.4282  0.8737  0.0400
 7407TIP3    H222186   4.381   1.124   5.420 -1.1186  0.9010 -0.1518
 7408TIP3   OH222187   3.454   3.174   0.562 -0.2564  0.6040 -0.4256
 7408TIP3    H122188   3.512   3.147   0.491  1.3174  1.7819  0.3263
 7408TIP3    H222189   3.477   3.114   0.634 -0.6310  0.4922 -0.4005
 7409TIP3   OH222190   4.213   5.492   1.837  0.3837 -0.1570 -0.0833
 7409TIP3    H122191   4.242   5.401   1.841  0.2108 -0.1721  2.3513
 7409TIP3    H222192   4.117   5.486   1.845  0.2825  0.2115 -0.9346
 7410TIP3   OH222193   4.655   0.277   2.640 -0.1054  0.2688  0.5822
 7410TIP3    H122194   4.717   0.346   2.662  1.6470 -0.5478 -1.3825
 7410TIP3    H222195   4.643   0.285   2.546 -1.6826 -0.6787  0.6678
 7411TIP3   OH222196   1.917   0.927   4.622  0.6723  0.1723 -0.1453
 7411TIP3    H122197   1.858   0.984   4.572 -0.1548  0.5535  1.2254
 7411TIP3    H222198   1.905   0.840   4.585 -1.3340  0.1001  0.6002
 7412TIP3   OH222199   6.056   6.763   0.197  0.2530 -0.1859 -0.2988
 7412TIP3    H122200   5.977   6.775   0.250 -0.4057 -0.8075 -1.1046
 7412TIP3    H222201   6.128   6.774   0.259 -0.4837 -0.5798  0.6642
 7413TIP3   OH222202   3.367   5.447   5.295 -0.4304  0.1341  0.5354
 7413TIP3    H122203   3.340   5.414   5.209 -1.6738 -0.2610  1.0549
 7413TIP3    H222204   3.289   5.491   5.328  0.0487  0.2930  1.4625
 7414TIP3   OH222205   0.821   4.508   0.954 -0.4753 -0.2396 -0.8191
 7414TIP3    H122206   0.740   4.529   0.906 -0.3992 -0.5486 -1.0829
 7414TIP3    H222207   0.878   4.468   0.888 -0.5979 -1.2307 -0.3449
 7415TIP3   OH222208   5.556   3.270   2.611 -0.0775  0.0127 -0.6470
 7415TIP3    H122209   5.566   3.324   2.532 -0.6221  1.0437 -0.0367
 7415TIP3    H222210   5.462   3.252   2.617 -0.3751  1.7539  0.8823
 7416TIP3   OH222211   3.969   5.710   0.590 -0.1929 -0.0186 -0.0417
 7416TIP3    H122212   3.929   5.640   0.538  0.6525 -0.3213 -0.2924
 7416TIP3    H222213   4.050   5.671   0.624 -0.9998 -0.0512  2.0262
 7417TIP3   OH222214   6.273   1.165   5.093 -0.4072 -0.3014  0.1995
 7417TIP3    H122215   6.354   1.124   5.064 -0.4038 -0.2096  0.0805
 7417TIP3    H222216   6.297   1.210   5.175 -0.3506 -0.3184  0.1922
 7418TIP3   OH222217   3.074   0.227   0.884 -0.3276 -0.0373 -0.6340
 7418TIP3    H122218   3.153   0.196   0.839 -0.3348 -0.2694 -0.4934
 7418TIP3    H222219   3.104   0.300   0.938 -0.1072 -0.4285 -0.2130
 7419TIP3   OH222220   6.218   6.260   5.841  0.3143  0.5378  0.1406
 7419TIP3    H122221   6.284   6.220   5.784  1.6347  0.5216  1.6032
 7419TIP3    H222222   6.200   6.193   5.907 -0.0561  1.0868  0.6080
 7420TIP3   OH222223   6.878   6.493   0.572 -0.0808 -0.6012  0.8167
 7420TIP3    H122224   6.889   6.460   0.661  2.3216 -0.1050  0.7713
 7420TIP3    H222225   6.941   6.443   0.520 -2.8563 -2.3997 -1.1200
 7421TIP3   OH222226   6.116   2.812   0.118 -0.3293  0.0443  0.0051
 7421TIP3    H122227   6.187   2.854   0.167  0.4121 -0.2749 -0.7610
 7421TIP3    H222228   6.062   2.885   0.087  0.9950  0.4923 -1.3760
 7422TIP3   OH222229   2.906   0.538   3.012  0.0966 -0.5113  0.2235
 7422TIP3    H122230   2.898   0.447   2.984 -2.0173 -0.1476 -0.5781
 7422TIP3    H222231   2.829   0.553   3.067 -0.3825  1.1327 -0.7962
 7423TIP3   OH222232   4.846   5.913   3.801  0.3905 -0.0058 -0.0645
 7423TIP3    H122233   4.762   5.872   3.823  0.5075  0.1187  0.6325
 7423TIP3    H222234   4.875   5.955   3.882  0.8818  0.3905 -0.4362
 7424TIP3   OH222235   3.526   0.595   5.265  0.0099  0.1134 -0.8196
 7424TIP3    H122236   3.575   0.526   5.310 -1.4062 -0.7871 -0.6080
 7424TIP3    H222237   3.532   0.670   5.323 -0.7389 -0.6656  0.3204
 7425TIP3   OH222238   6.665   2.013   1.536  0.2991  0.5071 -0.2023
 7425TIP3    H122239   6.638   1.922   1.528  0.6254  0.4384 -0.5665
 7425TIP3    H222240   6.585   2.063   1.524 -0.2002  0.2313  1.7156
 7426TIP3   OH222241   2.643   6.004   4.781  0.2494 -0.3772 -0.3015
 7426TIP3    H122242   2.598   5.927   4.746 -0.7368 -0.7115  1.6056
 7426TIP3    H222243   2.686   5.973   4.860 -0.4878  1.1041  0.7200
 7427TIP3   OH222244   3.595   0.261   2.249 -0.5329  0.3840  0.0106
 7427TIP3    H122245   3.509   0.263   2.290 -0.2336 -0.5034  0.7213
 7427TIP3    H222246   3.648   0.206   2.307  0.7752  1.6605  0.0874
 7428TIP3   OH222247   5.525   3.506   5.563  0.4303  0.0176 -0.1844
 7428TIP3    H122248   5.477   3.564   5.622 -0.4421 -1.5418  0.6966
 7428TIP3    H222249   5.473   3.426   5.560  0.9017 -0.2713 -2.4338
 7429TIP3   OH222250   6.351   3.233   2.635 -0.4701 -0.5380 -0.4738
 7429TIP3    H122251   6.371   3.196   2.721  2.2797 -1.0733 -1.2612
 7429TIP3    H222252   6.386   3.322   2.638  1.2528 -1.1398 -1.5618
 7430TIP3   OH222253   2.444   3.630   3.189 -0.3591 -0.1831 -0.1592
 7430TIP3    H122254   2.392   3.625   3.269  0.6001  1.0905  0.5856
 7430TIP3    H222255   2.535   3.629   3.219  0.0592 -1.1363 -1.3434
 7431TIP3   OH222256   4.911   4.914   4.600  0.8800 -0.2010 -0.2873
 7431TIP3    H122257   4.978   4.980   4.585  1.4352 -0.3516  1.3197
 7431TIP3    H222258   4.864   4.945   4.677  0.0285 -0.8307 -0.5374
 7432TIP3   OH222259   5.803   2.419   3.331  0.2582  0.1020  0.1695
 7432TIP3    H122260   5.756   2.456   3.256 -0.6275 -0.1284  0.6012
 7432TIP3    H222261   5.893   2.407   3.300  1.4833  5.2581  0.7485
 7433TIP3   OH222262   1.420   6.213   1.278 -0.4621 -0.0690 -0.1909
 7433TIP3    H122263   1.483   6.209   1.206 -0.2397 -1.2292  0.0588
 7433TIP3    H222264   1.341   6.172   1.243 -0.3752 -0.5751  0.2096
 7434TIP3   OH222265   2.065   1.684   5.605 -0.4146  0.1623 -0.0486
 7434TIP3    H122266   2.113   1.601   5.597 -1.3994 -0.5308  0.9483
 7434TIP3    H222267   2.133   1.749   5.626  0.2826 -0.5132 -0.1633
 7435TIP3   OH222268   1.657   2.633   0.776  0.0701 -0.6030 -0.2994
 7435TIP3    H122269   1.605   2.693   0.829  1.3159 -0.7902  1.1979
 7435TIP3    H222270   1.671   2.557   0.831  1.2419 -0.8912 -0.9429
 7436TIP3   OH222271   3.884   3.370   4.910  0.9155  0.1712 -0.7615
 7436TIP3    H122272   3.791   3.352   4.895  0.3409  1.5426  0.8440
 7436TIP3    H222273   3.888   3.465   4.922  2.2402 -0.0519  0.9039
 7437TIP3   OH222274   6.611   0.549   1.394 -0.1617 -0.2371 -0.0509
 7437TIP3    H122275   6.516   0.555   1.407  0.0403  0.3552  1.3680
 7437TIP3    H222276   6.640   0.641   1.390  0.3321 -0.4142 -0.6985
 7438TIP3   OH222277   4.487   5.011   1.179 -0.5671 -0.7345 -0.0654
 7438TIP3    H122278   4.576   4.984   1.200 -0.8957 -0.0747  2.5265
 7438TIP3    H222279   4.489   5.033   1.086  2.1987  0.1329  0.1316
 7439TIP3   OH222280   3.192   6.727   4.848  0.1010 -0.8798  0.4567
 7439TIP3    H122281   3.184   6.807   4.900 -1.1460  0.4214 -1.5698
 7439TIP3    H222282   3.102   6.704   4.825  0.5373 -1.9522 -0.3013
 7440TIP3   OH222283   3.120   6.011   1.315  0.2808  0.1999  0.1865
 7440TIP3    H122284   3.081   6.065   1.246  0.5581 -0.2235 -0.3172
 7440TIP3    H222285   3.187   5.960   1.269  0.4443 -0.1164  0.7692
 7441TIP3   OH222286   5.685   2.463   5.079  0.2781  0.0130  0.8374
 7441TIP3    H122287   5.603   2.508   5.055  0.5849  1.0463  1.6680
 7441TIP3    H222288   5.746   2.486   5.009  0.1252 -0.0275  0.6874
 7442TIP3   OH222289   6.066   4.773   4.661  0.3460  0.4594 -0.5854
 7442TIP3    H122290   6.021   4.689   4.668 -1.2034  1.3063  0.0213
 7442TIP3    H222291   6.090   4.795   4.751  3.3413 -0.6230 -1.0006
 7443TIP3   OH222292   5.285   3.291   2.383 -0.2687 -0.5793  0.4402
 7443TIP3    H122293   5.208   3.268   2.435  0.3418 -0.0948  1.6001
 7443TIP3    H222294   5.251   3.344   2.312 -0.9367  0.3974  1.4443
 7444TIP3   OH222295   6.995   6.609   2.454 -0.1976 -0.3875  0.0697
 7444TIP3    H122296   7.046   6.541   2.497 -0.2891 -0.7689 -0.4295
 7444TIP3    H222297   6.945   6.564   2.386 -1.3067 -0.0499  0.6339
 7445TIP3   OH222298   4.503   3.195   0.914  0.5120  0.1802  0.3578
 7445TIP3    H122299   4.451   3.136   0.970 -0.0840 -1.3325 -1.6816
 7445TIP3    H222300   4.451   3.275   0.909 -0.2121 -0.2590  0.6700
 7446TIP3   OH222301   5.819   0.574   5.831  0.3374  0.4579  0.6266
 7446TIP3    H122302   5.863   0.641   5.883  1.2440  0.5051 -0.1687
 7446TIP3    H222303   5.759   0.530   5.892  0.4054  1.3844  1.3644
 7447TIP3   OH222304   2.147   6.677   4.070 -0.2490  0.3638 -0.5500
 7447TIP3    H122305   2.063   6.632   4.063 -0.2304  0.3889 -0.9109
 7447TIP3    H222306   2.126   6.760   4.114 -0.1858 -0.2618  0.7236
 7448TIP3   OH222307   5.663   0.483   3.229 -0.3618  0.0977 -0.5882
 7448TIP3    H122308   5.738   0.512   3.177 -1.2007  0.7743 -1.4743
 7448TIP3    H222309   5.594   0.546   3.208 -0.8754  0.1225  1.0264
 7449TIP3   OH222310   1.624   5.468   3.722 -0.5088  0.0410  0.3815
 7449TIP3    H122311   1.713   5.485   3.692 -0.6568  0.6681  0.2891
 7449TIP3    H222312   1.628   5.477   3.817 -0.4524 -0.0429  0.3873
 7450TIP3   OH222313   0.773   6.553   1.574  0.1226  0.1920  0.2319
 7450TIP3    H122314   0.717   6.563   1.651 -0.7593 -0.3451 -0.3261
 7450TIP3    H222315   0.729   6.487   1.520  1.1016  0.0309 -0.4003
 7451TIP3   OH222316   4.439   4.705   4.334 -0.2714  0.4208  0.2789
 7451TIP3    H122317   4.367   4.659   4.289 -0.5396  0.1799  0.9357
 7451TIP3    H222318   4.410   4.797   4.337 -0.4028  0.3808  0.2526
 7452TIP3   OH222319   5.529   0.344   5.590  0.0420  0.1762 -0.3684
 7452TIP3    H122320   5.589   0.343   5.665 -1.5902 -2.1253  1.0591
 7452TIP3    H222321   5.517   0.437   5.570 -1.0902  1.1200  3.6899
 7453TIP3   OH222322   6.870   2.642   4.786 -0.3407  0.4784 -0.2777
 7453TIP3    H122323   6.812   2.579   4.829 -0.0783  0.1843 -0.3474
 7453TIP3    H222324   6.811   2.708   4.750 -0.4734  1.8897  2.3123
 7454TIP3   OH222325   6.007   6.357   3.104  0.0493  0.1584 -0.0980
 7454TIP3    H122326   5.941   6.288   3.095 -0.4371  0.3955  1.3643
 7454TIP3    H222327   6.003   6.405   3.022 -1.4956  0.0531 -0.1105
 7455TIP3   OH222328   0.249   1.909   4.987 -0.1549 -0.6191 -0.1188
 7455TIP3    H122329   0.323   1.912   5.048  0.2545 -0.3327 -0.6271
 7455TIP3    H222330   0.289   1.891   4.902 -0.6164  0.0455 -0.4812
 7456TIP3   OH222331   2.795   3.213   5.127  0.1946  0.3590  0.0215
 7456TIP3    H122332   2.744   3.151   5.074 -2.0309  0.9678  1.3029
 7456TIP3    H222333   2.729   3.268   5.168  2.0425  2.6476  0.0913
 7457TIP3   OH222334   5.079   1.343   0.235  0.4662  0.0200  0.2355
 7457TIP3    H122335   5.008   1.294   0.195  1.2235 -1.7901  0.9933
 7457TIP3    H222336   5.063   1.336   0.329 -0.0438  2.2786  0.3802
 7458TIP3   OH222337   7.086   4.447   2.803  0.6437  0.1492  0.4960
 7458TIP3    H122338   7.052   4.365   2.837  0.3155 -0.2970 -0.8337
 7458TIP3    H222339   7.016   4.482   2.748  1.0688  0.9363  0.4277
 7459TIP3   OH222340   7.077   5.292   1.500  0.0564 -0.2298 -0.2787
 7459TIP3    H122341   7.015   5.338   1.443 -0.0057 -1.3768 -1.1852
 7459TIP3    H222342   7.033   5.288   1.585 -0.6297 -0.0294 -0.6138
 7460TIP3   OH222343   5.420   1.105   4.265 -0.8293  0.3784  0.2932
 7460TIP3    H122344   5.419   1.075   4.356 -0.2882 -0.0534  0.1601
 7460TIP3    H222345   5.465   1.036   4.217 -3.6103 -0.8356 -0.8057
 7461TIP3   OH222346   6.891   2.105   0.212  0.3488 -0.5318 -0.4261
 7461TIP3    H122347   6.810   2.129   0.257  1.1963 -0.3295  1.0596
 7461TIP3    H222348   6.939   2.051   0.275  1.8053  0.1473 -0.9028
 7462TIP3   OH222349   6.393   2.359   1.850  0.7019  0.0975  0.4709
 7462TIP3    H122350   6.345   2.383   1.771  1.5793 -0.4224 -0.2388
 7462TIP3    H222351   6.371   2.267   1.865 -0.6085  0.5612  1.7015
 7463TIP3   OH222352   5.021   6.642   0.887  0.0715  0.4443  0.0177
 7463TIP3    H122353   5.026   6.703   0.961  1.2586  1.7205 -1.0575
 7463TIP3    H222354   4.940   6.665   0.842 -1.1281 -0.9385  1.3724
 7464TIP3   OH222355   5.011   1.869   1.736 -0.4096 -0.1730  0.2980
 7464TIP3    H122356   5.071   1.821   1.679  0.0559  1.6841 -0.8548
 7464TIP3    H222357   4.972   1.935   1.680 -0.4447  1.3064  1.9741
 7465TIP3   OH222358   3.203   1.215   2.810 -0.4399  0.1630 -0.1305
 7465TIP3    H122359   3.256   1.284   2.849 -1.5476  0.5726  0.6901
 7465TIP3    H222360   3.239   1.204   2.722  0.9220  0.4998  0.3608
 7466TIP3   OH222361   5.113   0.870   5.027  0.5212 -0.0055  0.0174
 7466TIP3    H122362   5.129   0.824   4.945  0.1155 -1.1224  0.5486
 7466TIP3    H222363   5.125   0.962   5.005  0.9020 -0.3191 -1.1765
 7467TIP3   OH222364   4.829   4.038   0.725  0.2112 -0.3516 -0.0277
 7467TIP3    H122365   4.809   4.050   0.818  0.5038  1.4114 -0.1705
 7467TIP3    H222366   4.759   3.981   0.693 -0.9653  0.5426  0.8723
 7468TIP3   OH222367   0.141   2.621   1.741  0.1212  0.4596 -0.2077
 7468TIP3    H122368   0.076   2.553   1.762 -0.2984  0.4763 -1.3600
 7468TIP3    H222369   0.170   2.654   1.826  1.2161 -1.9631  0.4467
 7469TIP3   OH222370   2.633   4.606   3.165  0.0087 -0.5508  0.3477
 7469TIP3    H122371   2.682   4.676   3.207  0.2705 -0.3386 -0.3020
 7469TIP3    H222372   2.541   4.625   3.186  0.1936 -1.1368  1.8541
 7470TIP3   OH222373   3.185   6.083   5.130  0.9158  0.2990  0.2715
 7470TIP3    H122374   3.242   6.032   5.187  0.5189  0.9590  1.2791
 7470TIP3    H222375   3.192   6.040   5.044  0.1959 -1.7807  1.1952
 7471TIP3   OH222376   0.510   0.810   1.388 -0.1072 -0.1220  0.6555
 7471TIP3    H122377   0.579   0.744   1.396  1.0374  0.9467  0.0821
 7471TIP3    H222378   0.441   0.767   1.337  0.1803 -1.1767  1.1294
 7472TIP3   OH222379   2.168   0.241   3.853  0.2466  0.1822 -0.2949
 7472TIP3    H122380   2.163   0.146   3.862  0.4420  0.2914  1.1871
 7472TIP3    H222381   2.142   0.275   3.938  3.3988  1.3585  0.3669
 7473TIP3   OH222382   1.871   0.857   4.920 -0.1782 -0.3943 -0.1072
 7473TIP3    H122383   1.896   0.791   4.985  0.4053  0.1349  0.2264
 7473TIP3    H222384   1.856   0.937   4.971  1.4490  0.3495 -0.6927
 7474TIP3   OH222385   1.623   4.116   5.654 -0.1527 -0.3327  0.0838
 7474TIP3    H122386   1.638   4.022   5.638 -1.0538 -0.4089 -0.3970
 7474TIP3    H222387   1.546   4.137   5.601  1.6475  1.3458 -2.0632
 7475TIP3   OH222388   0.201   1.945   5.393  0.7952  0.1391 -0.2690
 7475TIP3    H122389   0.215   1.850   5.394  0.5987  0.1103 -0.1335
 7475TIP3    H222390   0.174   1.967   5.482  1.3748  0.4107 -0.1549
 7476TIP3   OH222391   6.157   1.106   1.110  0.4387  0.0242 -0.3714
 7476TIP3    H122392   6.104   1.038   1.070  0.1362  0.5572 -0.9005
 7476TIP3    H222393   6.097   1.180   1.121  1.1636  0.8271 -1.4762
 7477TIP3   OH222394   5.003   4.785   2.350 -0.1215  0.3566  0.2196
 7477TIP3    H122395   4.937   4.736   2.301 -0.0795  0.4777  0.0419
 7477TIP3    H222396   4.969   4.875   2.353 -1.0727 -0.0027  2.0350
 7478TIP3   OH222397   0.836   6.468   5.503  0.3455  0.5030 -0.1350
 7478TIP3    H122398   0.786   6.459   5.422  0.2241 -0.4173  0.0369
 7478TIP3    H222399   0.925   6.439   5.481  1.1080  3.0479 -0.6969
 7479TIP3   OH222400   3.677   6.817   1.707 -0.3839 -0.2359 -0.3905
 7479TIP3    H122401   3.732   6.807   1.629 -1.2401 -1.2919 -0.8795
 7479TIP3    H222402   3.685   6.734   1.753  0.5410  0.5580  0.9768
 7480TIP3   OH222403   1.245   1.985   2.441  0.2796 -0.2651 -0.1259
 7480TIP3    H122404   1.308   1.935   2.492  1.1125  0.8374 -0.0311
 7480TIP3    H222405   1.244   2.071   2.482  0.5638  0.4831 -1.6134
 7481TIP3   OH222406   6.377   3.213   4.773 -0.0603  0.1829 -0.0345
 7481TIP3    H122407   6.456   3.230   4.825 -0.7084 -0.8568  1.3555
 7481TIP3    H222408   6.340   3.133   4.811 -1.9040  0.7626 -0.4903
 7482TIP3   OH222409   4.738   6.313   2.095  0.4316  0.3088  0.3032
 7482TIP3    H122410   4.650   6.322   2.059  1.0502  2.4907 -0.8272
 7482TIP3    H222411   4.797   6.322   2.020  1.7158 -3.5252  0.5973
 7483TIP3   OH222412   4.038   4.594   3.189  0.6763  0.0180 -0.8914
 7483TIP3    H122413   3.944   4.609   3.182  0.6152  0.0940 -0.0151
 7483TIP3    H222414   4.050   4.502   3.165  0.0896 -0.6089  1.0607
 7484TIP3   OH222415   3.401   2.068   5.844  0.2116  0.5237 -0.4502
 7484TIP3    H122416   3.334   2.018   5.891 -0.0994 -0.1887 -1.5948
 7484TIP3    H222417   3.355   2.146   5.812  0.1863  0.5474 -0.3551
 7485TIP3   OH222418   7.123   4.094   3.443 -0.2799 -0.1308  0.1167
 7485TIP3    H122419   7.137   4.088   3.537 -1.8430  1.4032  0.5014
 7485TIP3    H222420   7.044   4.147   3.434  0.2379  0.3687 -2.0887
 7486TIP3   OH222421   6.307   5.517   0.684  0.0033  0.2808  0.3319
 7486TIP3    H122422   6.228   5.548   0.728 -1.5575 -0.2115 -1.9535
 7486TIP3    H222423   6.351   5.597   0.655 -1.1318  0.5136 -0.7920
 7487TIP3   OH222424   4.497   0.586   3.594 -0.3881 -0.0146 -0.2865
 7487TIP3    H122425   4.549   0.593   3.514  0.3014 -0.4765  0.1008
 7487TIP3    H222426   4.418   0.540   3.568 -0.1147 -0.2694 -0.6875
 7488TIP3   OH222427   2.407   5.020   0.530  0.5362 -0.5335 -0.3871
 7488TIP3    H122428   2.380   5.084   0.464 -1.9864 -2.8218 -1.7724
 7488TIP3    H222429   2.423   5.072   0.609  0.4609  1.9499 -1.9055
 7489TIP3   OH222430   3.595   4.743  -0.014  0.0424 -0.2095 -0.0151
 7489TIP3    H122431   3.657   4.794   0.039  1.9248 -1.8495 -0.5411
 7489TIP3    H222432   3.622   4.652  -0.002 -2.2498 -0.9932 -0.3500
 7490TIP3   OH222433   4.334   3.667   3.081  0.7699 -0.3657  0.1229
 7490TIP3    H122434   4.373   3.580   3.091  1.3751  0.0832  2.0320
 7490TIP3    H222435   4.406   3.728   3.096 -0.0352  0.4711  0.7223
 7491TIP3   OH222436   0.678   5.291   0.369 -0.3165  0.1061  0.0528
 7491TIP3    H122437   0.759   5.312   0.323  0.5717 -0.9330  1.0946
 7491TIP3    H222438   0.692   5.203   0.404 -1.5901  0.2193  0.9188
 7492TIP3   OH222439   0.649   5.124   2.194  0.0678 -0.3081 -0.6760
 7492TIP3    H122440   0.638   5.206   2.146  1.0104  0.9297  1.0862
 7492TIP3    H222441   0.604   5.058   2.141 -2.7081  1.7310 -1.0432
 7493TIP3   OH222442   0.448   0.013   4.088 -0.3977  0.2659  0.0542
 7493TIP3    H122443   0.416  -0.055   4.029 -1.4107 -0.6199  1.5418
 7493TIP3    H222444   0.388   0.086   4.076  0.4827  0.7889 -1.2962
 7494TIP3   OH222445   6.332   2.419   0.198 -0.3700 -0.2251 -0.1475
 7494TIP3    H122446   6.308   2.461   0.116 -0.4131  1.1603  0.5547
 7494TIP3    H222447   6.265   2.446   0.260  0.9858  0.7529  0.9480
 7495TIP3   OH222448   7.021   1.027   1.492 -0.8936  0.1827 -0.5042
 7495TIP3    H122449   7.099   0.983   1.524  1.1425  1.5771 -3.1320
 7495TIP3    H222450   7.016   1.107   1.545  1.3384  1.5613 -2.1939
 7496TIP3   OH222451   2.225   3.422   4.496  0.7918  0.1610  0.0643
 7496TIP3    H122452   2.264   3.494   4.545  0.8503 -0.8559  1.5970
 7496TIP3    H222453   2.234   3.346   4.554 -1.7799 -0.5244 -0.3028
 7497TIP3   OH222454   5.671   0.251   5.821  0.2940 -0.3938 -0.0135
 7497TIP3    H122455   5.674   0.252   5.916  0.2172 -0.6534 -0.0070
 7497TIP3    H222456   5.735   0.184   5.795  0.6601  0.0121 -0.1620
 7498TIP3   OH222457   2.555   6.232   5.430  0.5414  0.0896  0.0730
 7498TIP3    H122458   2.605   6.204   5.353  0.4063 -0.9140  0.3265
 7498TIP3    H222459   2.609   6.204   5.504  0.7768  1.2492  0.3476
 7499TIP3   OH222460   6.599   1.402  -0.026  0.0994  0.0665  0.3511
 7499TIP3    H122461   6.628   1.414   0.064  0.8041 -0.9489  0.2812
 7499TIP3    H222462   6.544   1.324  -0.024 -1.6976  1.2633  0.2555
 7500TIP3   OH222463   2.347   4.094   5.110  0.0691 -0.7142 -0.0622
 7500TIP3    H122464   2.414   4.161   5.101  0.1156 -0.8146 -0.4753
 7500TIP3    H222465   2.394   4.017   5.141  0.3818 -1.1741 -1.5967
 7501TIP3   OH222466   1.319   4.564   4.450  0.3247 -0.6489 -0.0678
 7501TIP3    H122467   1.327   4.657   4.430  0.9118 -0.5347  0.6578
 7501TIP3    H222468   1.356   4.555   4.538 -0.4717 -1.4334  0.2070
 7502TIP3   OH222469   1.551   1.361   0.416  0.0185 -0.4476  0.3873
 7502TIP3    H122470   1.545   1.273   0.453  0.4864 -0.0882  1.3583
 7502TIP3    H222471   1.465   1.400   0.432 -0.4500 -0.9715 -0.7366
 7503TIP3   OH222472   6.298   6.050   1.082  0.0603 -0.4138 -1.1165
 7503TIP3    H122473   6.329   5.986   1.146 -0.4241 -0.3719 -0.8405
 7503TIP3    H222474   6.277   5.999   1.004 -0.1323 -0.5626 -0.9656
 7504TIP3   OH222475   3.905   1.451   3.259  0.2592 -0.7466  0.1525
 7504TIP3    H122476   3.934   1.367   3.223 -1.7304 -0.6729 -1.8572
 7504TIP3    H222477   3.935   1.516   3.195 -0.8806 -0.2846  0.0550
 7505TIP3   OH222478   1.498   6.430   0.966  0.7543 -0.1936 -0.0624
 7505TIP3    H122479   1.515   6.521   0.989  0.2858  0.1636 -1.0616
 7505TIP3    H222480   1.404   6.427   0.950  0.6643 -1.0024  0.5713
 7506TIP3   OH222481   4.179   2.826   3.233 -0.7829  0.0257  0.1311
 7506TIP3    H122482   4.217   2.825   3.145 -1.8458 -0.7886 -0.3550
 7506TIP3    H222483   4.171   2.919   3.256  0.1788  0.2248 -0.3249
 7507TIP3   OH222484   0.484   2.953   2.560  0.0313 -0.0703  0.1547
 7507TIP3    H122485   0.532   3.033   2.538 -0.2469  0.5698  1.7638
 7507TIP3    H222486   0.548   2.897   2.603 -0.1555 -0.0780  0.4231
 7508TIP3   OH222487   3.428   0.443   0.202 -0.3078  0.5482  0.1649
 7508TIP3    H122488   3.395   0.513   0.145  1.8516  1.6549  0.1731
 7508TIP3    H222489   3.379   0.365   0.175 -1.4952  1.6755 -1.0900
 7509TIP3   OH222490   6.590   3.994   4.208 -0.4528  0.3027 -0.2765
 7509TIP3    H122491   6.544   3.998   4.292 -0.5446  0.2730 -0.3249
 7509TIP3    H222492   6.669   4.046   4.222 -0.8250  0.9068 -0.3940
 7510TIP3   OH222493   2.463   4.861   1.198  0.1970  0.1517  0.6240
 7510TIP3    H122494   2.378   4.846   1.157  0.2310 -1.4749  1.0849
 7510TIP3    H222495   2.526   4.836   1.130  0.2801 -0.2567  0.8499
 7511TIP3   OH222496   6.318   1.351   1.173 -0.3519 -0.6029  0.6132
 7511TIP3    H122497   6.324   1.271   1.121  0.8279 -1.2870  1.7427
 7511TIP3    H222498   6.279   1.416   1.114 -0.4783 -1.7637 -0.6063
 7512TIP3   OH222499   4.044   4.011   4.429  0.4353  0.0883 -0.6106
 7512TIP3    H122500   4.014   3.926   4.399  0.0491 -0.5788  1.4614
 7512TIP3    H222501   4.119   4.032   4.374  0.1459 -1.2945 -1.5632
 7513TIP3   OH222502   4.346   0.262   5.071  0.2786 -0.2463  0.0038
 7513TIP3    H122503   4.292   0.340   5.065  1.0140  0.2803  0.0936
 7513TIP3    H222504   4.436   0.295   5.075  0.6034 -1.0960 -0.0209
 7514TIP3   OH222505   4.782   5.555   5.491 -0.2079 -0.9283  0.2870
 7514TIP3    H122506   4.832   5.567   5.572 -0.5828 -0.3767  0.4451
 7514TIP3    H222507   4.843   5.579   5.422 -0.4432  0.4026  0.5141
 7515TIP3   OH222508   2.756   4.770   0.439 -0.2527 -0.0276 -0.5438
 7515TIP3    H122509   2.777   4.690   0.487 -1.8825 -0.0007  0.2564
 7515TIP3    H222510   2.819   4.834   0.470  0.1033 -0.5933 -0.0812
 7516TIP3   OH222511   6.503   1.993   2.888  0.5951  0.6545  0.1441
 7516TIP3    H122512   6.504   2.088   2.900  0.3866  0.6388  0.2782
 7516TIP3    H222513   6.525   1.957   2.974  0.3743  0.5750  0.1687
 7517TIP3   OH222514   1.857   5.679   4.191  0.1502 -0.0661  0.2215
 7517TIP3    H122515   1.932   5.738   4.180 -0.3348  0.4525 -0.4470
 7517TIP3    H222516   1.797   5.727   4.247 -0.5474  0.3904 -0.8864
 7518TIP3   OH222517   1.277   2.227   2.584  0.1378 -0.0242 -0.5077
 7518TIP3    H122518   1.274   2.317   2.616  0.1623  0.1001 -0.8555
 7518TIP3    H222519   1.285   2.174   2.663  0.8972  0.3217 -0.3463
 7519TIP3   OH222520   3.363   4.634   1.724 -0.1036  0.0831 -0.2835
 7519TIP3    H122521   3.445   4.584   1.717 -1.4496 -1.9959 -2.6055
 7519TIP3    H222522   3.355   4.653   1.818  1.0317 -3.2756  0.6444
 7520TIP3   OH222523   2.525   3.631   3.738  0.5489  0.3048  0.5529
 7520TIP3    H122524   2.475   3.713   3.729  0.6718  0.3188 -0.1253
 7520TIP3    H222525   2.592   3.650   3.803  0.9531  0.9454 -0.0312
 7521TIP3   OH222526   3.311   5.721   0.662  0.1232 -0.6785  0.0107
 7521TIP3    H122527   3.281   5.763   0.742 -2.3049  1.5349 -1.8521
 7521TIP3    H222528   3.398   5.757   0.647 -1.4921  3.4586 -1.0362
 7522TIP3   OH222529   6.189   3.844   1.349 -0.3680 -0.0284 -0.7732
 7522TIP3    H122530   6.244   3.869   1.423 -0.9426 -1.7307  0.2982
 7522TIP3    H222531   6.250   3.831   1.277  0.6502 -1.5188  0.2839
 7523TIP3   OH222532   0.989   1.782   2.372 -0.0784 -0.4548 -0.2039
 7523TIP3    H122533   0.980   1.743   2.286  0.2535 -0.9301 -0.0238
 7523TIP3    H222534   1.061   1.735   2.413 -0.1848 -0.1828  0.3081
 7524TIP3   OH222535   3.770   1.212   1.007  0.4768  0.1277 -0.5438
 7524TIP3    H122536   3.784   1.118   0.998 -0.8457 -0.2958  1.2062
 7524TIP3    H222537   3.820   1.236   1.085 -0.5071  0.5234 -0.0203
 7525TIP3   OH222538   0.394   2.185   3.549  0.1607  0.2292 -0.6342
 7525TIP3    H122539   0.391   2.177   3.454 -0.4514  1.2024 -0.7077
 7525TIP3    H222540   0.485   2.206   3.568  0.4045 -0.4877 -0.9425
 7526TIP3   OH222541   2.177   6.690   4.670 -0.7785  0.2076 -0.3332
 7526TIP3    H122542   2.168   6.710   4.576  0.5741  1.5853 -0.1985
 7526TIP3    H222543   2.133   6.762   4.714 -1.5828 -0.5393  0.1243
 7527TIP3   OH222544   7.087   2.847   3.150  0.0257  0.3597 -0.1954
 7527TIP3    H122545   7.111   2.882   3.064 -0.6753  0.2426 -0.4500
 7527TIP3    H222546   7.088   2.752   3.138 -0.8725  0.3527 -0.3173
 7528TIP3   OH222547   6.313   6.612   2.522  0.2741  0.6027 -0.0099
 7528TIP3    H122548   6.219   6.616   2.507  0.3133  1.0188 -0.1620
 7528TIP3    H222549   6.344   6.701   2.505  0.4247  0.9517  1.8981
 7529TIP3   OH222550   5.690   5.237   4.972 -0.2808 -0.5270 -0.1162
 7529TIP3    H122551   5.703   5.143   4.982 -1.3800 -0.5462  1.8361
 7529TIP3    H222552   5.773   5.276   4.998  0.3016 -0.9419 -1.2978
 7530TIP3   OH222553   1.151   3.831   0.359 -0.4029 -0.2354 -0.3411
 7530TIP3    H122554   1.191   3.878   0.432 -1.6513 -1.5329  1.2361
 7530TIP3    H222555   1.207   3.754   0.347 -0.9498 -0.7147  0.1510
 7531TIP3   OH222556   6.889   5.146   2.975 -0.2969  0.1014 -0.0591
 7531TIP3    H122557   6.868   5.163   2.883 -0.5794 -0.2741 -0.0641
 7531TIP3    H222558   6.929   5.059   2.975 -0.1032  0.1883  0.1504
 7532TIP3   OH222559   1.237   3.786   1.811  0.1084 -0.3560 -0.0179
 7532TIP3    H122560   1.324   3.819   1.835 -0.7540  1.2576  1.1722
 7532TIP3    H222561   1.223   3.818   1.722 -0.1272  1.3797  0.6013
 7533TIP3   OH222562   3.118   3.093   1.288  0.0898  0.0654 -0.0368
 7533TIP3    H122563   3.173   3.040   1.231 -0.4603 -0.2416 -0.2964
 7533TIP3    H222564   3.060   3.030   1.331 -0.3189  0.4123 -0.0632
 7534TIP3   OH222565   0.254   6.611   2.137  0.6089  0.0090 -0.2616
 7534TIP3    H122566   0.169   6.625   2.094  0.4727 -0.4680 -0.1504
 7534TIP3    H222567   0.275   6.696   2.175  0.4705  0.2987 -0.8072
 7535TIP3   OH222568   7.102   5.764   4.441 -0.1366 -0.2502 -0.1262
 7535TIP3    H122569   7.079   5.737   4.530  0.5423  1.8721  0.7534
 7535TIP3    H222570   7.197   5.774   4.442 -0.1843  0.4164 -0.8845
 7536TIP3   OH222571   6.199   6.490   3.609 -0.0736 -0.1941  0.1751
 7536TIP3    H122572   6.123   6.516   3.662 -0.3475 -0.3735 -0.1262
 7536TIP3    H222573   6.269   6.476   3.673  0.2736  1.8358  0.3389
 7537TIP3   OH222574   5.778   2.115   1.724  0.3525  0.6457 -0.5763
 7537TIP3    H122575   5.795   2.035   1.774  0.2621  1.7965  1.4019
 7537TIP3    H222576   5.687   2.106   1.696 -0.0740  0.5576  0.7331
 7538TIP3   OH222577   7.189   3.719   5.336 -0.5896  0.2339 -0.0779
 7538TIP3    H122578   7.276   3.688   5.310  0.0169  0.4577  1.5855
 7538TIP3    H222579   7.136   3.640   5.338 -0.2143 -0.0296 -0.2896
 7539TIP3   OH222580   3.389   5.462   4.014 -0.4238 -0.2645  0.4420
 7539TIP3    H122581   3.453   5.391   4.011  0.1668  0.1985  1.5360
 7539TIP3    H222582   3.308   5.422   3.983  0.2487 -1.0033 -0.4486
 7540TIP3   OH222583   2.011   4.550   2.439  0.5362  0.6969  0.0074
 7540TIP3    H122584   2.066   4.598   2.377 -0.6420  0.3322 -1.3706
 7540TIP3    H222585   2.065   4.475   2.466  1.0749  0.8702 -0.5694
 7541TIP3   OH222586   5.007   6.702   1.584  0.0650  0.1482 -0.3827
 7541TIP3    H122587   5.100   6.726   1.580  0.4519 -1.3685 -2.0727
 7541TIP3    H222588   4.997   6.658   1.668  0.5057  1.6622  0.4856
 7542TIP3   OH222589   2.912   1.805   1.416 -0.0874  0.1622  0.5820
 7542TIP3    H122590   2.959   1.852   1.484  1.1371 -0.8343  0.4572
 7542TIP3    H222591   2.893   1.720   1.455 -0.1878 -0.0904 -0.0069
 7543TIP3   OH222592   5.141   5.929   5.671 -1.0216 -0.6507  0.0638
 7543TIP3    H122593   5.061   5.958   5.627 -0.9679  1.7403  1.3714
 7543TIP3    H222594   5.190   5.882   5.604 -2.3001  0.1950 -1.5371
 7544TIP3   OH222595   4.976   0.604   4.151 -0.3863 -0.1703  0.0327
 7544TIP3    H122596   5.011   0.684   4.112  1.6758 -0.6376  0.7988
 7544TIP3    H222597   4.910   0.574   4.089  0.4091  0.9093 -1.4071
 7545TIP3   OH222598   3.003   2.488   0.882  0.0541  0.2127  0.0324
 7545TIP3    H122599   2.996   2.525   0.794 -0.8455  1.6976  0.6973
 7545TIP3    H222600   3.042   2.558   0.935 -1.2625  0.0912  1.2237
 7546TIP3   OH222601   1.297   1.204   1.047  0.3036  0.1658  0.0802
 7546TIP3    H122602   1.244   1.215   0.969  0.2571 -0.7565 -0.0261
 7546TIP3    H222603   1.385   1.228   1.020  0.2577  0.0026 -0.2199
 7547TIP3   OH222604   4.182   4.804   3.903 -0.2716  0.3421  0.0847
 7547TIP3    H122605   4.118   4.734   3.893  0.6985 -0.3799 -1.4549
 7547TIP3    H222606   4.250   4.767   3.960  0.0928  0.1159 -0.4857
 7548TIP3   OH222607   3.353   2.143   5.156  0.1330  0.4151 -1.2309
 7548TIP3    H122608   3.347   2.202   5.232  0.5516  0.0832 -0.9376
 7548TIP3    H222609   3.262   2.119   5.138  0.1344 -0.6719  0.0910
 7549TIP3   OH222610   2.202   5.673   4.077  0.1744 -0.3100 -0.2326
 7549TIP3    H122611   2.262   5.609   4.116 -0.9877 -1.5978 -0.4844
 7549TIP3    H222612   2.155   5.709   4.151  0.5756 -0.0095 -0.1212
 7550TIP3   OH222613   5.203   3.964   2.948  0.7384 -0.8528  0.6445
 7550TIP3    H122614   5.161   3.980   2.864  2.9705 -0.3013 -0.4421
 7550TIP3    H222615   5.219   4.051   2.985  1.1458 -1.0263  0.8959
 7551TIP3   OH222616   2.005   6.819   2.402 -0.2444  0.2862  0.5979
 7551TIP3    H122617   2.005   6.730   2.368 -1.9050 -0.0216  1.3133
 7551TIP3    H222618   1.978   6.811   2.493  3.2646  1.1891  1.8779
 7552TIP3   OH222619   3.937   4.101   1.838  0.7869  0.1198  0.4570
 7552TIP3    H122620   3.996   4.161   1.793 -0.5148  0.3036 -1.1122
 7552TIP3    H222621   3.939   4.021   1.786  0.1686 -0.0993  0.7603
 7553TIP3   OH222622   6.556   6.173   1.022 -0.1219  0.0817  0.5953
 7553TIP3    H122623   6.610   6.095   1.037  0.9153  1.0686  2.3235
 7553TIP3    H222624   6.467   6.145   1.045  0.3189 -0.4964  1.6855
 7554TIP3   OH222625   4.885   6.391   2.579 -0.2554 -0.4913  0.3580
 7554TIP3    H122626   4.910   6.306   2.541 -0.2811 -0.5574  0.4882
 7554TIP3    H222627   4.949   6.453   2.543  0.5411 -0.7795  1.2326
 7555TIP3   OH222628   0.664   4.486   3.966  0.1210 -0.1357 -0.1313
 7555TIP3    H122629   0.749   4.452   3.940  0.4479  0.9964 -0.5795
 7555TIP3    H222630   0.634   4.538   3.892  0.0916  1.3664  0.8802
 7556TIP3   OH222631   1.942   5.680   1.142 -0.7120  0.1173 -0.0226
 7556TIP3    H122632   1.968   5.772   1.136 -1.0064  0.2869  1.0803
 7556TIP3    H222633   1.986   5.638   1.068  0.0848  0.9878 -0.0656
 7557TIP3   OH222634   0.212   2.432   3.908 -0.3738  0.4352 -0.1591
 7557TIP3    H122635   0.142   2.368   3.898 -0.6830  0.7192  0.1536
 7557TIP3    H222636   0.168   2.513   3.933  0.1258  0.4042  0.8924
 7558TIP3   OH222637   4.457   3.213   4.108  0.3071 -0.8911 -0.0295
 7558TIP3    H122638   4.381   3.157   4.090  1.0331 -1.8488 -0.2548
 7558TIP3    H222639   4.526   3.151   4.133  1.5462 -0.2190 -1.6557
 7559TIP3   OH222640   2.810   2.856   2.247 -0.3129 -0.0865 -0.1530
 7559TIP3    H122641   2.792   2.949   2.239  0.4791  0.1247  0.3872
 7559TIP3    H222642   2.884   2.851   2.308  1.2067 -0.9035 -1.9719
 7560TIP3   OH222643   0.640   5.039   0.525 -0.2516  0.3061  0.0722
 7560TIP3    H122644   0.588   4.964   0.496  0.5346 -0.1666 -0.1420
 7560TIP3    H222645   0.641   5.033   0.620  2.5891 -1.9484  0.0335
 7561TIP3   OH222646   6.292   3.622   4.362  0.3222  0.6706  0.0183
 7561TIP3    H122647   6.385   3.621   4.386  1.0391  3.4117 -2.1270
 7561TIP3    H222648   6.290   3.667   4.277 -2.9835  0.6334 -0.0381
 7562TIP3   OH222649   6.855   3.607   2.465  0.0745 -0.0133 -0.3496
 7562TIP3    H122650   6.776   3.660   2.459  1.1679  1.5748 -2.1943
 7562TIP3    H222651   6.851   3.549   2.389  0.1415 -0.7710  0.2119
 7563TIP3   OH222652   0.926   2.865   1.966 -0.4623  0.4546 -0.3953
 7563TIP3    H122653   0.838   2.888   1.934 -1.2075  0.0706  1.2284
 7563TIP3    H222654   0.947   2.935   2.028  0.1551  0.2546 -0.3743
 7564TIP3   OH222655   0.667   2.765   3.667 -0.5621  0.5189 -0.1978
 7564TIP3    H122656   0.615   2.816   3.605  2.1741  0.8739 -2.3930
 7564TIP3    H222657   0.669   2.677   3.631  0.7592  0.6379 -0.4559
 7565TIP3   OH222658   3.588   3.323   4.822  0.2161  0.3701 -0.1062
 7565TIP3    H122659   3.566   3.408   4.782 -1.1271  0.9833  1.7713
 7565TIP3    H222660   3.536   3.260   4.772  0.8723  0.7007 -1.2327
 7566TIP3   OH222661   5.486   1.246   5.193  0.5790 -0.4393  0.2389
 7566TIP3    H122662   5.419   1.314   5.187  1.2187  0.3316  1.3894
 7566TIP3    H222663   5.542   1.260   5.116  1.4453  1.2034  1.1043
 7567TIP3   OH222664   0.106   1.997   2.743  0.0998  0.4479  0.5331
 7567TIP3    H122665   0.028   1.942   2.742 -0.5549  1.3127  1.5761
 7567TIP3    H222666   0.167   1.953   2.684 -0.1943 -1.6587  1.6940
 7568TIP3   OH222667   1.306   5.425   3.236  0.4499  0.1292  0.3581
 7568TIP3    H122668   1.389   5.429   3.283 -0.1044 -1.0186  1.5035
 7568TIP3    H222669   1.256   5.499   3.270  1.0758  0.9945 -0.5431
 7569TIP3   OH222670   2.720   0.236   3.305 -0.1126  0.1640  0.0163
 7569TIP3    H122671   2.711   0.213   3.212  3.2610 -0.3813 -0.2851
 7569TIP3    H222672   2.767   0.319   3.305 -0.2085  0.2359  1.2487
 7570TIP3   OH222673   6.206   6.185   0.759 -0.0990 -0.0090  0.3986
 7570TIP3    H122674   6.211   6.103   0.808  0.6346 -1.5301 -2.0317
 7570TIP3    H222675   6.115   6.212   0.767 -0.4625 -1.3009  0.9167
 7571TIP3   OH222676   4.452   4.075   4.829 -0.1799 -0.3707 -0.4958
 7571TIP3    H122677   4.539   4.046   4.804 -0.4274 -0.3644 -1.4161
 7571TIP3    H222678   4.450   4.168   4.807  0.4853  0.3341  2.0861
 7572TIP3   OH222679   5.750   2.052   5.377 -0.3978  0.4692 -0.1077
 7572TIP3    H122680   5.816   2.115   5.350 -0.5160  0.6072 -0.0718
 7572TIP3    H222681   5.777   1.970   5.336 -0.2239  0.5337 -0.1218
 7573TIP3   OH222682   7.116   0.888   4.530  0.1403  0.6653 -0.1255
 7573TIP3    H122683   7.097   0.802   4.492 -2.6856 -0.2688  2.9204
 7573TIP3    H222684   7.193   0.873   4.586  1.1655  0.8087 -1.4427
 7574TIP3   OH222685   2.113   6.366   3.125  0.6020  0.2525 -0.2914
 7574TIP3    H122686   2.173   6.434   3.096  1.5818 -0.5007 -0.0566
 7574TIP3    H222687   2.144   6.341   3.211  0.0654 -0.2909 -0.2467
 7575TIP3   OH222688   1.350   1.545   2.216  0.0450 -0.7031  0.0352
 7575TIP3    H122689   1.407   1.577   2.147  2.3148  1.7209  2.7616
 7575TIP3    H222690   1.395   1.467   2.250  0.1865 -0.5429  0.2248
 7576TIP3   OH222691   1.989   5.947   3.910  0.4911  0.3945  0.2626
 7576TIP3    H122692   1.943   6.018   3.954 -0.5321  0.6487 -1.1534
 7576TIP3    H222693   1.934   5.870   3.926 -1.2935  0.9462 -2.5689
 7577TIP3   OH222694   1.973   2.874   1.552 -0.1513 -0.4418  0.1482
 7577TIP3    H122695   1.943   2.791   1.589 -0.6017 -0.2339  0.2505
 7577TIP3    H222696   2.041   2.849   1.489  1.3490 -0.7547  1.7893
 7578TIP3   OH222697   5.925   2.791   4.942 -0.0581  0.2624 -0.4626
 7578TIP3    H122698   5.859   2.831   4.999  0.6725 -0.1877  0.7506
 7578TIP3    H222699   6.008   2.808   4.986  0.4731 -0.6714 -1.0554
 7579TIP3   OH222700   5.828   6.672   5.485 -0.1276 -0.9804  0.0178
 7579TIP3    H122701   5.804   6.591   5.529  0.6315 -1.4886 -0.4616
 7579TIP3    H222702   5.747   6.703   5.445 -0.5788 -1.1054  0.8198
 7580TIP3   OH222703   6.401   4.600   0.537 -0.3224  0.1124 -0.5493
 7580TIP3    H122704   6.456   4.561   0.606 -0.1834 -0.7459 -1.1250
 7580TIP3    H222705   6.334   4.648   0.585 -1.2180 -1.8222  0.2796
 7581TIP3   OH222706   1.752   3.925   0.870 -0.6691 -0.4000  0.0819
 7581TIP3    H122707   1.764   3.861   0.941  0.1100  0.2461  0.5476
 7581TIP3    H222708   1.838   3.931   0.829 -0.6145  0.7191  0.3543
 7582TIP3   OH222709   3.612   3.409   0.626 -0.4436 -0.5301 -0.0947
 7582TIP3    H122710   3.553   3.336   0.608  2.0423 -2.2157 -2.0664
 7582TIP3    H222711   3.695   3.367   0.650  0.6247  1.7007  0.3767
 7583TIP3   OH222712   6.699   4.058   3.458  0.8632  0.4100 -0.0234
 7583TIP3    H122713   6.761   4.131   3.451  2.9856 -1.0892  1.7647
 7583TIP3    H222714   6.754   3.981   3.466 -1.3156 -1.4155 -1.5281
 7584TIP3   OH222715   0.171   1.035   0.363  0.6114 -0.1649 -0.3108
 7584TIP3    H122716   0.202   1.022   0.453  0.3276  1.9965  0.1578
 7584TIP3    H222717   0.251   1.037   0.310  0.8924  0.0205  0.1157
 7585TIP3   OH222718   0.422   2.377   4.734 -0.8230 -0.0239  0.1908
 7585TIP3    H122719   0.517   2.372   4.724 -0.8795 -1.8621  0.2919
 7585TIP3    H222720   0.407   2.460   4.778  0.6261  0.9047 -0.9602
 7586TIP3   OH222721   2.151   0.800   4.389 -0.3629  0.3733 -0.1967
 7586TIP3    H122722   2.154   0.867   4.458 -0.0938 -1.3257  1.5178
 7586TIP3    H222723   2.119   0.721   4.434 -0.3659 -0.7503 -2.0797
 7587TIP3   OH222724   3.003   3.068   5.521  0.0994  0.0021  0.2020
 7587TIP3    H122725   2.958   2.984   5.528  0.1702 -0.0328  0.2321
 7587TIP3    H222726   3.075   3.062   5.583  0.3898 -0.0931 -0.1417
 7588TIP3   OH222727   4.735   4.889   1.203  0.1163 -0.0474 -0.4420
 7588TIP3    H122728   4.714   4.870   1.294 -1.9893 -0.1330 -0.8916
 7588TIP3    H222729   4.776   4.809   1.171 -1.6046 -1.0533 -0.2510
 7589TIP3   OH222730   0.653   4.068   0.649  0.2166  0.2159 -0.0603
 7589TIP3    H122731   0.576   4.112   0.612 -0.0576  0.0963  0.3562
 7589TIP3    H222732   0.623   4.036   0.734  0.6150 -0.1849 -0.0695
 7590TIP3   OH222733   6.539   1.950   3.240 -0.2716 -0.6976  0.0938
 7590TIP3    H122734   6.464   1.982   3.291 -1.6451 -0.7664 -1.7540
 7590TIP3    H222735   6.581   2.029   3.207 -1.1398 -0.6589 -1.0000
 7591TIP3   OH222736   5.334   4.794   1.269 -0.5597 -0.4279  0.1932
 7591TIP3    H122737   5.318   4.702   1.249  1.5239 -0.8115  0.0295
 7591TIP3    H222738   5.378   4.829   1.192 -0.0424  0.3173  0.7978
 7592TIP3   OH222739   5.141   2.446   1.386 -0.0361  0.6959  0.1301
 7592TIP3    H122740   5.179   2.388   1.452 -0.4950 -0.7577 -0.8212
 7592TIP3    H222741   5.155   2.534   1.420 -0.1056  0.0078  2.0694
 7593TIP3   OH222742   5.638   2.847   4.242  0.7634  0.3785 -0.5436
 7593TIP3    H122743   5.697   2.856   4.318  0.7471 -2.4133 -0.1122
 7593TIP3    H222744   5.554   2.880   4.273  0.7087 -0.9054  0.7437
 7594TIP3   OH222745   7.149   3.933   4.004 -0.0156 -0.1753 -0.4903
 7594TIP3    H122746   7.237   3.965   4.020  0.1915 -0.5193 -0.9142
 7594TIP3    H222747   7.148   3.845   4.042 -0.0560 -0.3183 -0.8141
 7595TIP3   OH222748   1.656   5.281   5.494  0.5042  0.0106  0.4573
 7595TIP3    H122749   1.746   5.286   5.527  0.7719 -1.0440 -0.0932
 7595TIP3    H222750   1.650   5.195   5.452 -0.2684  0.7044 -0.9382
 7596TIP3   OH222751   6.025   6.094   3.837  0.0087  0.3688  0.4153
 7596TIP3    H122752   5.997   6.162   3.776  0.9124  0.8566  0.5201
 7596TIP3    H222753   5.983   6.014   3.804 -0.8178  0.9124  0.1140
 7597TIP3   OH222754   2.689   6.662   5.079 -0.0447  0.0284  0.6856
 7597TIP3    H122755   2.667   6.752   5.056  2.6655  0.3205 -1.1706
 7597TIP3    H222756   2.607   6.614   5.069 -0.5247  1.3560 -3.7046
 7598TIP3   OH222757   7.193   6.185   3.337 -0.0976 -0.4011 -0.1025
 7598TIP3    H122758   7.126   6.167   3.403 -0.6074  0.4218 -0.3857
 7598TIP3    H222759   7.187   6.112   3.276  0.8129 -1.5059  1.0934
 7599TIP3   OH222760   6.642   1.345   1.053 -0.0140  0.1771 -0.1364
 7599TIP3    H122761   6.598   1.430   1.041 -0.4110  0.0108  0.0922
 7599TIP3    H222762   6.694   1.333   0.975  0.9901  1.1915  0.3551
 7600TIP3   OH222763   1.183   1.733   0.177 -0.0763 -0.2162  0.2496
 7600TIP3    H122764   1.206   1.771   0.092  0.1660  1.7045  1.1209
 7600TIP3    H222765   1.267   1.712   0.218 -0.1855 -0.9655  0.0963
 7601TIP3   OH222766   1.940   0.836   2.775 -0.3595 -0.3364 -0.1791
 7601TIP3    H122767   1.981   0.802   2.695  2.7811  3.2195 -0.3330
 7601TIP3    H222768   1.983   0.788   2.846  3.4299  2.2554 -0.4291
 7602TIP3   OH222769   1.541   2.589   0.321  0.0869 -0.4067  0.1341
 7602TIP3    H122770   1.610   2.643   0.359 -1.2767  0.3758  1.5903
 7602TIP3    H222771   1.550   2.504   0.365  2.1399 -1.4686 -2.0556
 7603TIP3   OH222772   4.218   6.536   3.243 -0.3370 -0.1546  0.0203
 7603TIP3    H122773   4.212   6.500   3.331 -0.4358  0.3902  0.2407
 7603TIP3    H222774   4.189   6.627   3.252 -0.3973 -0.1087 -0.5816
 7604TIP3   OH222775   1.830   0.123   3.845  0.0228 -0.0116 -0.5602
 7604TIP3    H122776   1.753   0.076   3.813 -0.0090 -0.5831  0.2982
 7604TIP3    H222777   1.846   0.191   3.780 -1.4499  0.3725 -0.5553
 7605TIP3   OH222778   2.982   5.285   3.325 -0.7126  0.3383  0.0522
 7605TIP3    H122779   2.912   5.300   3.261  0.3550  0.3875 -1.1398
 7605TIP3    H222780   3.063   5.287   3.274  0.2011  0.5599  1.4364
 7606TIP3   OH222781   3.974   2.365   1.108  0.6616 -0.6892  0.0674
 7606TIP3    H122782   3.995   2.454   1.079  0.4906 -0.7613 -0.2792
 7606TIP3    H222783   3.945   2.376   1.199 -1.5255 -0.0957 -0.6373
 7607TIP3   OH222784   1.387   0.116   1.075  0.2576 -0.1318 -0.1636
 7607TIP3    H122785   1.385   0.193   1.019 -1.4025  0.2987  0.4246
 7607TIP3    H222786   1.407   0.044   1.016  1.0049  0.6224 -0.8671
 7608TIP3   OH222787   4.596   6.064   3.461 -0.1255 -0.3003 -0.1544
 7608TIP3    H122788   4.555   6.001   3.401  1.2208  0.0135 -1.4669
 7608TIP3    H222789   4.562   6.149   3.435  0.1072 -0.2074 -0.1579
 7609TIP3   OH222790   4.175   5.536   0.649 -0.2956  0.3220 -0.5797
 7609TIP3    H122791   4.159   5.448   0.683  0.3289  0.2296 -0.5168
 7609TIP3    H222792   4.268   5.552   0.667 -0.4759  1.1102 -0.3217
 7610TIP3   OH222793   2.900   1.481   3.535  0.1618 -0.1161 -0.2835
 7610TIP3    H122794   2.939   1.550   3.483  0.0308 -0.0272 -0.2623
 7610TIP3    H222795   2.971   1.450   3.592  0.6752 -1.1036 -1.4175
 7611TIP3   OH222796   5.333   0.566   4.996  0.2728  0.4544 -0.0906
 7611TIP3    H122797   5.404   0.630   4.987 -1.5042  3.0144  2.3989
 7611TIP3    H222798   5.272   0.606   5.059 -1.8276 -3.0026  0.3345
 7612TIP3   OH222799   1.351   4.744   0.955  0.2836 -0.2613  0.4644
 7612TIP3    H122800   1.410   4.812   0.989  0.3259  0.6264 -1.2770
 7612TIP3    H222801   1.349   4.678   1.024  1.1942  0.9453  1.7089
 7613TIP3   OH222802   2.360   1.529   1.109  0.6317 -0.0491 -0.0801
 7613TIP3    H122803   2.415   1.605   1.129 -2.2837  1.7927  1.9157
 7613TIP3    H222804   2.367   1.473   1.187 -2.0087  1.4814  1.4423
 7614TIP3   OH222805   6.196   0.009   0.023 -0.2601  0.3389 -0.3402
 7614TIP3    H122806   6.154   0.074  -0.034 -1.0879  0.3953  0.3029
 7614TIP3    H222807   6.258   0.059   0.075  1.6310  0.0605 -2.1941
 7615TIP3   OH222808   5.342   4.329   2.860 -0.3795 -0.1686  0.0672
 7615TIP3    H122809   5.384   4.254   2.819  0.5277 -0.4875  1.5244
 7615TIP3    H222810   5.270   4.352   2.801 -1.1935 -2.6815 -0.0288
 7616TIP3   OH222811   3.718   0.909   1.642 -0.0676 -0.3803  0.3260
 7616TIP3    H122812   3.656   0.891   1.713  1.4056 -0.5164  1.6371
 7616TIP3    H222813   3.666   0.952   1.574 -1.7406 -1.2201  1.0424
 7617TIP3   OH222814   6.367   4.993   5.322 -0.5204 -0.3591 -0.4671
 7617TIP3    H122815   6.358   4.951   5.408  0.8348  1.5373  0.6644
 7617TIP3    H222816   6.438   4.944   5.279 -0.0602 -0.2704  0.1777
 7618TIP3   OH222817   0.801   4.523   1.629  0.3223  0.3000  0.6463
 7618TIP3    H122818   0.721   4.498   1.674 -0.6617 -0.2902 -1.2942
 7618TIP3    H222819   0.773   4.586   1.563  1.5178  0.3677  0.1654
 7619TIP3   OH222820   0.438   1.314   5.684  0.2368 -0.1302  0.1951
 7619TIP3    H122821   0.416   1.369   5.609  2.1717 -0.4146 -0.6291
 7619TIP3    H222822   0.489   1.372   5.742  0.2756 -0.3997  0.4344
 7620TIP3   OH222823   5.454   5.696   5.385 -0.2770 -0.0427 -0.0222
 7620TIP3    H122824   5.504   5.659   5.458 -1.9362 -0.9171  0.7366
 7620TIP3    H222825   5.432   5.621   5.330 -1.6082  0.1283  0.2270
 7621TIP3   OH222826   1.610   0.483   3.928  0.1783  0.3001 -0.3223
 7621TIP3    H122827   1.573   0.517   3.847 -1.5040 -2.4577 -0.8564
 7621TIP3    H222828   1.657   0.557   3.967 -0.9810  2.3578 -2.6032
 7622TIP3   OH222829   0.306   5.875   3.964  0.0538 -0.3539  0.1026
 7622TIP3    H122830   0.247   5.904   3.894  1.4935  0.4041 -0.8257
 7622TIP3    H222831   0.384   5.845   3.919  0.8088 -0.3684  1.3761
 7623TIP3   OH222832   4.280   6.072   2.448 -0.2767  0.0314  0.4118
 7623TIP3    H122833   4.290   6.051   2.355  1.0528 -1.1026  0.7753
 7623TIP3    H222834   4.282   6.167   2.451  0.1104  0.0762 -0.6831
 7624TIP3   OH222835   6.309   5.462   2.213  0.6976  0.0452  0.6136
 7624TIP3    H122836   6.300   5.507   2.297 -0.4607  1.5572 -0.2673
 7624TIP3    H222837   6.371   5.515   2.164 -2.1145  1.9717 -1.1538
 7625TIP3   OH222838   1.869   2.144   1.829 -0.4423  0.0701  0.4278
 7625TIP3    H122839   1.816   2.116   1.755 -1.4805  0.6190  0.9380
 7625TIP3    H222840   1.935   2.075   1.839 -2.3635 -1.7946  1.0899
 7626TIP3   OH222841   2.046   2.057   4.812  0.3422  0.4842 -0.0116
 7626TIP3    H122842   2.089   2.133   4.853  1.2547 -1.1435  2.2724
 7626TIP3    H222843   2.026   1.999   4.886 -0.8572 -1.2474 -1.6211
 7627TIP3   OH222844   1.491   1.805   4.999  0.2338  0.2863 -0.7475
 7627TIP3    H122845   1.545   1.883   4.989 -0.7119  1.0174 -0.3035
 7627TIP3    H222846   1.403   1.839   5.017 -0.7733 -0.7913 -3.1024
 7628TIP3   OH222847   1.132   2.847   0.135  0.9454  0.3573  0.5574
 7628TIP3    H122848   1.189   2.915   0.099 -0.2478  0.5574 -1.0746
 7628TIP3    H222849   1.084   2.891   0.206  2.6811  0.2044  1.9021
 7629TIP3   OH222850   1.943   3.635   1.697 -0.2214 -0.2906 -0.2535
 7629TIP3    H122851   1.884   3.710   1.699  0.3725  0.1745  0.4946
 7629TIP3    H222852   1.895   3.565   1.742 -0.1482  0.1384  0.5189
 7630TIP3   OH222853   0.913   1.110   4.456 -0.3705 -0.0879 -0.0430
 7630TIP3    H122854   0.867   1.092   4.374  1.2263  0.0502 -1.0140
 7630TIP3    H222855   0.991   1.056   4.452 -0.8034 -0.9488  1.9512
 7631TIP3   OH222856   3.799   4.326   2.756  0.2032  0.2519  0.3251
 7631TIP3    H122857   3.748   4.390   2.707 -1.1560 -1.3374 -0.4382
 7631TIP3    H222858   3.743   4.301   2.830 -0.1055 -1.3954 -0.4277
 7632TIP3   OH222859   0.415   0.957   4.480  0.4821  0.3620  0.1534
 7632TIP3    H122860   0.366   0.989   4.555 -0.4602 -0.1811 -0.2146
 7632TIP3    H222861   0.506   0.954   4.510  0.5127  2.5850  0.4525
 7633TIP3   OH222862   6.540   5.979   4.151  0.0231 -0.0654 -0.1801
 7633TIP3    H122863   6.617   5.943   4.107 -0.0358  0.4435 -0.7160
 7633TIP3    H222864   6.546   6.073   4.137  0.1928  0.1597  1.2437
 7634TIP3   OH222865   0.426   4.524   0.548  0.0385 -0.6433 -0.1102
 7634TIP3    H122866   0.353   4.469   0.522 -2.8439  2.1858  1.3032
 7634TIP3    H222867   0.430   4.594   0.482 -0.5398  0.8189  1.3191
 7635TIP3   OH222868   0.602   0.516   5.555 -0.0298 -0.6331  0.1895
 7635TIP3    H122869   0.685   0.559   5.533  0.2260 -0.9425  0.5379
 7635TIP3    H222870   0.556   0.580   5.610 -1.0962  0.5560 -1.9287
 7636TIP3   OH222871   7.128   2.536   0.917 -0.0451  0.3681  0.1344
 7636TIP3    H122872   7.073   2.554   0.841 -0.1472 -0.1154  0.0918
 7636TIP3    H222873   7.134   2.620   0.962  0.6551  0.8601 -0.8229
 7637TIP3   OH222874   6.048   6.410   3.372  0.3843 -0.0063 -0.5230
 7637TIP3    H122875   6.078   6.501   3.364  0.4863  0.0231  0.1394
 7637TIP3    H222876   6.007   6.391   3.287  1.7919  0.1305 -1.2719
 7638TIP3   OH222877   3.126   1.592   5.242  0.4892 -0.1008  0.1099
 7638TIP3    H122878   3.071   1.528   5.196  0.0524  0.1197  0.3131
 7638TIP3    H222879   3.088   1.677   5.218  0.5373  0.0358  0.5152
 7639TIP3   OH222880   1.835   2.265   5.364 -0.1882 -0.3930 -0.5292
 7639TIP3    H122881   1.843   2.252   5.270  1.4774 -0.9564 -0.3387
 7639TIP3    H222882   1.834   2.360   5.376 -1.4908 -0.2998 -1.1597
 7640TIP3   OH222883   7.149   1.701   5.450  0.1650 -0.4686  0.2469
 7640TIP3    H122884   7.133   1.611   5.421  0.9839 -0.2251 -1.0784
 7640TIP3    H222885   7.238   1.720   5.421 -0.1061  0.8726  0.2190
 7641TIP3   OH222886   5.481   4.792   1.046  0.3438 -0.4162  0.2652
 7641TIP3    H122887   5.529   4.826   0.971 -1.7974  0.0873 -0.9860
 7641TIP3    H222888   5.534   4.719   1.079  1.5973 -0.3067 -1.4100
 7642TIP3   OH222889   2.578   3.069   0.099 -0.1820 -0.0237  0.3401
 7642TIP3    H122890   2.615   2.981   0.088 -1.3685 -0.4375 -0.6179
 7642TIP3    H222891   2.494   3.065   0.052 -2.7307  0.0705  4.4385
 7643TIP3   OH222892   4.913   5.948   2.641  0.3654  0.0736  0.1597
 7643TIP3    H122893   4.823   5.944   2.611  0.6026 -0.0850 -0.5673
 7643TIP3    H222894   4.953   5.867   2.607  0.3246 -0.7933  2.0607
 7644TIP3   OH222895   0.434   3.760   3.851  0.2818 -0.0597 -0.0701
 7644TIP3    H122896   0.502   3.711   3.898  0.0535 -0.2927  0.0151
 7644TIP3    H222897   0.360   3.764   3.911  0.3124  0.4290 -0.0582
 7645TIP3   OH222898   5.297   6.242   1.277 -0.8603  0.1885  0.2470
 7645TIP3    H122899   5.249   6.166   1.310 -0.7226 -0.3082 -0.6562
 7645TIP3    H222900   5.329   6.214   1.191  0.5365  0.7134  0.5720
 7646TIP3   OH222901   1.415   5.954   2.262 -0.5295  0.2852  0.1236
 7646TIP3    H122902   1.356   5.969   2.188 -0.9896  0.9551  0.6218
 7646TIP3    H222903   1.406   5.860   2.281 -2.2634  0.5648  0.8795
 7647TIP3   OH222904   0.906   5.421   0.254 -0.2355  0.3378  0.1967
 7647TIP3    H122905   0.886   5.508   0.219 -0.7661  0.8274  1.6511
 7647TIP3    H222906   0.932   5.370   0.177  1.0814  2.0390 -0.5646
 7648TIP3   OH222907   2.602   4.778   0.969  0.2650  0.1346  0.2602
 7648TIP3    H122908   2.608   4.723   0.890 -0.6182 -1.7228  1.4080
 7648TIP3    H222909   2.690   4.776   1.006  0.2756 -0.4244  0.2160
 7649TIP3   OH222910   0.749   6.323   1.402 -0.4128 -0.0577  0.2569
 7649TIP3    H122911   0.840   6.298   1.386 -0.8317 -1.6753  0.1969
 7649TIP3    H222912   0.711   6.334   1.315  0.0587  2.0769  0.2749
 7650TIP3   OH222913   6.522   0.544   3.923 -0.1365  0.3842  0.3886
 7650TIP3    H122914   6.575   0.571   3.998 -2.1829  2.5133  1.1888
 7650TIP3    H222915   6.522   0.620   3.865 -2.1096  0.4156  0.3495
 7651TIP3   OH222916   5.242   6.676   5.161  0.3607  0.0170  0.1466
 7651TIP3    H122917   5.181   6.689   5.234 -0.4655  0.3202 -0.5808
 7651TIP3    H222918   5.244   6.760   5.117  0.0623 -0.4431 -0.7703
 7652TIP3   OH222919   3.501   1.744   4.776 -0.4652 -0.5046 -0.2947
 7652TIP3    H122920   3.415   1.781   4.795  0.2340  0.8121  0.4272
 7652TIP3    H222921   3.506   1.665   4.830 -0.6412  0.2378  0.8298
 7653TIP3   OH222922   1.859   5.167   5.632  0.1981 -0.6599  0.2547
 7653TIP3    H122923   1.907   5.158   5.714  0.0798 -1.4711  0.2365
 7653TIP3    H222924   1.926   5.155   5.564  0.5039  1.0638  0.2079
 7654TIP3   OH222925   4.965   6.630   4.406 -0.3339 -0.3716  0.3085
 7654TIP3    H122926   4.926   6.689   4.469 -0.8052 -0.0170 -0.3018
 7654TIP3    H222927   5.059   6.640   4.417 -0.3897  1.2490 -0.4641
 7655TIP3   OH222928   2.991   3.579   1.271 -0.0868  0.0525  0.0629
 7655TIP3    H122929   2.978   3.484   1.264 -2.7766  0.3047  0.7425
 7655TIP3    H222930   3.011   3.593   1.364  2.1775  0.0274 -0.3677
 7656TIP3   OH222931   6.786   4.614   0.394  0.4764 -0.3261 -0.5926
 7656TIP3    H122932   6.780   4.564   0.313 -0.3313 -0.8346 -0.2343
 7656TIP3    H222933   6.714   4.677   0.387 -0.4941 -1.2952  0.3314
 7657TIP3   OH222934   0.996   5.455   5.046  0.1670  0.5995  0.0294
 7657TIP3    H122935   1.027   5.365   5.054 -0.9232  0.1886 -0.2162
 7657TIP3    H222936   0.961   5.476   5.133 -1.4636  0.0469 -0.4666
 7658TIP3   OH222937   0.068   3.114   4.536 -0.2262  0.2409 -0.0647
 7658TIP3    H122938   0.048   3.102   4.629  0.7101 -0.0237  0.1119
 7658TIP3    H222939   0.051   3.028   4.496  1.2312 -0.2042  0.2221
 7659TIP3   OH222940   2.998   6.686   2.578 -0.0154  0.1425  0.3812
 7659TIP3    H122941   3.072   6.746   2.567  0.4271 -0.3227  0.7674
 7659TIP3    H222942   3.001   6.660   2.670 -0.7013  0.1683  0.4138
 7660TIP3   OH222943   2.611   2.949   1.376  0.2804  1.0767 -0.9817
 7660TIP3    H122944   2.674   3.012   1.339  0.4279  2.2419  1.1370
 7660TIP3    H222945   2.535   3.001   1.399  0.1603  0.3925  0.2579
 7661TIP3   OH222946   5.510   4.385   0.665 -0.2381  0.0216  0.1472
 7661TIP3    H122947   5.513   4.417   0.755  0.3689  0.9857 -0.2005
 7661TIP3    H222948   5.426   4.417   0.631  0.6919  2.0493 -0.4446
 7662TIP3   OH222949   0.717   0.941   3.513 -0.0756  0.5323 -0.2613
 7662TIP3    H122950   0.644   0.906   3.563  0.4970 -0.8246 -0.3381
 7662TIP3    H222951   0.697   0.918   3.422 -0.0778  1.1118 -0.4104
 7663TIP3   OH222952   2.944   1.580   1.619  0.0557 -0.1654 -0.7855
 7663TIP3    H122953   2.990   1.593   1.702 -0.4368  0.4621 -0.6051
 7663TIP3    H222954   2.868   1.525   1.642 -1.1612  1.5817 -0.4353
 7664TIP3   OH222955   5.608   2.520   3.792  0.3203 -0.4287  0.0583
 7664TIP3    H122956   5.548   2.501   3.864 -2.5164  0.0498 -1.9635
 7664TIP3    H222957   5.634   2.611   3.806 -0.9561 -0.0404  0.0416
 7665TIP3   OH222958   3.313   5.566   1.907  0.1083  0.1006  0.4004
 7665TIP3    H122959   3.380   5.527   1.851 -0.5055  0.0586 -0.3066
 7665TIP3    H222960   3.321   5.660   1.893 -0.4344  0.0599 -0.2128
 7666TIP3   OH222961   0.368   2.335   1.634 -0.6714  0.6004 -0.2733
 7666TIP3    H122962   0.287   2.367   1.674 -0.6871 -0.1061  0.2806
 7666TIP3    H222963   0.382   2.249   1.673  1.4731  1.5337  1.2464
 7667TIP3   OH222964   4.277   5.233   2.365 -0.3318 -0.9222 -0.1827
 7667TIP3    H122965   4.243   5.318   2.393 -0.5659 -1.3639  0.9138
 7667TIP3    H222966   4.263   5.176   2.441  2.1959 -1.3076  0.0557
 7668TIP3   OH222967   6.945   3.319   0.770 -0.0721 -0.9053  0.2390
 7668TIP3    H122968   6.916   3.249   0.711  0.1314  0.5473 -1.6730
 7668TIP3    H222969   6.874   3.327   0.834 -1.3919 -1.0087 -1.1615
 7669TIP3   OH222970   5.878   5.962   3.373  0.1952 -0.4200 -0.1372
 7669TIP3    H122971   5.787   5.987   3.357  0.5418  1.4606  0.5677
 7669TIP3    H222972   5.890   5.881   3.324 -1.5261 -0.0862 -1.1860
 7670TIP3   OH222973   2.751   3.682   3.005  0.3260  0.3373  0.0076
 7670TIP3    H122974   2.746   3.712   3.096  1.7885  0.3286  0.1206
 7670TIP3    H222975   2.805   3.748   2.961  0.8018 -0.3742 -0.5105
 7671TIP3   OH222976   0.952   5.892   5.781  0.3606  0.2912 -0.1033
 7671TIP3    H122977   0.967   5.967   5.725 -0.8140  0.1572 -0.6316
 7671TIP3    H222978   1.024   5.832   5.761  0.3386  0.5392 -0.9613
 7672TIP3   OH222979   0.526   4.181   5.672  0.0243  0.2092  0.1995
 7672TIP3    H122980   0.518   4.120   5.746  0.4563 -0.6826 -0.4793
 7672TIP3    H222981   0.449   4.165   5.619  0.1542  0.2382  0.0020
 7673TIP3   OH222982   6.925   3.725   0.700  0.2304  0.1760  0.6407
 7673TIP3    H122983   6.939   3.665   0.774 -0.6212  0.9726  1.4797
 7673TIP3    H222984   6.972   3.684   0.628  1.1343 -0.6086  1.6234
 7674TIP3   OH222985   2.514   6.215   3.593  0.5810 -0.4615  0.5133
 7674TIP3    H122986   2.451   6.145   3.572 -1.0258  0.7766  1.0241
 7674TIP3    H222987   2.554   6.187   3.675  1.3936 -1.6912 -0.2584
 7675TIP3   OH222988   6.353   0.465   3.059 -0.2051  0.1255  0.0776
 7675TIP3    H122989   6.421   0.424   3.112 -0.0309  1.3633  0.8473
 7675TIP3    H222990   6.399   0.532   3.008 -0.7764  0.6795  0.2839
 7676TIP3   OH222991   2.976   2.383   4.907  0.2078 -0.5540 -0.5202
 7676TIP3    H122992   3.045   2.392   4.842 -1.6492  0.8486 -2.4257
 7676TIP3    H222993   3.020   2.394   4.991  2.1656  1.2135 -1.7017
 7677TIP3   OH222994   0.895   6.087   5.511 -0.0405 -0.4747 -0.4385
 7677TIP3    H122995   0.965   6.121   5.567 -0.9624 -0.6144  0.8641
 7677TIP3    H222996   0.940   6.050   5.435  1.2513 -0.0853  0.1072
 7678TIP3   OH222997   6.839   4.688   3.643  1.0790 -0.4313  0.1212
 7678TIP3    H122998   6.912   4.695   3.581 -0.5343 -0.4309 -1.8945
 7678TIP3    H222999   6.849   4.764   3.700  0.7821  1.6032 -2.3133
 7679TIP3   OH223000   4.253   2.811   5.521  0.1732 -0.4568  0.3207
 7679TIP3    H123001   4.305   2.733   5.506  0.0969 -0.6325  0.9567
 7679TIP3    H223002   4.298   2.857   5.592 -1.0278 -1.0815  1.5421
 7680TIP3   OH223003   1.023   3.059   3.397  0.2059 -0.3000  0.1756
 7680TIP3    H123004   0.941   3.022   3.366  0.4910  1.3588 -2.9680
 7680TIP3    H223005   1.008   3.154   3.397  2.4962  0.1979 -2.1817
 7681TIP3   OH223006   1.766   0.890   5.899  0.4778  0.2242  0.1685
 7681TIP3    H123007   1.699   0.952   5.869  0.9252  0.0939 -1.1926
 7681TIP3    H223008   1.760   0.817   5.837 -0.8002 -1.6707  2.4038
 7682TIP3   OH223009   3.101   1.722   2.477 -0.3825  0.1832  0.5702
 7682TIP3    H123010   3.166   1.670   2.524 -0.1659 -0.9874 -0.9348
 7682TIP3    H223011   3.017   1.692   2.512 -0.1682  1.3260  2.1499
 7683TIP3   OH223012   0.793   4.303   0.644 -0.3939  0.0729  0.1180
 7683TIP3    H123013   0.766   4.332   0.557 -0.7109 -0.6177 -0.0209
 7683TIP3    H223014   0.768   4.210   0.648 -0.7947  0.2024  1.1106
 7684TIP3   OH223015   5.370   2.174   1.314  0.1776 -0.0036  0.1605
 7684TIP3    H123016   5.427   2.247   1.291  1.6444 -0.8630  0.8892
 7684TIP3    H223017   5.345   2.191   1.405  0.0907 -0.1353  0.1621
 7685TIP3   OH223018   3.357   3.747   3.003  0.0859  0.7861  0.3450
 7685TIP3    H123019   3.269   3.757   2.968 -0.2637 -1.9689  0.1904
 7685TIP3    H223020   3.407   3.818   2.964 -1.5114  0.9445 -1.5441
 7686TIP3   OH223021   1.701   3.764   4.390  0.4769  0.1471 -0.1094
 7686TIP3    H123022   1.772   3.725   4.340  0.6833  0.7679 -0.3134
 7686TIP3    H223023   1.719   3.858   4.387  0.9615  0.1446  1.8408
 7687TIP3   OH223024   7.080   3.489   5.865 -0.4555 -0.6270 -0.3875
 7687TIP3    H123025   7.133   3.429   5.917  1.0218  0.5981 -0.4266
 7687TIP3    H223026   7.112   3.479   5.776  0.7573  1.1478 -0.1987
 7688TIP3   OH223027   3.502   1.795   2.986  0.4380  0.1942 -0.1254
 7688TIP3    H123028   3.415   1.820   2.955  0.0518 -0.8348  0.0585
 7688TIP3    H223029   3.485   1.748   3.068  0.8667 -2.5279 -1.4889
 7689TIP3   OH223030   5.306   0.653   2.881  0.4630  0.5461  0.2094
 7689TIP3    H123031   5.360   0.643   2.803  1.1487 -0.9017  0.8300
 7689TIP3    H223032   5.327   0.740   2.914  0.9733  0.7440 -0.6166
 7690TIP3   OH223033   5.378   2.767   3.933  0.4811 -0.4794 -0.2366
 7690TIP3    H123034   5.345   2.684   3.898 -0.9700 -0.9393  2.0164
 7690TIP3    H223035   5.461   2.743   3.975 -1.4159 -1.6460  3.2621
 7691TIP3   OH223036   0.309   6.246   1.410  0.2617  0.0614  0.2246
 7691TIP3    H123037   0.298   6.328   1.363  0.1031  0.4932  0.9942
 7691TIP3    H223038   0.224   6.232   1.453  0.1819 -0.6698 -0.1558
 7692TIP3   OH223039   1.875   4.258   2.611 -0.4490 -0.1968  0.0294
 7692TIP3    H123040   1.884   4.216   2.696  1.2903  0.9906  0.4819
 7692TIP3    H223041   1.828   4.340   2.629  2.3942  1.4908  0.4547
 7693TIP3   OH223042   4.306   6.150   4.007  0.0628 -0.8721 -0.4361
 7693TIP3    H123043   4.399   6.147   4.032  0.3525 -2.2570 -1.5426
 7693TIP3    H223044   4.304   6.210   3.932 -0.0600 -0.3417 -0.0180
 7694TIP3   OH223045   0.238   1.089   5.329 -0.3121  0.1668  0.0802
 7694TIP3    H123046   0.195   1.095   5.244  1.3423  0.3472 -0.7648
 7694TIP3    H223047   0.184   1.144   5.387 -0.1674  1.9236 -1.3906
 7695TIP3   OH223048   0.081   5.499   4.042 -0.1439 -0.6760  0.0922
 7695TIP3    H123049   0.018   5.503   4.113  0.1769 -0.5106  0.3701
 7695TIP3    H223050   0.127   5.583   4.045 -0.0655 -0.7052 -0.2481
 7696TIP3   OH223051   3.451   3.070   4.760 -0.7925 -0.1970  0.0082
 7696TIP3    H123052   3.357   3.070   4.743 -0.7907 -1.9907 -0.2196
 7696TIP3    H223053   3.459   3.050   4.854 -0.6407  0.6635  0.1849
 7697TIP3   OH223054   6.019   5.660   0.365  0.0549  0.0545 -0.2846
 7697TIP3    H123055   6.090   5.724   0.364 -0.0879  0.2473 -2.1029
 7697TIP3    H223056   5.940   5.711   0.351 -0.5327 -0.1353  1.9355
 7698TIP3   OH223057   5.820   3.431   1.452  0.5670 -0.2765  0.1999
 7698TIP3    H123058   5.784   3.509   1.411  1.4613 -0.4904 -1.0537
 7698TIP3    H223059   5.911   3.453   1.472  0.1290 -0.1382  2.2520
 7699TIP3   OH223060   6.193   0.371   2.700 -0.4681 -0.9466 -0.0936
 7699TIP3    H123061   6.260   0.401   2.762  0.0365 -0.1623 -0.9934
 7699TIP3    H223062   6.148   0.299   2.746 -0.2012 -0.2996  1.2233
 7700TIP3   OH223063   1.920   4.064   0.066 -0.9367 -0.0121 -0.6231
 7700TIP3    H123064   1.941   4.139   0.122  0.1495 -1.5449  1.1221
 7700TIP3    H223065   1.992   4.062   0.002 -0.7056  0.1623 -0.3755
 7701TIP3   OH223066   2.880   3.926   0.522  0.2484  0.5532  0.2375
 7701TIP3    H123067   2.843   4.014   0.515  0.5806  0.7962  1.2428
 7701TIP3    H223068   2.973   3.941   0.540  0.3601 -0.0086  0.1344
 7702TIP3   OH223069   6.356   2.915   3.937 -0.5435 -0.3932  0.2637
 7702TIP3    H123070   6.366   2.897   4.030  0.2280 -0.1120  0.2457
 7702TIP3    H223071   6.275   2.965   3.931  0.7830  2.0823  1.1780
 7703TIP3   OH223072  -0.022   1.878   4.962  0.1600  0.0359 -0.0228
 7703TIP3    H123073   0.064   1.906   4.992  0.4952  0.0765 -0.9936
 7703TIP3    H223074  -0.017   1.884   4.866 -0.4609 -1.2878 -0.1525
 7704TIP3   OH223075   2.236   0.658   0.325 -0.0110  0.3906 -0.5310
 7704TIP3    H123076   2.328   0.675   0.346 -0.0408  0.4431 -0.4413
 7704TIP3    H223077   2.224   0.693   0.237 -0.0794  0.8619 -0.3388
 7705TIP3   OH223078   2.259   4.840   3.862 -0.1969  0.0272 -0.2515
 7705TIP3    H123079   2.305   4.893   3.798  0.1291  1.1292  0.8501
 7705TIP3    H223080   2.311   4.848   3.942 -0.3693 -1.6257  0.0646
 7706TIP3   OH223081   0.098   1.591   0.926  0.1334 -0.5712  0.2556
 7706TIP3    H123082   0.060   1.650   0.992 -1.0481  0.3694 -1.2036
 7706TIP3    H223083   0.122   1.513   0.976  3.0092  1.5289  2.5553
 7707TIP3   OH223084   6.841   5.701   0.016 -0.3272 -0.2351 -0.3585
 7707TIP3    H123085   6.886   5.785   0.001 -0.5374 -0.2304 -1.0142
 7707TIP3    H223086   6.775   5.721   0.082  0.1137 -0.0602  0.0410
 7708TIP3   OH223087   4.437   1.464   0.981 -0.2840 -0.3052  0.3148
 7708TIP3    H123088   4.511   1.411   1.010 -0.5540 -1.1948 -0.5778
 7708TIP3    H223089   4.475   1.549   0.960  0.5569 -0.8535 -0.4593
 7709TIP3   OH223090   1.431   5.964   5.882  0.1822  0.1373 -0.5247
 7709TIP3    H123091   1.384   6.040   5.918 -1.1863 -1.1337  0.5141
 7709TIP3    H223092   1.376   5.936   5.808  0.1868 -0.3588 -0.3444
 7710TIP3   OH223093   2.178   0.321   2.665 -0.4949 -0.2016  0.0345
 7710TIP3    H123094   2.130   0.305   2.583 -0.3039 -0.5009 -0.0210
 7710TIP3    H223095   2.268   0.339   2.636 -0.0127 -2.0163  0.2558
 7711TIP3   OH223096   4.776   2.786   5.153  0.3436  0.2472 -0.1537
 7711TIP3    H123097   4.846   2.742   5.106  0.7383 -1.0643  1.5717
 7711TIP3    H223098   4.697   2.769   5.101  1.0346  0.3962 -1.2730
 7712TIP3   OH223099   0.792   6.526   3.316 -0.2633  0.1670 -0.4285
 7712TIP3    H123100   0.797   6.604   3.261  0.9475  0.4844  0.0906
 7712TIP3    H223101   0.839   6.459   3.265  1.2886  0.5897  0.3730
 7713TIP3   OH223102   5.103   1.614   2.429  0.0547 -0.1654  0.7789
 7713TIP3    H123103   5.178   1.572   2.472  1.9172  1.3964 -0.7648
 7713TIP3    H223104   5.028   1.590   2.484  1.6045 -2.0623  2.2219
 7714TIP3   OH223105   5.565   1.830   5.185  0.0757 -0.0127  0.6793
 7714TIP3    H123106   5.507   1.905   5.192 -0.6057 -0.6472  2.8062
 7714TIP3    H223107   5.591   1.827   5.093 -2.1690  1.0998 -0.0535
 7715TIP3   OH223108   4.837   5.508   0.807 -0.3542 -0.3388 -0.0965
 7715TIP3    H123109   4.840   5.413   0.811  0.2511 -0.3357 -0.3744
 7715TIP3    H223110   4.828   5.529   0.714  0.7329 -0.1105 -0.1657
 7716TIP3   OH223111   0.719   0.028   2.516  0.3298 -0.2584  0.1222
 7716TIP3    H123112   0.695  -0.038   2.582  0.8372 -0.2302  0.3401
 7716TIP3    H223113   0.716   0.111   2.564  0.7857 -0.2466  0.1400
 7717TIP3   OH223114   3.520   5.610   0.999  0.4200  0.3578 -0.2332
 7717TIP3    H123115   3.473   5.691   0.979  1.9265  1.0559 -1.0772
 7717TIP3    H223116   3.538   5.616   1.093  0.3349  0.9038 -0.2452
 7718TIP3   OH223117   4.566   5.633   4.541 -0.1794 -0.8204 -1.0890
 7718TIP3    H123118   4.651   5.599   4.514 -0.6506 -0.9644 -2.4270
 7718TIP3    H223119   4.582   5.726   4.559  0.7959 -1.3635  1.1903
 7719TIP3   OH223120   1.107   0.248   3.889 -0.1418 -0.5021  0.1459
 7719TIP3    H123121   1.065   0.315   3.942 -0.1768 -1.5522  1.5227
 7719TIP3    H223122   1.097   0.278   3.799  1.7907  2.4456  0.7790
 7720TIP3   OH223123   6.034   0.486   1.312  0.2489  0.1163  0.0278
 7720TIP3    H123124   6.034   0.409   1.255 -0.3381  1.6699 -2.1706
 7720TIP3    H223125   5.944   0.518   1.310  0.3454  0.5287  1.4104
 7721TIP3   OH223126   6.343   4.902   2.844 -0.4555  0.2755  0.4531
 7721TIP3    H123127   6.437   4.888   2.855 -0.3037  1.3528  0.6615
 7721TIP3    H223128   6.303   4.865   2.923 -0.2612 -0.6512  0.1228
 7722TIP3   OH223129   2.737   4.948   1.772 -0.2937 -0.3310 -0.5395
 7722TIP3    H123130   2.663   4.953   1.711 -1.4673 -0.0160  0.8656
 7722TIP3    H223131   2.701   4.908   1.851  1.1751 -0.6563 -0.0028
 7723TIP3   OH223132   6.557   4.591   4.089 -0.2871  0.6061 -0.4375
 7723TIP3    H123133   6.536   4.601   4.182  0.4794  0.2919 -0.2240
 7723TIP3    H223134   6.480   4.550   4.051 -0.4448  0.3586  0.1451
 7724TIP3   OH223135   5.131   3.707   3.606  0.0291  0.0181  0.3374
 7724TIP3    H123136   5.089   3.624   3.583  0.7696 -0.8298  1.9103
 7724TIP3    H223137   5.058   3.768   3.619 -0.8301 -1.4261  3.0430
 7725TIP3   OH223138   2.879   4.391   1.888  0.6774  0.6100  0.1839
 7725TIP3    H123139   2.915   4.314   1.931  1.8064  0.5366 -0.8447
 7725TIP3    H223140   2.798   4.360   1.847  1.1841 -0.0660 -0.3272
 7726TIP3   OH223141   3.415   3.279   3.171 -0.4946 -0.1621  0.0322
 7726TIP3    H123142   3.360   3.355   3.152 -0.5637 -0.1327  0.3390
 7726TIP3    H223143   3.427   3.281   3.266 -2.2710 -1.7433  0.3436
 7727TIP3   OH223144   4.405   6.387   2.327 -0.1037  0.3109  0.3675
 7727TIP3    H123145   4.357   6.335   2.262 -0.3419  0.4452  0.4367
 7727TIP3    H223146   4.494   6.351   2.324  0.0510  0.7299 -0.4758
 7728TIP3   OH223147   2.780   5.393   5.817  0.2713 -0.4287  0.0464
 7728TIP3    H123148   2.813   5.482   5.809 -1.2146  0.0270 -1.3465
 7728TIP3    H223149   2.695   5.402   5.861  1.2580 -1.4523  2.3487
 7729TIP3   OH223150   3.986   6.143   3.527  0.0462 -0.4457 -0.3164
 7729TIP3    H123151   3.967   6.236   3.537 -0.1922 -0.3294 -1.6584
 7729TIP3    H223152   3.918   6.099   3.579  0.0175  0.1225  0.1337
 7730TIP3   OH223153   1.964   4.967   1.124 -0.2605  0.1634 -0.1396
 7730TIP3    H123154   1.901   4.954   1.053 -1.3926 -0.4968  0.9443
 7730TIP3    H223155   1.932   5.045   1.170 -0.0571  0.0580  0.1798
 7731TIP3   OH223156   6.780   5.390   3.997  0.1647  0.4419  0.1591
 7731TIP3    H123157   6.793   5.482   3.975  1.1432  0.7630  1.8638
 7731TIP3    H223158   6.867   5.351   3.990  0.1185  0.0940  1.2724
 7732TIP3   OH223159   3.890   0.259   4.657 -0.1590 -0.1063 -0.1505
 7732TIP3    H123160   3.921   0.337   4.611 -0.7252 -0.3069 -0.9091
 7732TIP3    H223161   3.894   0.282   4.750 -0.7869  1.0127 -0.3753
 7733TIP3   OH223162   6.499   2.293   3.629 -0.3316 -0.6605 -0.0559
 7733TIP3    H123163   6.417   2.324   3.668  0.6520  0.5722  1.1345
 7733TIP3    H223164   6.552   2.265   3.704  0.7861 -0.2935 -0.6735
 7734TIP3   OH223165   5.661   5.565   5.565  0.2162 -0.1724 -0.1242
 7734TIP3    H123166   5.654   5.593   5.656 -1.0272  1.3836 -0.6455
 7734TIP3    H223167   5.729   5.620   5.527  1.0087 -1.0866 -0.0640
 7735TIP3   OH223168   5.540   4.032   5.762  0.2156 -0.2894  0.3241
 7735TIP3    H123169   5.492   3.989   5.833 -0.1365 -0.7947 -0.2173
 7735TIP3    H223170   5.500   3.999   5.682  0.5939  0.2980 -0.1176
 7736TIP3   OH223171   5.586   1.943   2.476  0.0611  0.0440  0.1725
 7736TIP3    H123172   5.676   1.915   2.493  0.3229 -0.2482 -1.5496
 7736TIP3    H223173   5.532   1.869   2.506  0.4965 -0.4571 -0.2594
 7737TIP3   OH223174   3.147   2.667   1.040  0.1783 -0.0042  0.2530
 7737TIP3    H123175   3.174   2.612   1.114 -0.9551  0.6859  1.2177
 7737TIP3    H223176   3.213   2.736   1.037 -0.5336  0.7857  1.5912
 7738TIP3   OH223177   0.782   1.091   3.826 -0.0683 -0.3686 -0.5445
 7738TIP3    H123178   0.726   1.127   3.758 -0.9499 -2.2264 -0.8398
 7738TIP3    H223179   0.870   1.092   3.788 -0.4979 -1.0448 -1.5847
 7739TIP3   OH223180   1.186   2.990   4.329  0.2209  0.8773 -0.1808
 7739TIP3    H123181   1.266   2.986   4.277  0.3225 -0.1566  0.0405
 7739TIP3    H223182   1.133   3.058   4.287  1.7736  2.5681  0.4806
 7740TIP3   OH223183   2.424   2.233   2.728  0.1318  0.0078 -0.2382
 7740TIP3    H123184   2.412   2.328   2.724  1.3095  0.1841 -0.1595
 7740TIP3    H223185   2.473   2.212   2.648  0.8926 -0.3444  0.3032
 7741TIP3   OH223186   5.174   5.536   2.084  0.2323 -0.0444  0.3748
 7741TIP3    H123187   5.188   5.565   2.175 -1.4452 -1.3115  1.0880
 7741TIP3    H223188   5.142   5.446   2.093  0.8326 -0.4868 -1.5428
 7742TIP3   OH223189   7.203   2.860   4.080 -0.1849  0.3510 -0.1305
 7742TIP3    H123190   7.145   2.865   4.156 -2.7322 -0.4980 -1.8824
 7742TIP3    H223191   7.163   2.918   4.015  1.6224  0.6421 -1.0571
 7743TIP3   OH223192   1.273   6.088   3.330  0.3085  0.0863  0.2929
 7743TIP3    H123193   1.310   6.169   3.365 -1.8241  1.2552  0.0541
 7743TIP3    H223194   1.287   6.094   3.236  0.8198 -0.2135  0.3443
 7744TIP3   OH223195   2.076   5.820   4.302  0.0258 -0.0031 -0.3558
 7744TIP3    H123196   2.068   5.914   4.312  0.8209  0.0537 -0.1880
 7744TIP3    H223197   2.051   5.784   4.387 -0.5621  0.0348 -0.5093
 7745TIP3   OH223198   6.932   0.487   0.964  0.3815 -0.5029 -0.1905
 7745TIP3    H123199   6.864   0.435   0.920 -0.7484 -0.4711  1.4320
 7745TIP3    H223200   6.897   0.501   1.052  1.2212  1.9750 -0.2010
 7746TIP3   OH223201   5.003   5.996   1.681  0.0044 -0.4608 -0.2090
 7746TIP3    H123202   5.034   5.905   1.680  0.5606 -0.2931  0.9009
 7746TIP3    H223203   5.080   6.047   1.704 -0.1403  0.3775 -1.5012
 7747TIP3   OH223204   6.850   6.215   1.469 -0.4977 -0.5690  0.5015
 7747TIP3    H123205   6.891   6.206   1.382 -0.9888  0.8893  0.0866
 7747TIP3    H223206   6.802   6.133   1.481 -0.0231 -0.9987 -0.3887
 7748TIP3   OH223207   3.800   6.008   5.736  0.6115  0.5469 -0.3095
 7748TIP3    H123208   3.864   6.016   5.807  0.8254  0.7178 -0.5182
 7748TIP3    H223209   3.817   6.084   5.681 -0.9628  1.5949  0.5809
 7749TIP3   OH223210   2.866   2.548   2.093  0.1964 -0.5293 -0.3512
 7749TIP3    H123211   2.841   2.462   2.061 -1.5747 -0.1868  0.0113
 7749TIP3    H223212   2.784   2.597   2.097  1.3248  1.6434 -1.8665
 7750TIP3   OH223213   0.562   2.585   2.226  0.0916 -0.4797 -0.4185
 7750TIP3    H123214   0.624   2.599   2.154 -0.6639  0.0903 -0.9765
 7750TIP3    H223215   0.535   2.494   2.217  0.2556 -0.5065 -0.6515
 7751TIP3   OH223216   2.654   1.737   4.423 -0.0176  0.5539 -0.0481
 7751TIP3    H123217   2.629   1.812   4.368 -0.2806 -1.0154 -2.2152
 7751TIP3    H223218   2.734   1.704   4.381 -0.0780 -0.5475  0.6865
 7752TIP3   OH223219   1.541   5.469   2.578  0.0254  0.8046  0.0177
 7752TIP3    H123220   1.605   5.540   2.576  2.2399 -1.0359  1.3134
 7752TIP3    H223221   1.575   5.405   2.515 -1.7275  0.6438 -0.8368
 7753TIP3   OH223222   5.813   2.840   2.686  0.2081  0.1379  0.2238
 7753TIP3    H123223   5.738   2.900   2.687  0.7155  0.8823 -1.6954
 7753TIP3    H223224   5.775   2.755   2.664 -0.1096  0.5199 -0.7934
 7754TIP3   OH223225   1.483   2.978   2.028  0.0270 -0.2907 -0.7133
 7754TIP3    H123226   1.526   3.062   2.042 -0.4034 -0.3576  1.3722
 7754TIP3    H223227   1.434   2.989   1.946  0.2663  1.3598 -0.6673
 7755TIP3   OH223228   2.472   4.951   5.550  0.4830 -0.1031  0.2245
 7755TIP3    H123229   2.554   4.908   5.573 -0.0802 -1.3552 -0.0456
 7755TIP3    H223230   2.405   4.885   5.566 -0.1204 -0.5088 -3.2187
 7756TIP3   OH223231   6.669   1.611   5.592 -1.0575 -0.3087 -0.1690
 7756TIP3    H123232   6.590   1.592   5.541 -0.8855 -1.9831  0.1121
 7756TIP3    H223233   6.737   1.557   5.552 -0.0859  0.9544 -0.2783
 7757TIP3   OH223234   6.448   6.300   1.489 -0.5808  0.0618  0.4271
 7757TIP3    H123235   6.441   6.205   1.479 -0.1658  0.0586  0.1474
 7757TIP3    H223236   6.539   6.314   1.514 -0.4558  0.4438 -0.2251
 7758TIP3   OH223237   5.736   3.440   2.708  0.8457  0.8549 -0.0190
 7758TIP3    H123238   5.672   3.376   2.676 -0.7839  2.4689 -0.1418
 7758TIP3    H223239   5.686   3.498   2.765  2.4733  1.5038  0.8264
 7759TIP3   OH223240   6.010   4.060   5.438 -0.1028  0.0575  0.0223
 7759TIP3    H123241   5.964   4.117   5.377 -1.4595 -0.2109  0.7525
 7759TIP3    H223242   5.993   3.971   5.407 -1.7992 -0.1493  1.3949
 7760TIP3   OH223243   3.876   1.929   3.765 -0.5182 -0.2237  0.9345
 7760TIP3    H123244   3.956   1.895   3.806 -0.1987 -0.2838  0.2909
 7760TIP3    H223245   3.897   2.020   3.744 -0.0151 -0.6754 -0.6806
 7761TIP3   OH223246   6.944   4.208   2.847 -0.5170  0.2631 -0.1347
 7761TIP3    H123247   6.860   4.162   2.838 -0.8496  0.8766 -0.2248
 7761TIP3    H223248   6.978   4.181   2.932  0.1141 -1.4725 -0.8796
 7762TIP3   OH223249   7.004   6.803   3.991  0.4793 -0.0368  0.0473
 7762TIP3    H123250   7.004   6.709   3.972  0.1396 -0.1163  0.4077
 7762TIP3    H223251   7.092   6.821   4.023  0.8922 -0.0010 -1.0840
 7763TIP3   OH223252   2.998   0.273   2.945  0.0467  0.1719  0.5201
 7763TIP3    H123253   2.971   0.190   2.982  0.8792 -0.8494 -1.0422
 7763TIP3    H223254   3.022   0.252   2.854  2.9277  1.5817  0.8591
 7764TIP3   OH223255   2.245   3.752   0.912 -0.2746 -0.1381  0.1030
 7764TIP3    H123256   2.276   3.672   0.869  0.3984  0.8702 -1.3487
 7764TIP3    H223257   2.321   3.783   0.961 -0.5710 -0.4149  0.7616
 7765TIP3   OH223258   7.068   0.903   2.369  0.3953 -0.5547 -0.2052
 7765TIP3    H123259   7.011   0.930   2.440  1.0006 -1.2396  0.5585
 7765TIP3    H223260   7.143   0.963   2.374 -0.3640  0.5391 -1.3947
 7766TIP3   OH223261   3.311   5.232   1.725  0.6299 -0.4148 -0.2724
 7766TIP3    H123262   3.320   5.142   1.694 -1.5056 -0.7821  0.0163
 7766TIP3    H223263   3.238   5.268   1.676  0.0171  0.4330  1.1840
 7767TIP3   OH223264   6.830   4.059   3.114 -0.5598 -0.3676 -0.2217
 7767TIP3    H123265   6.815   3.965   3.119  0.4346 -0.6216 -1.4686
 7767TIP3    H223266   6.745   4.096   3.094 -1.6697 -0.6222  3.3780
 7768TIP3   OH223267   1.098   4.491   2.742 -0.9622 -0.3845 -0.0019
 7768TIP3    H123268   1.041   4.500   2.666 -0.1880  0.5648 -0.4813
 7768TIP3    H223269   1.086   4.400   2.770 -0.2109 -1.2088 -2.1178
 7769TIP3   OH223270   5.016   5.173   2.554 -0.5847 -0.5410 -0.6052
 7769TIP3    H123271   4.995   5.135   2.468 -0.6103  0.6651 -1.1610
 7769TIP3    H223272   4.942   5.232   2.571 -1.5285 -2.1171  1.1370
 7770TIP3   OH223273   1.472   1.923   1.382  0.1276  0.1112  0.1776
 7770TIP3    H123274   1.499   2.012   1.404 -0.6454  0.2378  0.6443
 7770TIP3    H223275   1.518   1.904   1.300  0.6107  0.7884  0.2798
 7771TIP3   OH223276   4.561   0.353   3.828 -0.4113 -0.3792 -0.2091
 7771TIP3    H123277   4.522   0.413   3.892 -1.2424 -2.1699  1.0152
 7771TIP3    H223278   4.494   0.344   3.760  0.2690  1.1140 -1.1399
 7772TIP3   OH223279   4.213   1.458   5.718  0.0549  0.0083 -0.1683
 7772TIP3    H123280   4.165   1.498   5.646  0.0208 -1.5520 -1.0589
 7772TIP3    H223281   4.296   1.429   5.680 -0.1612 -1.2655  0.2702
 7773TIP3   OH223282   3.415   4.612   3.578  0.1956 -0.2832  0.4543
 7773TIP3    H123283   3.368   4.691   3.552  2.3675  1.3255  1.1027
 7773TIP3    H223284   3.497   4.617   3.529  0.1092 -2.5336  0.0021
 7774TIP3   OH223285   3.323   5.334   2.802  0.4888 -0.0149 -0.7815
 7774TIP3    H123286   3.291   5.250   2.836 -1.3780  1.8791  2.6186
 7774TIP3    H223287   3.417   5.332   2.820  0.0329 -0.3414  2.0012
 7775TIP3   OH223288   6.386   3.978   5.535 -0.2876 -0.4863 -0.0496
 7775TIP3    H123289   6.334   4.036   5.591  2.3507  0.6938  1.3645
 7775TIP3    H223290   6.393   3.897   5.585  2.2855  0.6536  1.6296
 7776TIP3   OH223291   0.868   0.964   4.038 -0.0936  0.2098  0.1524
 7776TIP3    H123292   0.914   0.894   3.991  2.4227  2.1401 -0.4751
 7776TIP3    H223293   0.821   1.012   3.971 -1.6829 -0.7140  0.5601
 7777TIP3   OH223294   2.624   2.835   3.112 -0.2509 -0.4469  0.0012
 7777TIP3    H123295   2.629   2.844   3.017 -1.8716 -3.2968 -0.4691
 7777TIP3    H223296   2.536   2.864   3.134  0.6068  1.6530  0.9307
 7778TIP3   OH223297   3.401   3.059   4.061 -0.2962  0.1651  0.4548
 7778TIP3    H123298   3.456   3.024   4.131  0.9838  1.2009  0.0238
 7778TIP3    H223299   3.464   3.098   4.000 -1.4658  0.4053 -0.6256
 7779TIP3   OH223300   4.404   6.064   1.327  0.1591 -0.2670  0.0342
 7779TIP3    H123301   4.425   6.087   1.418 -0.3266  0.0470  0.0669
 7779TIP3    H223302   4.478   6.009   1.299  1.0087  0.7721  0.1677
 7780TIP3   OH223303   4.766   0.367   3.617  0.3101 -0.4174 -0.1337
 7780TIP3    H123304   4.813   0.438   3.661 -0.7682  0.0535  0.3110
 7780TIP3    H223305   4.687   0.355   3.670  1.0094 -2.7819  0.4916
 7781TIP3   OH223306   6.926   0.156   1.126 -0.2525  0.2617 -0.2191
 7781TIP3    H123307   6.996   0.202   1.078 -0.4018  0.4362 -0.2704
 7781TIP3    H223308   6.888   0.223   1.182 -1.4135  0.5598 -1.3295
 7782TIP3   OH223309   4.394   5.844   1.640 -0.1808 -0.2193  0.7305
 7782TIP3    H123310   4.463   5.821   1.578 -0.6983  0.9823 -0.3236
 7782TIP3    H223311   4.324   5.781   1.622 -0.3370  0.1359  0.0629
 7783TIP3   OH223312   2.068   5.542   0.928 -0.3407 -0.3383  0.3308
 7783TIP3    H123313   2.139   5.489   0.965 -0.9115 -1.8774 -0.6906
 7783TIP3    H223314   2.106   5.582   0.850  0.1278  0.9343  1.1682
 7784TIP3   OH223315   4.217   3.000   0.806  0.2813  0.5244 -0.0326
 7784TIP3    H123316   4.241   2.942   0.733  1.9735  2.3776 -1.0781
 7784TIP3    H223317   4.276   2.975   0.877 -1.0883 -1.0097  0.6237
 7785TIP3   OH223318   2.098   5.874   2.937 -0.2091  0.1625 -0.0985
 7785TIP3    H123319   2.141   5.957   2.915 -0.2246  0.9745  2.5090
 7785TIP3    H223320   2.132   5.852   3.024 -1.4155 -1.7453 -0.0479
 7786TIP3   OH223321   2.099   4.949   3.656 -0.3581  0.1375  0.5450
 7786TIP3    H123322   2.176   4.946   3.600 -1.6456  0.7128 -1.3769
 7786TIP3    H223323   2.096   5.039   3.688  0.8107 -0.3925  2.2508
 7787TIP3   OH223324   6.538   3.140   2.808  0.2162  0.3077 -0.4108
 7787TIP3    H123325   6.506   3.050   2.801  1.0654  0.0763 -1.7945
 7787TIP3    H223326   6.542   3.157   2.902  1.5601 -1.6862 -0.0346
 7788TIP3   OH223327   3.660   3.986   5.319  0.0949 -0.2490 -0.4327
 7788TIP3    H123328   3.677   3.913   5.259 -1.5437 -1.0678  0.0390
 7788TIP3    H223329   3.736   3.987   5.378  1.3564  0.0805 -1.9768
 7789TIP3   OH223330   6.952   5.415   5.223 -0.1306  0.3567  0.7763
 7789TIP3    H123331   7.021   5.456   5.172  0.4622  2.1865  2.9030
 7789TIP3    H223332   6.873   5.427   5.170  0.7920  0.2281 -0.6699
 7790TIP3   OH223333   1.571   4.056   4.298  0.1008  0.5381  0.2845
 7790TIP3    H123334   1.604   4.115   4.366  0.5688  0.4428  0.1399
 7790TIP3    H223335   1.494   4.015   4.338  1.0912 -0.4714  1.2377
 7791TIP3   OH223336   0.093   0.282   3.120  0.4289 -0.3389 -0.3707
 7791TIP3    H123337   0.180   0.306   3.151 -0.2619  0.0519  1.3497
 7791TIP3    H223338   0.048   0.247   3.197 -0.7977 -0.9849 -1.3310
 7792TIP3   OH223339   4.586   5.453   4.812  0.4852 -0.5724 -0.4460
 7792TIP3    H123340   4.531   5.382   4.780 -0.8441  1.1724 -2.2839
 7792TIP3    H223341   4.529   5.529   4.814  1.4457  0.2591  2.8798
 7793TIP3   OH223342   4.720   1.462   1.416  0.1704  0.1380  0.2321
 7793TIP3    H123343   4.799   1.424   1.378  1.4603  2.2034  0.7110
 7793TIP3    H223344   4.725   1.555   1.395 -1.9587  0.4036  0.6164
 7794TIP3   OH223345   3.184   6.258   0.287  0.4535 -0.3345  0.3753
 7794TIP3    H123346   3.165   6.272   0.380 -0.9998  0.3878  0.0007
 7794TIP3    H223347   3.270   6.298   0.275 -0.0944  1.1690  1.0688
 7795TIP3   OH223348   3.730   1.277   1.874 -0.2343 -0.7065 -0.5607
 7795TIP3    H123349   3.703   1.231   1.954 -1.4560 -0.2064 -0.6627
 7795TIP3    H223350   3.652   1.325   1.847  0.6119  0.3454 -1.2141
 7796TIP3   OH223351   7.069   4.376   2.425  0.2910  0.2642  0.1686
 7796TIP3    H123352   7.053   4.459   2.379 -0.7000 -0.2133 -0.4010
 7796TIP3    H223353   7.040   4.309   2.363  0.4596 -0.4786  0.8778
 7797TIP3   OH223354   2.355   4.255   0.045 -0.2438 -0.1354  0.2209
 7797TIP3    H123355   2.449   4.271   0.057 -0.4620  0.8650  0.7212
 7797TIP3    H223356   2.347   4.229  -0.047  0.5248 -0.2721  0.1851
 7798TIP3   OH223357   4.937   2.305   4.804  0.4844  0.0457 -0.4253
 7798TIP3    H123358   5.029   2.312   4.830  1.1603 -0.9123 -2.3257
 7798TIP3    H223359   4.894   2.264   4.879  1.6655  0.2103  0.3777
 7799TIP3   OH223360   0.679   4.309   4.938  0.0254  0.2427 -0.1447
 7799TIP3    H123361   0.642   4.291   5.025  2.5297  0.2466  0.9890
 7799TIP3    H223362   0.606   4.348   4.890 -1.2899  0.8505  2.1517
 7800TIP3   OH223363   0.457   2.849   1.787 -0.5044  0.0647 -0.4838
 7800TIP3    H123364   0.473   2.779   1.724 -1.1493  1.1264 -1.8784
 7800TIP3    H223365   0.362   2.862   1.786 -0.4992  0.2821  0.5121
 7801TIP3   OH223366   4.747   0.791   1.883  0.2066 -0.1040  0.5415
 7801TIP3    H123367   4.657   0.762   1.869 -0.4934  2.1318 -0.0117
 7801TIP3    H223368   4.801   0.722   1.843 -1.2723 -1.0677  0.1280
 7802TIP3   OH223369   1.483   6.060   3.834  0.0259  0.0388 -0.1168
 7802TIP3    H123370   1.431   5.991   3.793  0.7632 -0.6112  0.0180
 7802TIP3    H223371   1.565   6.061   3.783 -0.3964  1.5838 -0.8403
 7803TIP3   OH223372   4.466   5.717   2.911  0.2979  0.8876 -0.2317
 7803TIP3    H123373   4.552   5.742   2.945  0.1562 -0.7029  1.4382
 7803TIP3    H223374   4.407   5.723   2.986 -0.8654  1.0542 -1.1306
 7804TIP3   OH223375   1.708   3.467   1.700 -1.0287 -0.1527 -0.3775
 7804TIP3    H123376   1.665   3.527   1.761 -2.0422 -1.2703  0.0377
 7804TIP3    H223377   1.649   3.463   1.625 -1.9044 -1.9965  0.3592
 7805TIP3   OH223378   3.576   1.079   4.297 -0.1276 -0.3982 -0.0156
 7805TIP3    H123379   3.579   0.984   4.291  0.6232 -0.3249 -1.0030
 7805TIP3    H223380   3.637   1.110   4.230 -0.4881  0.7838  0.1679
 7806TIP3   OH223381   3.613   6.527   5.456 -0.0718  0.0243  0.4414
 7806TIP3    H123382   3.538   6.522   5.516 -1.1253  0.8721 -0.7294
 7806TIP3    H223383   3.587   6.594   5.392  1.8596  0.6029  0.2099
 7807TIP3   OH223384   4.115   4.252   2.796 -0.0759  0.3063 -0.3757
 7807TIP3    H123385   4.154   4.243   2.709 -1.2756  0.5993 -0.9513
 7807TIP3    H223386   4.133   4.168   2.839  1.5551  0.5747 -0.4483
 7808TIP3   OH223387   6.445   4.400   0.973 -0.0002  0.3110  0.0004
 7808TIP3    H123388   6.445   4.393   1.068 -0.6798  0.7701  0.0423
 7808TIP3    H223389   6.455   4.494   0.956  0.1370  0.2307 -0.3778
 7809TIP3   OH223390   5.502   5.103   3.072  0.0714 -0.1115 -0.0968
 7809TIP3    H123391   5.536   5.192   3.067  2.2224 -0.9513 -1.5996
 7809TIP3    H223392   5.576   5.051   3.102 -1.8530 -1.1272  3.4930
 7810TIP3   OH223393   3.758   0.542   2.947 -0.1686  0.1759  0.2819
 7810TIP3    H123394   3.704   0.522   2.870 -1.7636 -1.3654  1.7250
 7810TIP3    H223395   3.825   0.602   2.913 -0.9976 -0.1663 -2.2258
 7811TIP3   OH223396   6.546   5.566   3.599 -0.6260 -0.0389  0.4921
 7811TIP3    H123397   6.462   5.546   3.557 -0.3030  1.2176 -0.8329
 7811TIP3    H223398   6.607   5.580   3.527 -0.0332  2.1649  1.3264
 7812TIP3   OH223399   6.296   1.957   4.820  0.6395 -0.1542 -0.0713
 7812TIP3    H123400   6.384   1.991   4.810  0.3743  2.6900  4.4273
 7812TIP3    H223401   6.299   1.905   4.901 -1.7478 -0.1281  0.1212
 7813TIP3   OH223402   3.651   1.498   0.089 -0.1545 -0.4189  0.3014
 7813TIP3    H123403   3.739   1.523   0.061 -0.4801  2.1305  1.3551
 7813TIP3    H223404   3.652   1.508   0.184 -2.0104  1.2593  0.1930
 7814TIP3   OH223405   4.137   4.013   2.945 -0.3127 -0.4240  0.1967
 7814TIP3    H123406   4.108   4.018   3.036 -0.0232  0.3010  0.2605
 7814TIP3    H223407   4.108   3.927   2.915 -2.1452  0.0806  0.3785
 7815TIP3   OH223408   3.877   0.132   0.714 -0.7710  0.1924  0.5800
 7815TIP3    H123409   3.825   0.059   0.680  2.0996 -1.4034 -0.7804
 7815TIP3    H223410   3.827   0.210   0.690 -2.7996 -1.2249 -0.0634
 7816TIP3   OH223411   1.444   2.598   4.833  0.2215  0.5424  0.4035
 7816TIP3    H123412   1.392   2.526   4.798 -0.7404  1.4759 -0.1622
 7816TIP3    H223413   1.403   2.677   4.796  2.1577  1.3109 -0.2175
 7817TIP3   OH223414   1.133   0.706   1.067  0.1523 -0.6908 -0.1328
 7817TIP3    H123415   1.173   0.792   1.074 -0.2972 -0.5513  0.8257
 7817TIP3    H223416   1.116   0.679   1.157 -1.5593 -0.9076 -0.4863
 7818TIP3   OH223417   1.526   2.854   5.320  0.1450 -0.2839 -0.6633
 7818TIP3    H123418   1.569   2.805   5.390 -3.1526 -0.4981  1.4310
 7818TIP3    H223419   1.527   2.794   5.246  2.5466 -0.5888 -0.4837
 7819TIP3   OH223420   3.114   1.172   4.956  0.0510  0.6967 -0.2856
 7819TIP3    H123421   3.135   1.081   4.977  0.3813  1.1371  1.4306
 7819TIP3    H223422   3.033   1.167   4.905 -1.2649 -0.4628  1.7587
 7820TIP3   OH223423   6.067   0.766   1.273 -0.0922  0.4598  0.7828
 7820TIP3    H123424   5.983   0.781   1.317 -1.1652  0.1094 -1.0220
 7820TIP3    H223425   6.069   0.672   1.256 -0.7461  0.8202 -1.7061
 7821TIP3   OH223426   0.942   4.182   2.928  0.7947  0.2218  0.0962
 7821TIP3    H123427   0.880   4.237   2.879  1.1219  1.0818  0.6316
 7821TIP3    H223428   0.924   4.093   2.897 -3.1801 -0.1546  2.6736
 7822TIP3   OH223429   5.686   5.205   2.610  1.0755 -0.4485  0.6209
 7822TIP3    H123430   5.764   5.214   2.666  1.1282 -0.0120  0.4856
 7822TIP3    H223431   5.710   5.139   2.545  1.0644 -0.8578  1.0269
 7823TIP3   OH223432   5.926   6.690   4.191 -0.4679  0.5163 -0.3014
 7823TIP3    H123433   5.911   6.599   4.216  0.7191 -0.0910 -1.6822
 7823TIP3    H223434   5.847   6.715   4.143 -2.0396  1.1730  2.4468
 7824TIP3   OH223435   2.791   2.035   5.518  0.2023 -0.2940 -0.1801
 7824TIP3    H123436   2.850   2.079   5.457 -0.3581 -1.9618 -2.0207
 7824TIP3    H223437   2.845   1.966   5.558  0.3987  0.3913  0.7539
 7825TIP3   OH223438   4.247   3.011   5.757 -0.5337 -0.4521 -0.1981
 7825TIP3    H123439   4.258   3.069   5.832  0.7988 -0.9240 -0.0065
 7825TIP3    H223440   4.180   3.053   5.704 -1.3791 -0.0205  1.1618
 7826TIP3   OH223441   2.052   4.373   2.158 -0.3242 -0.2583 -0.2218
 7826TIP3    H123442   2.008   4.318   2.222 -0.8882  0.7777  0.3104
 7826TIP3    H223443   1.991   4.445   2.142  1.0452  1.0802  0.3233
 7827TIP3   OH223444   4.719   4.818   3.093 -0.6269  0.3628 -0.4625
 7827TIP3    H123445   4.752   4.738   3.134  0.0500  0.7746 -0.1840
 7827TIP3    H223446   4.772   4.827   3.013  0.1321  1.1565  0.1100
 7828TIP3   OH223447   5.532   3.915   2.244  0.0349  0.1322  0.3900
 7828TIP3    H123448   5.572   3.953   2.166 -0.7661 -2.9279 -1.6827
 7828TIP3    H223449   5.602   3.917   2.310  1.5285  0.6533 -1.1295
 7829TIP3   OH223450   2.724   1.545   4.043  0.4469  0.7353 -0.0479
 7829TIP3    H123451   2.653   1.605   4.066  0.1214  0.8080 -1.2112
 7829TIP3    H223452   2.786   1.553   4.115 -1.6799 -0.9466  2.1612
 7830TIP3   OH223453   5.067   4.505   0.327  0.1587 -0.0792  0.0280
 7830TIP3    H123454   5.042   4.446   0.255  2.0511 -1.7286  0.6428
 7830TIP3    H223455   5.089   4.587   0.283 -0.0433 -0.6144 -1.1332
 7831TIP3   OH223456   1.329   2.150   5.557 -0.0997 -0.2342  0.0747
 7831TIP3    H123457   1.327   2.200   5.638 -0.0710 -0.8020  0.4381
 7831TIP3    H223458   1.330   2.058   5.586 -0.6176 -0.4521 -0.5762
 7832TIP3   OH223459   0.394   1.904   4.185 -0.1257 -0.0022 -0.1389
 7832TIP3    H123460   0.313   1.947   4.161  0.5929  0.5484 -1.7379
 7832TIP3    H223461   0.419   1.943   4.268 -1.6103 -0.3861  0.5232
 7833TIP3   OH223462   5.210   4.000   3.863 -0.4453  0.3526 -0.1633
 7833TIP3    H123463   5.254   4.006   3.779  1.8692 -1.3801  0.8033
 7833TIP3    H223464   5.227   4.084   3.906 -1.9046  1.3636 -1.4651
 7834TIP3   OH223465   4.529   5.096   3.909  0.3217  0.1254 -0.3442
 7834TIP3    H123466   4.463   5.150   3.865  0.9129  0.4343 -0.8666
 7834TIP3    H223467   4.516   5.008   3.874 -0.7944 -0.1450  0.6752
 7835TIP3   OH223468   2.754   0.521   5.837 -0.1647 -0.2673 -0.2732
 7835TIP3    H123469   2.723   0.442   5.793 -1.7823  1.1313 -1.7900
 7835TIP3    H223470   2.707   0.593   5.794  0.9808  1.5094  1.2768
 7836TIP3   OH223471   4.218   5.299   4.486 -0.3539 -0.1178 -0.1408
 7836TIP3    H123472   4.193   5.389   4.510 -0.2947 -0.1397  0.0032
 7836TIP3    H223473   4.311   5.305   4.465 -0.1720 -0.2901  0.5957
 7837TIP3   OH223474   3.789   4.887   4.534  0.0959  0.1508 -0.2271
 7837TIP3    H123475   3.719   4.831   4.569  0.2014 -0.0895 -0.3956
 7837TIP3    H223476   3.821   4.936   4.610 -1.4412  1.5703 -0.4523
 7838TIP3   OH223477   6.820   2.173   4.746  0.2767  0.0426  0.0043
 7838TIP3    H123478   6.851   2.176   4.837 -2.8616  1.7166  1.1797
 7838TIP3    H223479   6.809   2.079   4.727 -3.8381 -0.4450  3.3654
 7839TIP3   OH223480   5.161   0.233   5.459 -0.1073  0.1758 -0.1937
 7839TIP3    H123481   5.216   0.229   5.537 -0.1612 -2.2997 -0.1905
 7839TIP3    H223482   5.142   0.141   5.439 -2.0712  0.8501 -1.7311
 7840TIP3   OH223483   5.710   6.696   5.791  0.6418 -0.2488 -0.2565
 7840TIP3    H123484   5.767   6.754   5.740  0.2011 -0.2057 -0.7109
 7840TIP3    H223485   5.629   6.692   5.740  0.3870 -0.6347  0.1760
 7841TIP3   OH223486   0.884   5.928   0.542  0.2183 -0.4288  0.3172
 7841TIP3    H123487   0.914   5.934   0.451 -0.6463 -0.2328  0.0404
 7841TIP3    H223488   0.820   5.998   0.551  0.7525 -0.0493  1.2630
 7842TIP3   OH223489  -0.003   5.229   2.092  0.0870 -0.1724 -0.6119
 7842TIP3    H123490  -0.057   5.305   2.113 -0.2802 -0.3754 -0.8147
 7842TIP3    H223491   0.085   5.265   2.079  0.2146  0.0265  0.7153
 7843TIP3   OH223492   5.092   2.590   0.825 -0.0592  0.4757  0.0959
 7843TIP3    H123493   5.170   2.576   0.771  0.4879  0.8097  0.7673
 7843TIP3    H223494   5.046   2.662   0.783 -0.4044 -0.2122 -0.7233
 7844TIP3   OH223495   6.087   0.472   5.268 -0.0914  0.3306  0.3330
 7844TIP3    H123496   6.018   0.502   5.210 -1.4749 -1.0896  1.1542
 7844TIP3    H223497   6.052   0.391   5.307  2.5182 -1.1208 -0.1265
 7845TIP3   OH223498   6.586   1.785   4.482 -0.1758  0.6338 -0.0494
 7845TIP3    H123499   6.553   1.743   4.562 -0.0095  0.8214  0.1197
 7845TIP3    H223500   6.507   1.817   4.438 -0.4878 -1.3720 -1.0745
 7846TIP3   OH223501   1.138   6.010   5.076 -0.2599  0.8673 -0.2630
 7846TIP3    H123502   1.183   5.945   5.023 -1.4119  1.0192 -1.4609
 7846TIP3    H223503   1.194   6.088   5.072  0.4668  0.3768  0.1146
 7847TIP3   OH223504   4.232   2.779   2.656 -0.1934  0.0783 -0.4327
 7847TIP3    H123505   4.175   2.705   2.680 -0.2206  0.0467 -0.5921
 7847TIP3    H223506   4.172   2.852   2.643 -0.0852  0.4022  0.7324
 7848TIP3   OH223507   5.740   1.373   3.361  0.3121  0.0291 -0.1319
 7848TIP3    H123508   5.734   1.349   3.269  1.8439  0.4344 -0.3657
 7848TIP3    H223509   5.782   1.459   3.361 -0.3535  0.3722  0.9226
 7849TIP3   OH223510   5.190   4.340   2.504  0.1437  0.4243 -0.4360
 7849TIP3    H123511   5.243   4.416   2.477 -0.8061  0.7840 -1.3500
 7849TIP3    H223512   5.133   4.323   2.429 -0.8338 -0.1459  0.4129
 7850TIP3   OH223513   1.480   3.542   0.060 -0.1261  0.0060  0.8767
 7850TIP3    H123514   1.503   3.599  -0.014 -0.4113 -2.2635 -1.0595
 7850TIP3    H223515   1.563   3.526   0.105  0.5182 -0.6302 -0.4980
 7851TIP3   OH223516   2.961   5.560   3.954  0.2643 -0.5072 -0.5176
 7851TIP3    H123517   3.003   5.619   3.891  0.3649 -0.1902 -0.1599
 7851TIP3    H223518   2.870   5.589   3.958  0.0143 -1.1690 -1.2630
 7852TIP3   OH223519   5.733   1.132   1.873 -0.5248 -0.3661  0.0584
 7852TIP3    H123520   5.669   1.079   1.920 -1.0314 -1.2511 -1.5723
 7852TIP3    H223521   5.720   1.221   1.906 -3.1735 -0.3657 -0.8020
 7853TIP3   OH223522   3.851   0.138   5.113  0.1770 -0.5133  0.4502
 7853TIP3    H123523   3.850   0.211   5.175  2.1331 -0.6110  0.6421
 7853TIP3    H223524   3.866   0.179   5.028  1.3701 -0.6673  0.5702
 7854TIP3   OH223525   0.373   4.045   0.088  0.4757  0.2927  0.1749
 7854TIP3    H123526   0.304   4.014   0.030  1.1696  0.1744 -0.6111
 7854TIP3    H223527   0.435   3.972   0.094 -0.1124 -0.0972  1.9491
 7855TIP3   OH223528   5.692   5.113   1.382  0.4596  0.2979 -0.4424
 7855TIP3    H123529   5.778   5.154   1.391 -0.3950  2.0120  0.2787
 7855TIP3    H223530   5.660   5.103   1.471 -0.7035  1.0993 -0.7381
 7856TIP3   OH223531   5.690   0.110   2.139 -0.2070  0.4894 -0.3176
 7856TIP3    H123532   5.753   0.128   2.069  0.0038  2.9728  0.4247
 7856TIP3    H223533   5.744   0.083   2.213 -0.3434 -1.0221 -0.7463
 7857TIP3   OH223534   3.982   5.313   4.288 -0.6395  0.4397  0.3279
 7857TIP3    H123535   4.076   5.309   4.303 -0.4702  2.2279 -0.0518
 7857TIP3    H223536   3.943   5.297   4.374  0.0681  1.3420  0.8387
 7858TIP3   OH223537   5.176   6.363   1.701  0.5551  0.2093 -0.0372
 7858TIP3    H123538   5.099   6.419   1.714  0.3804  0.2074 -0.9641
 7858TIP3    H223539   5.215   6.355   1.788 -0.4612  0.2587  0.4469
 7859TIP3   OH223540   6.774   0.279   4.398  0.5501  0.2315 -0.0440
 7859TIP3    H123541   6.764   0.262   4.492  0.4506  2.5935  0.4431
 7859TIP3    H223542   6.864   0.251   4.379  0.8554  0.4547  0.9666
 7860TIP3   OH223543   5.000   1.154   0.887  0.0054 -0.1270  0.0150
 7860TIP3    H123544   4.972   1.133   0.976 -0.7636 -0.7565 -0.3738
 7860TIP3    H223545   5.022   1.070   0.847  3.4387  0.3435  0.5747
 7861TIP3   OH223546   1.758   0.934   1.787  0.4093  0.5874  0.5698
 7861TIP3    H123547   1.694   0.952   1.718  1.6707  0.4015 -0.7058
 7861TIP3    H223548   1.727   0.985   1.862  0.1157  2.5164 -0.7828
 7862TIP3   OH223549   1.378   3.698   2.929 -0.0344  0.2132  0.6219
 7862TIP3    H123550   1.343   3.643   2.998 -2.1930  0.8137  0.0872
 7862TIP3    H223551   1.472   3.703   2.947  0.2185 -3.2682  0.9001
 7863TIP3   OH223552   2.186   6.045   1.309  0.3532 -0.3540  0.2567
 7863TIP3    H123553   2.281   6.048   1.319  0.3084  0.1299  0.5470
 7863TIP3    H223554   2.162   5.956   1.337  0.7128 -0.4689  0.2078
 7864TIP3   OH223555   1.562   2.895   0.087 -0.0957 -0.3107  0.1610
 7864TIP3    H123556   1.610   2.929   0.012  1.1064  0.1395  1.1093
 7864TIP3    H223557   1.558   2.968   0.149 -2.1514 -0.2787  0.0791
 7865TIP3   OH223558   6.226   3.352   2.357 -0.0704  0.4579  0.5378
 7865TIP3    H123559   6.172   3.317   2.428  1.3239 -1.3164  0.8161
 7865TIP3    H223560   6.314   3.320   2.376  0.4070  0.0976 -1.8533
 7866TIP3   OH223561   1.562   2.231   2.898  0.1903 -0.3392  0.3340
 7866TIP3    H123562   1.651   2.238   2.935 -1.3825  0.9057  4.4495
 7866TIP3    H223563   1.527   2.320   2.905 -1.5654 -0.9169 -0.7573
 7867TIP3   OH223564   0.872   0.143   1.405  0.7506  0.0528  0.0498
 7867TIP3    H123565   0.881   0.048   1.396 -0.1419 -0.2318  1.7015
 7867TIP3    H223566   0.921   0.164   1.484 -0.6831  0.6460  0.8172
 7868TIP3   OH223567   4.646   1.165   1.264 -0.0150  0.0263 -0.1071
 7868TIP3    H123568   4.651   1.076   1.301 -2.8916 -0.4960 -0.7798
 7868TIP3    H223569   4.597   1.215   1.329 -0.3601  0.5442 -0.7614
 7869TIP3   OH223570   5.480   4.607   4.178 -0.0488  0.9823 -0.1157
 7869TIP3    H123571   5.558   4.552   4.181 -0.6625  0.1400  1.5739
 7869TIP3    H223572   5.474   4.634   4.086  1.5317  0.0879 -0.5352
 7870TIP3   OH223573   5.701   3.339   4.596 -0.3646  0.2586  0.1317
 7870TIP3    H123574   5.787   3.379   4.583  0.0071 -0.6414 -0.2713
 7870TIP3    H223575   5.647   3.375   4.526  0.0513 -0.1691 -0.4187
 7871TIP3   OH223576   2.659   6.594   5.778  0.1570 -0.4582 -0.0301
 7871TIP3    H123577   2.568   6.623   5.783  0.3084  0.0652 -0.2002
 7871TIP3    H223578   2.667   6.528   5.846 -0.4364 -0.7546 -0.2399
 7872TIP3   OH223579   2.001   0.059   4.268  0.2044  0.3807  0.0090
 7872TIP3    H123580   1.908   0.035   4.260  0.2511  0.2530 -0.1545
 7872TIP3    H223581   2.045   0.008   4.199  0.8623 -2.0075  2.0197
 7873TIP3   OH223582   1.857   1.120   4.205  0.1956 -0.4895  0.2745
 7873TIP3    H123583   1.835   1.040   4.254  0.1920 -0.6746 -0.0304
 7873TIP3    H223584   1.843   1.096   4.114 -0.6275  0.1080  0.2279
 7874TIP3   OH223585   5.048   6.608   2.475  0.7181  0.3132  0.4229
 7874TIP3    H123586   5.125   6.660   2.451 -0.4022  1.8335 -0.0376
 7874TIP3    H223587   5.024   6.562   2.394  0.5133  0.6758  0.2779
 7875TIP3   OH223588   3.025   3.400   5.023 -0.0195 -0.5189 -0.5350
 7875TIP3    H123589   3.108   3.363   5.051 -0.0889 -1.2784 -1.3107
 7875TIP3    H223590   2.958   3.344   5.062 -0.2558  0.9796  1.3859
 7876TIP3   OH223591   0.535   3.150   3.090 -0.3193  0.3127 -0.1075
 7876TIP3    H123592   0.584   3.215   3.141 -0.7930  0.3857  0.2693
 7876TIP3    H223593   0.554   3.171   2.999 -0.6522  1.1361  0.0025
 7877TIP3   OH223594   4.334   1.800   4.354  0.1842  0.0244 -0.1140
 7877TIP3    H123595   4.370   1.796   4.265 -0.2340 -1.5131 -0.2452
 7877TIP3    H223596   4.260   1.740   4.352  0.1635 -0.0160  1.2882
 7878TIP3   OH223597   2.141   0.121   0.564 -0.1239 -0.8914  0.3210
 7878TIP3    H123598   2.185   0.190   0.515  1.3704 -1.7518  0.3719
 7878TIP3    H223599   2.208   0.089   0.625  0.0944 -3.9984 -1.3425
 7879TIP3   OH223600   6.777   5.159   2.163  0.5018 -0.5865 -0.0262
 7879TIP3    H123601   6.800   5.243   2.203  1.3649 -0.8173 -0.0208
 7879TIP3    H223602   6.850   5.102   2.184 -0.7318 -1.7827  1.2400
 7880TIP3   OH223603   1.516   0.603   3.720 -0.4465  0.0497  0.5854
 7880TIP3    H123604   1.539   0.561   3.637 -1.5246  1.8666 -0.7077
 7880TIP3    H223605   1.484   0.690   3.695 -1.5504  0.3746  2.8449
 7881TIP3   OH223606   6.721   4.176   5.652  0.4647 -0.4527 -0.4428
 7881TIP3    H123607   6.787   4.188   5.720 -0.8448 -1.6031  1.0969
 7881TIP3    H223608   6.638   4.167   5.699 -0.8535  1.0095 -2.3124
 7882TIP3   OH223609   0.920   6.434   0.940 -0.7715  0.0254 -0.0480
 7882TIP3    H123610   0.853   6.486   0.896 -1.0361  0.2651  0.6306
 7882TIP3    H223611   0.955   6.377   0.871 -1.7456 -0.1815 -0.3890
 7883TIP3   OH223612   3.057   2.101   0.138  0.0187  0.4104  0.3798
 7883TIP3    H123613   2.986   2.036   0.133  1.1644 -0.8113 -1.1695
 7883TIP3    H223614   3.021   2.172   0.192 -2.1911 -0.3721  0.0464
 7884TIP3   OH223615   6.502   1.167   4.626  0.1134  0.3150 -0.1423
 7884TIP3    H123616   6.501   1.258   4.657 -1.8640  0.0369  0.8158
 7884TIP3    H223617   6.410   1.139   4.631  0.6790 -1.7757 -0.2887
 7885TIP3   OH223618   4.102   5.950   0.715 -0.1163  0.4646  0.0241
 7885TIP3    H123619   4.182   5.949   0.662 -0.3978 -0.3632 -0.4101
 7885TIP3    H223620   4.052   5.874   0.685 -0.1162 -0.2674  1.7346
 7886TIP3   OH223621   3.792   2.568   1.561 -0.1849  0.5489 -0.0819
 7886TIP3    H123622   3.863   2.578   1.624  0.0457  0.9620 -0.4055
 7886TIP3    H223623   3.713   2.555   1.615  0.4357 -2.2952  0.3091
 7887TIP3   OH223624   0.989   0.449   2.504 -0.8368 -0.5857 -0.1879
 7887TIP3    H123625   1.073   0.403   2.499  0.0131  0.7871  0.7836
 7887TIP3    H223626   0.928   0.384   2.540  0.3708 -0.9020  1.3770
 7888TIP3   OH223627   4.760   2.506   5.319  0.1108 -0.3826 -0.3776
 7888TIP3    H123628   4.670   2.538   5.331 -0.1671 -1.3417  0.1386
 7888TIP3    H223629   4.814   2.585   5.325 -0.6694  0.1598 -0.3729
 7889TIP3   OH223630   3.500   5.308   4.705  0.0393 -0.1559 -0.4773
 7889TIP3    H123631   3.586   5.345   4.726 -0.3487 -0.2855  1.5544
 7889TIP3    H223632   3.445   5.331   4.780 -1.3346 -1.2757 -1.0862
 7890TIP3   OH223633   3.597   1.047   2.044  0.0564 -0.2802  0.0222
 7890TIP3    H123634   3.582   1.035   2.138  0.3474  0.4426  0.1701
 7890TIP3    H223635   3.683   1.008   2.028  0.8760  1.2693  0.4463
 7891TIP3   OH223636   3.112   4.051   4.238 -0.5043  0.3383 -0.2936
 7891TIP3    H123637   3.206   4.072   4.233 -0.2089 -0.8194  0.1064
 7891TIP3    H223638   3.100   4.017   4.326 -0.5321 -2.8958 -1.4236
 7892TIP3   OH223639   0.248   3.194   1.706  0.2751 -0.1211  0.1737
 7892TIP3    H123640   0.255   3.102   1.681 -0.9353 -0.8058  2.1513
 7892TIP3    H223641   0.164   3.222   1.670 -0.6563 -0.6194  1.8630
 7893TIP3   OH223642   3.457   0.486   1.591 -0.4029 -0.2442  0.0393
 7893TIP3    H123643   3.514   0.443   1.527 -0.7298  0.1219 -0.5180
 7893TIP3    H223644   3.510   0.557   1.627 -0.1191 -0.6342  0.3943
 7894TIP3   OH223645   3.147   5.513   4.139 -0.3566  0.4986 -0.1095
 7894TIP3    H123646   3.086   5.547   4.074 -0.0598  2.1946  0.4402
 7894TIP3    H223647   3.233   5.524   4.099 -0.1865  1.3865  0.4647
 7895TIP3   OH223648   4.666   3.091   3.860 -0.0188  0.2034  0.3876
 7895TIP3    H123649   4.640   3.170   3.814  1.5320  1.7270  1.9666
 7895TIP3    H223650   4.638   3.019   3.803 -0.7691  1.8895 -1.4724
 7896TIP3   OH223651   6.010   4.092   3.759  0.3146  1.0631 -0.0922
 7896TIP3    H123652   5.922   4.100   3.723  0.1578  2.6708  0.5618
 7896TIP3    H223653   6.064   4.067   3.684 -0.8413 -1.0880 -0.2619
 7897TIP3   OH223654   4.717   5.151   1.421  1.1053 -0.4556 -0.2208
 7897TIP3    H123655   4.693   5.210   1.350  1.0379 -0.5311 -0.2612
 7897TIP3    H223656   4.704   5.063   1.385 -0.8774 -0.5254  0.4875
 7898TIP3   OH223657   2.667   0.727   2.421 -0.0521 -0.9988  0.2290
 7898TIP3    H123658   2.616   0.669   2.364 -1.3082 -1.5293  1.8314
 7898TIP3    H223659   2.638   0.706   2.510  2.2509 -0.5831  1.1401
 7899TIP3   OH223660   2.109   1.292   3.878 -0.1986 -0.3298 -0.3461
 7899TIP3    H123661   2.146   1.213   3.839  1.5439 -0.0428  0.5875
 7899TIP3    H223662   2.018   1.294   3.849 -0.7618 -3.4643  0.7760
 7900TIP3   OH223663   4.248   3.731   4.825 -0.6076 -0.3198  0.3389
 7900TIP3    H123664   4.164   3.695   4.797 -2.2465  2.6221  1.0508
 7900TIP3    H223665   4.279   3.782   4.751  0.9409 -1.8150 -0.1250
 7901TIP3   OH223666   4.373   6.645   0.414  0.1595 -0.3278  0.1993
 7901TIP3    H123667   4.359   6.598   0.496 -0.3247  0.4125  0.5508
 7901TIP3    H223668   4.373   6.737   0.439 -1.3840 -0.0137 -0.7985
 7902TIP3   OH223669   1.323   4.944   0.711 -0.7597 -0.1256  0.3297
 7902TIP3    H123670   1.327   4.875   0.776  1.4980 -0.4271 -0.0558
 7902TIP3    H223671   1.334   5.025   0.761 -0.7492 -0.2262  0.4900
 7903TIP3   OH223672   7.209   0.197   4.730  0.4996 -0.0219  0.0127
 7903TIP3    H123673   7.151   0.268   4.701 -1.2261 -1.3775  0.0486
 7903TIP3    H223674   7.191   0.187   4.823  0.8784 -0.3999  0.0479
 7904TIP3   OH223675   2.657   2.998   3.636 -0.0557 -0.2919 -0.0887
 7904TIP3    H123676   2.662   3.062   3.708 -2.1022 -1.3303  1.0659
 7904TIP3    H223677   2.744   2.956   3.635  0.5066  0.7957  0.7448
 7905TIP3   OH223678   0.899   3.743   4.058 -0.5417 -0.4607 -0.1496
 7905TIP3    H123679   0.947   3.683   4.001 -0.9960 -0.1087 -0.9222
 7905TIP3    H223680   0.808   3.734   4.031 -0.6863  0.1608  0.1132
 7906TIP3   OH223681   3.693   4.186   1.542  0.2940 -0.3682 -0.2312
 7906TIP3    H123682   3.649   4.204   1.625  0.7310 -2.3330  0.4932
 7906TIP3    H223683   3.754   4.258   1.530  0.3392 -0.1341  1.2484
 7907TIP3   OH223684   3.371   5.098   5.701 -0.1699  0.3098 -0.2956
 7907TIP3    H123685   3.419   5.022   5.668 -0.3851  0.0349  0.0168
 7907TIP3    H223686   3.323   5.132   5.626  0.1937  0.3412 -0.5143
 7908TIP3   OH223687   1.032   3.726   2.039  0.2356 -0.0982  0.2938
 7908TIP3    H123688   0.968   3.704   1.971 -1.1216  2.5332  0.5728
 7908TIP3    H223689   1.114   3.740   1.991 -0.7142  1.7862 -0.8849
 7909TIP3   OH223690   5.604   4.571   4.529  0.1713 -0.3197 -1.0440
 7909TIP3    H123691   5.547   4.551   4.455 -0.7261  1.0070 -0.7384
 7909TIP3    H223692   5.613   4.666   4.529  1.2388 -0.3953 -0.2292
 7910TIP3   OH223693   1.274   3.688   2.312 -0.2435  0.0031  0.3229
 7910TIP3    H123694   1.323   3.770   2.305  0.6701 -0.4386  1.1924
 7910TIP3    H223695   1.342   3.621   2.314 -0.9111 -0.6615  1.1693
 7911TIP3   OH223696   5.199   0.999   5.783 -0.4051  0.2857 -0.1935
 7911TIP3    H123697   5.249   0.933   5.735  1.2043  1.7150 -0.5354
 7911TIP3    H223698   5.249   1.014   5.863 -0.9479  0.8519  0.0445
 7912TIP3   OH223699   1.579   1.355   3.111 -0.3509 -0.1054  0.2129
 7912TIP3    H123700   1.569   1.279   3.168 -0.7275 -0.0807  0.1856
 7912TIP3    H223701   1.561   1.322   3.023  0.4049 -0.1815  0.0834
 7913TIP3   OH223702   4.866   4.220   2.775  0.2107  0.0085 -0.7099
 7913TIP3    H123703   4.785   4.230   2.724  1.0215  0.1974 -2.0167
 7913TIP3    H223704   4.904   4.138   2.743  0.0905 -0.5610  0.5653
 7914TIP3   OH223705   4.318   6.510   4.525 -0.0029  0.2929  0.3597
 7914TIP3    H123706   4.315   6.435   4.584  1.9208 -0.1608 -0.0748
 7914TIP3    H223707   4.378   6.571   4.567 -0.4649  1.0033  0.0141
 7915TIP3   OH223708   2.162   5.275   2.562  0.1225  0.0304  0.4169
 7915TIP3    H123709   2.152   5.370   2.557  2.4113  0.2926 -0.5903
 7915TIP3    H223710   2.152   5.254   2.655 -0.5270  1.2240  0.6286
 7916TIP3   OH223711   4.436   4.230   1.215  0.0680  0.0089  0.5643
 7916TIP3    H123712   4.477   4.301   1.166  1.8573 -0.1630  1.7107
 7916TIP3    H223713   4.351   4.218   1.174 -0.0828  2.4853  0.0460
 7917TIP3   OH223714   0.124   2.012   5.661  0.4431 -0.0351  0.4357
 7917TIP3    H123715   0.158   2.087   5.710 -0.2950  0.8653 -0.4023
 7917TIP3    H223716   0.063   1.970   5.722  0.5892  0.2524  0.7836
 7918TIP3   OH223717   4.897   0.841   0.914  0.1379 -0.2150 -0.7442
 7918TIP3    H123718   4.974   0.868   0.965  0.8172  1.5440 -2.5698
 7918TIP3    H223719   4.824   0.848   0.976  1.3667 -1.7484  0.9882
 7919TIP3   OH223720   1.671   3.279   4.169 -0.1886 -0.4003  0.2011
 7919TIP3    H123721   1.651   3.197   4.215 -0.8397 -0.9611 -1.0393
 7919TIP3    H223722   1.646   3.348   4.231 -3.0690 -1.1103 -0.0294
 7920TIP3   OH223723   1.261   0.738   4.022  0.2537 -0.0838 -0.2608
 7920TIP3    H123724   1.296   0.733   3.933 -0.7569  0.2953 -0.6956
 7920TIP3    H223725   1.271   0.830   4.047  3.1191 -0.6467  1.1471
 7921TIP3   OH223726   0.272   0.626   5.747  0.2178 -0.3791 -0.1259
 7921TIP3    H123727   0.311   0.561   5.806  0.6143 -0.6309 -0.6576
 7921TIP3    H223728   0.180   0.630   5.773  0.6528  0.5067  1.4092
 7922TIP3   OH223729   0.297   4.729   3.337  0.0261 -0.3643 -0.1835
 7922TIP3    H123730   0.291   4.710   3.431  0.4455 -0.0918 -0.0990
 7922TIP3    H223731   0.304   4.824   3.332 -1.1738 -0.2802 -0.5584
 7923TIP3   OH223732   5.340   4.364   4.688 -0.4976  0.2478 -0.3907
 7923TIP3    H123733   5.339   4.272   4.715  0.0133  0.2007 -0.5277
 7923TIP3    H223734   5.337   4.361   4.593  3.2639  0.2256 -0.6551
 7924TIP3   OH223735   6.024   3.419   3.446  0.0305 -0.6542  0.0035
 7924TIP3    H123736   6.091   3.399   3.511 -0.1245 -0.3684  0.2531
 7924TIP3    H223737   6.003   3.335   3.407  0.6568 -0.7288 -0.1949
 7925TIP3   OH223738   7.229   1.286   4.648  0.2580 -0.4260 -0.2562
 7925TIP3    H123739   7.189   1.330   4.574  0.2860  1.1262  0.6165
 7925TIP3    H223740   7.155   1.266   4.706  0.0942 -2.5700 -1.1111
 7926TIP3   OH223741   2.283   3.247   4.972  0.3978  0.3364 -0.0108
 7926TIP3    H123742   2.368   3.286   4.995  0.4269  0.5359 -0.4528
 7926TIP3    H223743   2.263   3.190   5.046  0.3646  1.1728  0.6550
 7927TIP3   OH223744   0.546   2.131   0.501 -0.5801 -0.0226 -0.0614
 7927TIP3    H123745   0.612   2.193   0.468  0.2580 -0.2134  1.1899
 7927TIP3    H223746   0.463   2.175   0.485 -0.1111  0.5863 -0.9446
 7928TIP3   OH223747   5.092   5.664   2.331 -0.0780  0.4510  0.5776
 7928TIP3    H123748   5.044   5.643   2.411 -0.2035 -0.0566  0.3767
 7928TIP3    H223749   5.025   5.663   2.263 -0.8344  5.0013  0.9484
 7929TIP3   OH223750   2.875   1.974   0.467 -0.1382 -0.5787  0.1978
 7929TIP3    H123751   2.954   2.001   0.422  0.7310 -1.6710  1.0227
 7929TIP3    H223752   2.808   2.037   0.439  1.1042  0.6002 -0.1830
 7930TIP3   OH223753   1.156   4.188   1.040 -0.4335  0.0791 -0.0717
 7930TIP3    H123754   1.090   4.258   1.037 -0.2654  0.2732  0.5393
 7930TIP3    H223755   1.120   4.119   0.985  0.2842  1.3746 -2.2761
 7931TIP3   OH223756   4.051   2.138   2.443 -0.5473  0.6927 -0.4559
 7931TIP3    H123757   4.043   2.224   2.483  0.9210  0.2885  0.8000
 7931TIP3    H223758   4.127   2.146   2.385 -1.1168  0.5538 -1.2396
 7932TIP3   OH223759   6.598   1.062   4.121 -0.2953  0.3248  0.0572
 7932TIP3    H123760   6.583   1.156   4.111  1.4692  0.5126 -1.5412
 7932TIP3    H223761   6.517   1.020   4.091 -0.9808  1.3119  0.4913
 7933TIP3   OH223762   4.888   0.096   3.489  0.2867 -0.2047  0.8971
 7933TIP3    H123763   4.925   0.157   3.553  1.6875  0.0663 -0.1252
 7933TIP3    H223764   4.916   0.010   3.519 -0.0706 -0.1789  1.3019
 7934TIP3   OH223765   3.081   0.415   1.529  0.1349 -0.0081 -0.0824
 7934TIP3    H123766   3.090   0.370   1.445 -0.1109 -0.9876  0.3998
 7934TIP3    H223767   3.053   0.504   1.506  0.4907 -0.1295 -1.0491
 7935TIP3   OH223768   3.312   0.181   1.496  1.0328  0.3576  0.3479
 7935TIP3    H123769   3.258   0.131   1.556  0.1548  1.2612  0.3485
 7935TIP3    H223770   3.365   0.238   1.552  2.4612 -0.9199  0.3786
 7936TIP3   OH223771   5.381   1.447   4.673 -0.0399 -0.3784 -0.0297
 7936TIP3    H123772   5.453   1.504   4.701 -0.3596 -0.6116  1.3659
 7936TIP3    H223773   5.415   1.359   4.686 -0.2179 -0.4988 -0.3744
 7937TIP3   OH223774   6.404   0.966   2.199 -0.1340 -0.4246 -0.2128
 7937TIP3    H123775   6.458   0.994   2.125 -2.2622 -0.4909 -1.8927
 7937TIP3    H223776   6.326   0.927   2.159 -1.5421 -0.1619  2.0730
 7938TIP3   OH223777   3.265   5.920   2.658  0.0507 -0.4293  0.2183
 7938TIP3    H123778   3.272   5.861   2.733  0.4830 -2.6785 -1.4895
 7938TIP3    H223779   3.269   6.008   2.696  0.5926 -1.4802  2.7808
 7939TIP3   OH223780   7.235   4.448   2.140 -0.4747  0.2110 -0.1626
 7939TIP3    H123781   7.154   4.409   2.109 -1.3056  1.6721  0.0895
 7939TIP3    H223782   7.208   4.526   2.189  1.0803  0.8724 -0.2793
 7940TIP3   OH223783   6.411   5.465   1.702  0.5024  0.2348  0.3676
 7940TIP3    H123784   6.415   5.436   1.611  3.2338 -0.2845  0.5625
 7940TIP3    H223785   6.367   5.394   1.749 -1.4065  0.7369 -0.5691
 7941TIP3   OH223786   1.773   1.443   1.823 -0.4858 -0.6637  0.3908
 7941TIP3    H123787   1.855   1.396   1.806  0.4227  0.4037  1.6449
 7941TIP3    H223788   1.704   1.383   1.793  0.7373 -1.6609 -0.5024
 7942TIP3   OH223789   0.559   2.924   0.579 -0.5694  0.2574 -0.0756
 7942TIP3    H123790   0.489   2.864   0.549 -0.1261 -0.5524  0.4737
 7942TIP3    H223791   0.631   2.866   0.602 -0.4339  0.9425  1.3264
 7943TIP3   OH223792   5.690   4.303   5.602 -0.3720  0.4254  0.2756
 7943TIP3    H123793   5.687   4.397   5.620 -0.7162  0.1084  2.0042
 7943TIP3    H223794   5.606   4.270   5.632 -0.0551 -0.5243  0.1401
 7944TIP3   OH223795   3.971   0.381   3.445 -0.2617  0.0615 -0.1373
 7944TIP3    H123796   3.979   0.290   3.417  0.5890  0.0605  0.0710
 7944TIP3    H223797   3.954   0.430   3.365  0.3925 -0.1531 -0.4197
 7945TIP3   OH223798   1.604   0.567   1.792 -0.4685 -0.0701 -0.4916
 7945TIP3    H123799   1.689   0.609   1.804 -1.5516  2.7112 -1.7935
 7945TIP3    H223800   1.553   0.629   1.740 -3.0557 -1.9864 -0.4540
 7946TIP3   OH223801   0.638  -0.003   5.416 -0.0198  0.3288 -0.3844
 7946TIP3    H123802   0.589   0.079   5.407  0.6251  0.6840 -0.7597
 7946TIP3    H223803   0.711   0.006   5.355  0.1412 -0.4691 -0.3194
 7947TIP3   OH223804   0.277   1.256   2.233 -0.2723  0.4183  0.0213
 7947TIP3    H123805   0.321   1.187   2.182 -3.3034 -0.2669 -1.8816
 7947TIP3    H223806   0.293   1.336   2.183  0.9175  0.6793  0.7621
 7948TIP3   OH223807   4.922   2.844   4.852 -0.1754 -0.3653  0.5644
 7948TIP3    H123808   4.975   2.768   4.826 -1.6359 -1.0793 -0.4235
 7948TIP3    H223809   4.845   2.840   4.796 -1.1104  0.8784  1.7091
 7949TIP3   OH223810   2.111   2.908   2.538 -0.8500 -0.5060 -0.1869
 7949TIP3    H123811   2.135   2.968   2.467 -1.0024  1.4089  1.2714
 7949TIP3    H223812   2.186   2.851   2.549 -0.0878  0.3680 -0.7312
 7950TIP3   OH223813   0.324   6.085   3.003 -0.0772  0.4499  0.2414
 7950TIP3    H123814   0.241   6.073   2.956  0.0963 -0.7225  0.1945
 7950TIP3    H223815   0.298   6.108   3.092 -0.4777 -0.2981  0.3296
 7951TIP3   OH223816   6.394   4.236   0.258 -0.7594  0.2473  0.0842
 7951TIP3    H123817   6.308   4.204   0.230  0.2117  0.2351 -3.3193
 7951TIP3    H223818   6.384   4.331   0.264 -1.3764  0.1276  1.4147
 7952TIP3   OH223819   6.398   0.547   5.586  0.9364  0.4018 -0.1405
 7952TIP3    H123820   6.404   0.583   5.674 -0.4299 -1.2887  0.7249
 7952TIP3    H223821   6.470   0.587   5.538  2.2106  0.7665  1.9566
 7953TIP3   OH223822   5.980   1.540   1.128  0.0966  0.4798  0.0203
 7953TIP3    H123823   6.003   1.510   1.216 -0.1578 -3.6702 -1.1193
 7953TIP3    H223824   6.063   1.541   1.080  0.0823  1.7197 -0.0218
 7954TIP3   OH223825   2.981   5.147   3.576  0.3104 -0.3395  0.2030
 7954TIP3    H123826   2.887   5.158   3.557  0.4628  0.9125  0.0775
 7954TIP3    H223827   3.025   5.197   3.507  0.9468  2.6141  2.5713
 7955TIP3   OH223828   5.552   3.713   3.467 -0.4376 -0.1028 -0.2198
 7955TIP3    H123829   5.642   3.683   3.485 -0.4116  0.6489  1.0266
 7955TIP3    H223830   5.503   3.632   3.453  0.2693 -0.5695 -0.0754
 7956TIP3   OH223831   1.613   4.722   3.256 -0.4627  0.3133 -0.9351
 7956TIP3    H123832   1.676   4.741   3.186  1.8157 -2.1629  0.2621
 7956TIP3    H223833   1.634   4.786   3.324 -0.6340  0.7871 -1.3192
 7957TIP3   OH223834   3.532   4.375   4.469  0.0253 -0.0139 -0.3803
 7957TIP3    H123835   3.456   4.360   4.413  0.7432 -0.4864 -1.2517
 7957TIP3    H223836   3.531   4.468   4.487 -2.1059 -0.3451  1.5940
 7958TIP3   OH223837   6.456   4.185   0.783  0.1237  0.7299  0.0814
 7958TIP3    H123838   6.397   4.131   0.835  1.1376  0.5841  1.1333
 7958TIP3    H223839   6.441   4.274   0.815 -0.1197  0.8019 -0.2349
 7959TIP3   OH223840   5.129   6.419   3.735  0.3538 -0.2797  0.7386
 7959TIP3    H123841   5.186   6.382   3.803  0.0590 -0.4760  0.8828
 7959TIP3    H223842   5.161   6.508   3.723 -0.5192  0.2833  2.2221
 7960TIP3   OH223843   4.407   5.477   0.206 -0.6498  0.0972  0.6424
 7960TIP3    H123844   4.359   5.437   0.134  0.8915  0.9301 -0.9388
 7960TIP3    H223845   4.369   5.564   0.216 -0.2178  0.3492  0.1385
 7961TIP3   OH223846   6.239   6.802   4.680  0.0922 -0.1486 -0.2288
 7961TIP3    H123847   6.225   6.709   4.696 -0.5566  0.0723  0.5179
 7961TIP3    H223848   6.190   6.820   4.599 -0.4550 -0.2855  0.0678
 7962TIP3   OH223849   0.086   0.376   1.619  0.1696  0.3753 -0.2238
 7962TIP3    H123850   0.055   0.287   1.636  0.6511  0.4770  1.3288
 7962TIP3    H223851   0.049   0.428   1.690  0.4746  1.2851 -0.7148
 7963TIP3   OH223852   2.099   3.958   1.226  0.6003 -0.0462  0.5110
 7963TIP3    H123853   2.118   4.031   1.167  0.6879 -0.2418  0.2968
 7963TIP3    H223854   2.185   3.918   1.242  0.7432  0.6618  1.6368
 7964TIP3   OH223855   0.281   0.309   3.777 -0.4187  0.4289  0.3327
 7964TIP3    H123856   0.357   0.260   3.747 -0.2972  0.6525  0.2716
 7964TIP3    H223857   0.291   0.314   3.872 -1.1845 -0.9129  0.5030
 7965TIP3   OH223858   2.520   0.432   3.388  0.4678 -0.3146 -0.1258
 7965TIP3    H123859   2.578   0.381   3.333 -0.0298 -0.6162 -0.3829
 7965TIP3    H223860   2.544   0.523   3.371  1.0920 -0.4481  0.0364
 7966TIP3   OH223861   4.989   3.291   1.842  0.3756  0.3407 -0.0712
 7966TIP3    H123862   5.003   3.292   1.936  2.1202  1.5855 -0.2965
 7966TIP3    H223863   4.899   3.260   1.831  0.3414 -0.3871  1.9554
 7967TIP3   OH223864   1.739   6.170   5.150  0.2062 -0.3462  0.1918
 7967TIP3    H123865   1.698   6.153   5.066  0.1413 -0.0366  0.1601
 7967TIP3    H223866   1.810   6.231   5.130 -1.6461  2.1497  0.7583
 7968TIP3   OH223867   3.388   0.798   4.595  0.5288  0.0838 -0.2425
 7968TIP3    H123868   3.355   0.848   4.520  1.3381  2.7393  1.0172
 7968TIP3    H223869   3.480   0.823   4.602  0.8371 -1.2349  0.7895
 7969TIP3   OH223870   2.638   0.518   3.118  0.3304  0.2786 -0.4601
 7969TIP3    H123871   2.621   0.601   3.163 -1.1906  0.0499 -0.5528
 7969TIP3    H223872   2.555   0.497   3.076  1.2078 -0.4013 -1.9217
 7970TIP3   OH223873   0.221   3.197   3.994 -0.7813 -0.0648 -1.0930
 7970TIP3    H123874   0.251   3.287   3.977 -0.6016  0.1141  0.0855
 7970TIP3    H223875   0.300   3.144   3.990 -0.4878  0.1972  0.5797
 7971TIP3   OH223876   2.423   1.621   0.206 -1.0034  0.2952 -0.3998
 7971TIP3    H123877   2.398   1.543   0.156  2.6319 -0.8351 -0.7827
 7971TIP3    H223878   2.422   1.592   0.297 -0.1075 -0.0874 -0.5037
 7972TIP3   OH223879   3.658   4.143   3.801 -0.1284 -0.0971  0.1997
 7972TIP3    H123880   3.568   4.165   3.825  0.5876  1.8684  1.2560
 7972TIP3    H223881   3.695   4.224   3.766  1.6362 -0.5000  1.0042
 7973TIP3   OH223882   1.597   2.425   2.279  0.2397 -0.2640 -0.2885
 7973TIP3    H123883   1.567   2.362   2.345  0.8115  0.3993  0.6337
 7973TIP3    H223884   1.622   2.371   2.204  1.1855 -1.2037  0.6504
 7974TIP3   OH223885   1.669   1.418   0.191 -0.0770 -0.4007  0.0336
 7974TIP3    H123886   1.617   1.422   0.271  0.6243 -1.1054  0.5498
 7974TIP3    H223887   1.649   1.332   0.154  0.5635 -0.6136  0.1541
 7975TIP3   OH223888   6.683   2.492   4.924 -0.0100  0.5196  0.0894
 7975TIP3    H123889   6.700   2.403   4.955 -1.9490 -0.0995 -0.4837
 7975TIP3    H223890   6.681   2.546   5.003 -0.5309 -0.2521  0.6105
 7976TIP3   OH223891   1.206   0.802   5.382  0.2024  0.3648  0.0107
 7976TIP3    H123892   1.159   0.743   5.322  1.1039  0.0411 -0.3956
 7976TIP3    H223893   1.142   0.869   5.404 -0.4257 -0.0130 -0.6041
 7977TIP3   OH223894   3.970   0.356   0.903 -0.1685  0.0521  0.0554
 7977TIP3    H123895   3.937   0.387   0.819 -0.2252 -0.9431 -0.3016
 7977TIP3    H223896   4.063   0.337   0.887  0.2474  1.4364  0.6682
 7978TIP3   OH223897   0.441   0.311   1.496 -0.5119  1.0632  0.2365
 7978TIP3    H123898   0.488   0.344   1.573  0.8918  2.0344 -0.9729
 7978TIP3    H223899   0.416   0.390   1.448  0.5081  0.4837 -1.3401
 7979TIP3   OH223900   3.893  -0.032   5.732  0.0256 -0.3847 -0.2786
 7979TIP3    H123901   3.844   0.050   5.725  0.2122 -0.3789 -2.0785
 7979TIP3    H223902   3.983  -0.008   5.712  0.6166 -0.5915  1.8958
 7980TIP3   OH223903   2.700   2.944   5.715 -0.3987  0.0253  0.3145
 7980TIP3    H123904   2.648   2.893   5.776 -1.5911 -0.8037 -1.3077
 7980TIP3    H223905   2.739   2.880   5.656 -2.2178  0.8542 -1.9982
 7981TIP3   OH223906   2.160   0.946   0.184 -0.1425  0.8041  0.4894
 7981TIP3    H123907   2.247   0.984   0.188  0.9662 -1.5277  0.0595
 7981TIP3    H223908   2.138   0.924   0.274  0.3826  0.0372  0.4391
 7982TIP3   OH223909   4.747   3.654   3.777 -0.7628  0.5041 -0.3628
 7982TIP3    H123910   4.678   3.689   3.721 -2.0873  0.8210  1.3955
 7982TIP3    H223911   4.822   3.712   3.763 -1.4933  1.3598 -0.7946
 7983TIP3   OH223912   1.870   0.990   2.432 -0.7074 -0.4071 -1.0008
 7983TIP3    H123913   1.782   1.027   2.431 -0.1624  1.1206 -3.5482
 7983TIP3    H223914   1.920   1.047   2.490 -1.2290 -0.9573  0.0216
 7984TIP3   OH223915   3.719   3.576   4.178  0.1047  0.3220  0.0835
 7984TIP3    H123916   3.813   3.588   4.186 -0.3014  2.7494  2.6281
 7984TIP3    H223917   3.693   3.533   4.260 -1.0641  0.0149 -0.4178
 7985TIP3   OH223918   1.055   5.368   0.487  0.1974  0.3494  0.2053
 7985TIP3    H123919   1.055   5.434   0.555 -0.3983  0.2593  0.2951
 7985TIP3    H223920   1.015   5.411   0.411 -0.1871  0.0983  0.2625
 7986TIP3   OH223921   0.126   3.929   3.288  0.0390  0.3081 -0.2103
 7986TIP3    H123922   0.181   3.935   3.367 -1.8231 -1.1146  1.2821
 7986TIP3    H223923   0.052   3.986   3.306 -1.1536 -1.1778 -0.2495
 7987TIP3   OH223924   4.920   2.791   1.662  0.3834 -0.2306  0.9937
 7987TIP3    H123925   4.921   2.801   1.757 -1.6572  0.0267  1.0518
 7987TIP3    H223926   4.924   2.697   1.647  1.5594 -0.2350  1.2799
 7988TIP3   OH223927   5.932   5.651   1.067 -0.6049 -0.1392 -0.2663
 7988TIP3    H123928   5.883   5.715   1.119 -0.1832 -0.3503  0.4014
 7988TIP3    H223929   6.009   5.699   1.037 -1.1215  0.1427 -1.1740
 7989TIP3   OH223930   4.889   5.879   0.595 -0.3575  0.7125  0.0587
 7989TIP3    H123931   4.893   5.970   0.623  1.0336  0.7647 -0.2021
 7989TIP3    H223932   4.806   5.846   0.629 -0.3861  1.7789  1.0639
 7990TIP3   OH223933   6.215   2.483   4.471 -0.1918 -0.1199  0.4899
 7990TIP3    H123934   6.291   2.424   4.473  2.5292  3.0949  1.3022
 7990TIP3    H223935   6.188   2.489   4.563 -0.1404  0.2421  0.4830
 7991TIP3   OH223936   3.740   2.601   1.245 -0.4307  0.0340  0.4831
 7991TIP3    H123937   3.803   2.538   1.280 -0.2040  0.1209  0.2360
 7991TIP3    H223938   3.791   2.654   1.184 -1.2430 -1.3724 -1.4989
 7992TIP3   OH223939   6.711   4.290   5.294  0.1981  0.2368  0.5864
 7992TIP3    H123940   6.716   4.200   5.328  0.6755  0.0456  0.0146
 7992TIP3    H223941   6.632   4.290   5.240  1.3192 -0.4378 -1.1135
 7993TIP3   OH223942   2.703   2.820   5.353 -0.1947 -0.3973  0.1688
 7993TIP3    H123943   2.764   2.892   5.371  0.3550 -1.0325  0.8733
 7993TIP3    H223944   2.759   2.745   5.334 -0.7315 -1.2072  1.6684
 7994TIP3   OH223945   4.096   0.338   1.978 -0.1186 -0.1386 -0.0250
 7994TIP3    H123946   4.085   0.323   1.884  1.5078 -0.6633 -0.1597
 7994TIP3    H223947   4.123   0.253   2.013 -0.1423  0.1937  0.8295
 7995TIP3   OH223948   2.359   5.143   0.165  0.4883 -0.2474  0.3167
 7995TIP3    H123949   2.357   5.047   0.165 -1.9412 -0.2668  1.5235
 7995TIP3    H223950   2.439   5.166   0.213  1.2075 -1.6365 -0.1565
 7996TIP3   OH223951   6.088   6.726   3.323 -0.0412  0.4037 -0.2613
 7996TIP3    H123952   6.036   6.734   3.243 -0.7395  0.4892  0.1948
 7996TIP3    H223953   6.045   6.785   3.386  1.1934  1.2444 -0.1722
 7997TIP3   OH223954   6.621   4.088   1.573 -0.8622  0.3859  0.1610
 7997TIP3    H123955   6.643   4.181   1.578  0.7009  0.4148 -3.7261
 7997TIP3    H223956   6.679   4.047   1.638  0.0614  1.9325  0.3669
 7998TIP3   OH223957   4.020   0.205   1.751  0.0745  0.4689  0.0420
 7998TIP3    H123958   4.032   0.172   1.662 -0.1215 -0.3042  0.2940
 7998TIP3    H223959   3.925   0.203   1.764  0.2045 -1.3972  0.9835
 7999TIP3   OH223960   0.792   0.342   5.757  0.2370 -0.0628 -0.4735
 7999TIP3    H123961   0.855   0.409   5.729  0.6493 -0.5749 -0.7920
 7999TIP3    H223962   0.749   0.380   5.833  0.3524  0.6310 -0.7471
 8000TIP3   OH223963   2.097   6.261   5.642 -0.5885 -0.0961  0.1278
 8000TIP3    H123964   2.158   6.331   5.619  0.9464 -1.1027  0.9476
 8000TIP3    H223965   2.138   6.181   5.608 -0.4092 -1.0517  2.4030
 8001TIP3   OH223966   0.134   0.619   0.086 -0.4176  0.0976 -0.1946
 8001TIP3    H123967   0.103   0.650   0.001  0.5195 -0.4610 -0.7640
 8001TIP3    H223968   0.225   0.592   0.069  0.2533  1.2852  1.2927
 8002TIP3   OH223969   0.463   3.416   5.112  0.0961 -0.0795 -0.2483
 8002TIP3    H123970   0.493   3.463   5.190 -0.9043  1.0758 -0.5404
 8002TIP3    H223971   0.521   3.339   5.108  1.7901  1.0961  0.2411
 8003TIP3   OH223972   1.320   2.501   1.175  0.0646 -0.1513 -0.1609
 8003TIP3    H123973   1.381   2.462   1.238 -0.5077  0.7818  1.0249
 8003TIP3    H223974   1.245   2.442   1.174  0.9405 -1.3168 -1.6429
 8004TIP3   OH223975   1.449   0.188   0.651 -0.2821  0.1599  0.3372
 8004TIP3    H123976   1.421   0.099   0.672  1.0846 -0.1632  0.9296
 8004TIP3    H223977   1.419   0.202   0.561 -0.4643 -0.9307  0.2142
 8005TIP3   OH223978   4.636   0.098   4.982 -0.1160  0.1365  0.4957
 8005TIP3    H123979   4.554   0.084   4.934 -2.0363  1.8230  2.9612
 8005TIP3    H223980   4.699   0.125   4.916 -2.0995  0.6577 -1.2997
 8006TIP3   OH223981   2.649   0.507   5.540  0.3357  0.0237 -0.0203
 8006TIP3    H123982   2.638   0.598   5.512  1.7664  0.5225  0.9304
 8006TIP3    H223983   2.744   0.495   5.547  0.4332 -2.5268 -3.2045
 8007TIP3   OH223984   3.583   2.062   1.477 -0.2818 -0.3906  0.0249
 8007TIP3    H123985   3.619   2.111   1.403  1.0836 -2.7178 -0.9824
 8007TIP3    H223986   3.514   2.008   1.439  0.0279 -1.1658  0.5318
 8008TIP3   OH223987   1.478   3.917   1.877  0.4512 -0.2631  0.5597
 8008TIP3    H123988   1.533   3.961   1.941  0.4647  1.8329 -0.7832
 8008TIP3    H223989   1.487   3.969   1.798 -2.0910 -0.8390 -0.2176
 8009TIP3   OH223990   2.419   0.750   1.331  0.1441  0.0584  0.0544
 8009TIP3    H123991   2.491   0.759   1.393 -0.6276 -0.9400  1.1468
 8009TIP3    H223992   2.359   0.821   1.353  1.2629  1.5762 -1.5827
 8010TIP3   OH223993   6.148   5.300   3.686  0.5537 -0.5118 -0.1893
 8010TIP3    H123994   6.227   5.322   3.736  0.4220 -1.2768  0.3758
 8010TIP3    H223995   6.112   5.385   3.660  1.9269 -0.1535 -1.0698
 8011TIP3   OH223996   1.652   1.676   1.738 -0.1231  0.1115 -0.0059
 8011TIP3    H123997   1.679   1.586   1.756 -0.4759  0.0253  0.0816
 8011TIP3    H223998   1.723   1.711   1.683  0.4241  0.0402  0.6348
 8012TIP3   OH223999   2.741   3.150   4.208  0.3340 -0.1711 -0.2354
 8012TIP3    H124000   2.664   3.166   4.153 -0.9210 -0.3454  1.4104
 8012TIP3    H224001   2.806   3.113   4.148 -0.5920  0.6542 -1.8164
 8013TIP3   OH224002   0.079   0.787   2.225 -0.4839  0.8140  0.4272
 8013TIP3    H124003   0.000   0.734   2.236  1.1579 -1.9463 -0.1893
 8013TIP3    H224004   0.060   0.844   2.151 -1.4863 -0.6773 -0.5007
 8014TIP3   OH224005   3.837   6.385   2.762 -0.3252  0.0593  0.2577
 8014TIP3    H124006   3.842   6.291   2.743  0.1328  0.1753 -0.1986
 8014TIP3    H224007   3.748   6.398   2.795 -0.2120 -0.6296  0.8436
 8015TIP3   OH224008   7.122   1.264   0.737 -0.0454  0.1598 -0.1227
 8015TIP3    H124009   7.152   1.251   0.827  2.0220  1.0355 -0.6329
 8015TIP3    H224010   7.118   1.176   0.700  1.2872 -0.0619  0.1910
 8016TIP3   OH224011   1.497   4.118   2.443 -0.1396 -0.1383 -0.2582
 8016TIP3    H124012   1.546   4.157   2.371 -0.1136 -0.6895 -0.5466
 8016TIP3    H224013   1.448   4.191   2.481 -0.6769  0.0336 -1.2611
 8017TIP3   OH224014   5.166   1.571   3.580  0.1779 -0.4498  0.4807
 8017TIP3    H124015   5.116   1.534   3.653  0.0827  0.8454  1.1123
 8017TIP3    H224016   5.104   1.626   3.533  0.9163  1.0726  1.1987
 8018TIP3   OH224017   4.888   3.915   2.505  0.5552  0.1723  0.0596
 8018TIP3    H124018   4.811   3.900   2.559  0.2770 -0.1656 -0.4228
 8018TIP3    H224019   4.858   3.901   2.415  0.7219  1.9059 -0.2872
 8019TIP3   OH224020   2.182   1.130   4.650 -0.5639 -0.1186  0.0381
 8019TIP3    H124021   2.275   1.146   4.632 -0.2707 -3.1895 -2.1026
 8019TIP3    H224022   2.136   1.175   4.579 -0.3557 -1.5885 -1.0858
 8020TIP3   OH224023   6.004   1.836   3.598 -0.2191 -0.5632 -0.4101
 8020TIP3    H124024   5.911   1.843   3.621 -0.1041  0.9686 -0.2540
 8020TIP3    H224025   6.036   1.762   3.649 -1.4326 -1.3905 -0.7875
 8021TIP3   OH224026   1.875   0.185   2.982  0.0029 -0.5216  0.1508
 8021TIP3    H124027   1.796   0.183   2.928  0.1566  0.1418 -0.1074
 8021TIP3    H224028   1.856   0.124   3.053 -1.1244  0.2850  0.5895
 8022TIP3   OH224029   0.592   1.839   0.805 -0.4740 -0.3813 -0.4213
 8022TIP3    H124030   0.587   1.836   0.710 -1.0960 -0.0529 -0.4041
 8022TIP3    H224031   0.685   1.827   0.825 -0.5567 -2.1654 -0.9936
 8023TIP3   OH224032   2.165   0.730   4.785 -0.1792 -0.6683  0.0283
 8023TIP3    H124033   2.253   0.770   4.780 -0.4118  0.0351  1.2419
 8023TIP3    H224034   2.171   0.653   4.729  1.8471 -1.7875  1.6682
 8024TIP3   OH224035   5.963   0.356   3.165 -0.3036 -0.3926  0.7147
 8024TIP3    H124036   6.035   0.334   3.224  0.8374  0.0545 -0.4629
 8024TIP3    H224037   5.984   0.444   3.133 -1.2498 -0.3552  0.1574
 8025TIP3   OH224038   5.237   3.801   4.623  0.9827  0.1682 -0.4777
 8025TIP3    H124039   5.199   3.716   4.647  2.1653 -0.0470  0.7146
 8025TIP3    H224040   5.288   3.782   4.544  1.4508 -0.3127 -0.0756
 8026TIP3   OH224041   2.854   5.626   1.433 -0.0772 -0.1031  0.4437
 8026TIP3    H124042   2.769   5.585   1.447 -0.3536  0.4857  0.5482
 8026TIP3    H224043   2.900   5.615   1.516 -0.5864  0.7830  0.8661
 8027TIP3   OH224044   1.777   0.816   0.194 -0.3771  0.5041  0.3116
 8027TIP3    H124045   1.791   0.729   0.156 -1.4113 -0.0610  1.1788
 8027TIP3    H224046   1.837   0.873   0.145  0.3389 -0.6884 -0.2532
 8028TIP3   OH224047   3.529   0.810   3.533  0.2468 -0.1106  0.1083
 8028TIP3    H124048   3.439   0.812   3.566  0.1927 -0.0592 -0.0395
 8028TIP3    H224049   3.576   0.754   3.595 -0.2573 -1.4940 -0.7078
 8029TIP3   OH224050   4.739   0.541   2.139 -0.6077  0.3872  0.6530
 8029TIP3    H124051   4.774   0.630   2.128  0.3032  0.2269  1.9939
 8029TIP3    H224052   4.806   0.484   2.102 -1.5619  0.2649 -0.9633
 8030TIP3   OH224053   2.055   6.446   2.776 -0.1917 -0.5224 -0.3180
 8030TIP3    H124054   1.989   6.391   2.817  0.1840 -0.4953  0.3378
 8030TIP3    H224055   2.056   6.417   2.684 -1.7776  0.1358 -0.5733
 8031TIP3   OH224056   3.707   0.632   0.673 -0.1311 -0.0800 -0.1015
 8031TIP3    H124057   3.643   0.684   0.721 -0.7100  0.3486 -1.3019
 8031TIP3    H224058   3.743   0.691   0.607  0.9156 -0.5504  0.0152
 8032TIP3   OH224059   2.244   0.926   0.944 -0.2409 -0.5870 -0.6455
 8032TIP3    H124060   2.224   0.847   0.893  0.6231 -1.6487  0.5918
 8032TIP3    H224061   2.291   0.983   0.883 -0.2162 -1.3484 -1.3605
 8033TIP3   OH224062   6.168   1.289   3.640 -0.1041 -0.1514 -0.2355
 8033TIP3    H124063   6.214   1.343   3.703  0.8639  0.4370 -1.4015
 8033TIP3    H224064   6.198   1.200   3.657 -0.6026 -0.1399  0.7516
 8034TIP3   OH224065   3.350   2.324   2.748  0.3649 -0.0236 -0.5732
 8034TIP3    H124066   3.404   2.403   2.752  1.0537 -0.5276  1.4956
 8034TIP3    H224067   3.302   2.324   2.831  0.7857 -2.0123 -0.2639
 8035TIP3   OH224068   4.089   1.763   1.672  0.1629 -0.5135  0.5267
 8035TIP3    H124069   4.097   1.762   1.577 -2.2401  0.5968  0.2457
 8035TIP3    H224070   4.077   1.855   1.695 -3.1867 -1.0482  1.4183
 8036TIP3   OH224071   4.277   4.622   2.014 -0.6105 -0.3977 -0.2963
 8036TIP3    H124072   4.288   4.617   2.109 -0.0793  0.7568 -0.2876
 8036TIP3    H224073   4.365   4.641   1.981 -1.1952  1.6063 -0.8241
 8037TIP3   OH224074   7.030   5.550   3.272  0.1620  0.5551 -0.2525
 8037TIP3    H124075   7.092   5.520   3.205 -0.5415  1.5401 -1.3828
 8037TIP3    H224076   6.944   5.537   3.232 -0.3701 -0.4919  1.1705
 8038TIP3   OH224077   5.374   4.020   1.010  0.3032 -0.5408 -0.2882
 8038TIP3    H124078   5.293   3.994   1.054  1.1271 -1.1658  0.9185
 8038TIP3    H224079   5.355   4.007   0.917 -0.7314 -1.4339  0.0185
 8039TIP3   OH224080   0.811   4.005   0.142  0.1710 -0.2430  0.0726
 8039TIP3    H124081   0.878   4.040   0.200  0.0096 -0.7657  0.5826
 8039TIP3    H224082   0.729   4.039   0.177  0.1673  0.4537 -0.5934
 8040TIP3   OH224083   2.300   3.529   2.364  0.0439 -0.1119 -0.0998
 8040TIP3    H124084   2.288   3.504   2.273  1.1038 -1.3105  0.0667
 8040TIP3    H224085   2.215   3.512   2.405 -0.3535  0.1657 -0.7997
 8041TIP3   OH224086   5.944   1.665   1.876 -0.4603  0.5352  0.0122
 8041TIP3    H124087   6.034   1.689   1.854  0.2415 -1.8133 -0.0051
 8041TIP3    H224088   5.944   1.654   1.971 -0.9919  1.3927  0.1237
 8042TIP3   OH224089   2.445   3.600   4.119 -0.5028 -0.5931 -0.0273
 8042TIP3    H124090   2.455   3.660   4.046 -2.2596  0.3483  0.4432
 8042TIP3    H224091   2.534   3.568   4.137  0.1860  0.4142 -1.4861
 8043TIP3   OH224092   1.709   6.293   1.383  0.0025 -0.2086 -0.5579
 8043TIP3    H124093   1.648   6.227   1.417  1.3890 -0.9796  0.5217
 8043TIP3    H224094   1.763   6.316   1.458  2.2841 -0.9498 -1.8678
 8044TIP3   OH224095   1.296   5.845   5.683  0.0374 -0.0066 -0.1471
 8044TIP3    H124096   1.252   5.857   5.599 -0.4065  2.8120  0.3834
 8044TIP3    H224097   1.240   5.785   5.732 -1.4886  0.9058 -0.7158
 8045TIP3   OH224098   4.558   6.114   4.113 -0.3977  0.5025  0.2845
 8045TIP3    H124099   4.647   6.149   4.117  0.3832 -1.4195  1.4554
 8045TIP3    H224100   4.532   6.106   4.205 -0.7319 -1.3325  0.0725
 8046TIP3   OH224101   3.876   2.843   3.094 -0.1085 -0.5870  0.0026
 8046TIP3    H124102   3.840   2.834   3.006 -2.0506  3.0356  0.2430
 8046TIP3    H224103   3.874   2.937   3.111  0.3174 -1.1308  3.8928
 8047TIP3   OH224104   6.587   1.609   5.855  0.1217 -0.3702 -0.5144
 8047TIP3    H124105   6.673   1.624   5.896  0.3167  0.0042 -1.0516
 8047TIP3    H224106   6.602   1.627   5.762 -0.2712 -1.3968 -0.7809
 8048TIP3   OH224107   3.278   5.748   0.213  0.5399 -0.0683 -0.0352
 8048TIP3    H124108   3.236   5.694   0.146  2.3953 -1.4842 -0.1368
 8048TIP3    H224109   3.233   5.723   0.294 -1.8824  1.8236 -0.6673
 8049TIP3   OH224110   0.578   1.647   2.563  0.1134 -0.9642  0.0438
 8049TIP3    H124111   0.493   1.605   2.550 -0.3226 -0.0610 -0.0774
 8049TIP3    H224112   0.557   1.739   2.576  1.1833 -0.4684 -1.5094
 8050TIP3   OH224113   4.861   4.472   1.428  0.1228  0.4705  0.3271
 8050TIP3    H124114   4.883   4.393   1.476  1.3026 -0.2780 -1.3280
 8050TIP3    H224115   4.830   4.534   1.494  0.3959 -0.9363  1.8129
 8051TIP3   OH224116   3.764   0.551   4.494  0.0322  0.0561  0.6081
 8051TIP3    H124117   3.724   0.542   4.581  1.9090 -0.7572  1.4424
 8051TIP3    H224118   3.752   0.465   4.453 -3.8353  1.3059 -1.4349
 8052TIP3   OH224119   3.258   1.431   0.523  0.3738  0.1929 -0.0702
 8052TIP3    H124120   3.271   1.487   0.599 -0.0495 -0.6296  0.6198
 8052TIP3    H224121   3.163   1.429   0.511  0.3229 -0.9130  0.3454
 8053TIP3   OH224122   6.536   4.595   5.239 -0.9769 -0.3179 -0.2173
 8053TIP3    H124123   6.517   4.577   5.331  1.6405 -0.2307  0.4236
 8053TIP3    H224124   6.526   4.690   5.231 -4.1373 -0.6146 -0.8563
 8054TIP3   OH224125   2.293   4.759   2.055 -0.3401  0.0315 -0.3299
 8054TIP3    H124126   2.300   4.853   2.041 -0.7468  0.0461 -0.4460
 8054TIP3    H224127   2.199   4.740   2.048 -0.3367 -0.2769  0.3400
 8055TIP3   OH224128   2.814   5.338   0.304  0.0801 -0.1603  0.2115
 8055TIP3    H124129   2.814   5.338   0.399 -0.5020 -1.3809  0.2318
 8055TIP3    H224130   2.878   5.271   0.279  1.2382  1.0917 -0.2937
 8056TIP3   OH224131   6.278   0.171   4.041 -0.0948 -0.3433  0.8318
 8056TIP3    H124132   6.362   0.150   4.083  0.3059 -0.3055  0.0692
 8056TIP3    H224133   6.278   0.266   4.035 -0.4002 -0.3149  1.2369
 8057TIP3   OH224134   6.093   1.455   1.360 -0.6295  0.5410 -0.2375
 8057TIP3    H124135   6.183   1.432   1.382 -1.5352 -1.0226  2.2670
 8057TIP3    H224136   6.066   1.516   1.429 -1.1284  2.0363 -1.6978
 8058TIP3   OH224137   4.132   1.922   5.607  0.2157 -0.9216 -0.3981
 8058TIP3    H124138   4.110   1.907   5.699  0.2841 -2.3087 -0.5793
 8058TIP3    H224139   4.218   1.964   5.610 -0.0274 -0.4432  0.1749
 8059TIP3   OH224140   6.812   0.207   3.658  0.0939  0.1567 -0.6865
 8059TIP3    H124141   6.872   0.226   3.585  0.3584  0.4560 -0.3901
 8059TIP3    H224142   6.744   0.152   3.618 -0.3438  1.1884 -1.4143
 8060TIP3   OH224143   0.625   5.663   2.132  0.2429  0.3121 -0.0950
 8060TIP3    H124144   0.630   5.732   2.198  0.2095 -1.5383  1.9878
 8060TIP3    H224145   0.709   5.668   2.086  1.5921 -0.1223  2.1102
 8061TIP3   OH224146   3.935   0.507   2.473  0.1821 -0.1794 -0.1914
 8061TIP3    H124147   4.018   0.541   2.505  0.1974 -0.8576  0.5370
 8061TIP3    H224148   3.894   0.468   2.550 -0.4808 -0.4991 -0.6925
 8062TIP3   OH224149   3.404   6.618   4.719 -0.2040  0.0491 -0.4081
 8062TIP3    H124150   3.351   6.562   4.663 -0.5152 -1.0742  0.9346
 8062TIP3    H224151   3.340   6.668   4.770  0.0499  0.0501 -0.0875
 8063TIP3   OH224152   3.323   5.201   1.171  0.1995  0.5988 -0.3532
 8063TIP3    H124153   3.264   5.136   1.135  0.1224 -1.5798  3.2367
 8063TIP3    H224154   3.390   5.213   1.104  0.7328 -3.9755 -0.9082
 8064TIP3   OH224155   3.151   6.605   1.818  0.2744  0.8211  0.0453
 8064TIP3    H124156   3.056   6.606   1.806  0.3309 -0.1362 -0.6166
 8064TIP3    H224157   3.169   6.678   1.877 -0.9646  0.5141  0.8373
 8065TIP3   OH224158   3.324   3.799   1.162  0.4120  0.6295  0.1886
 8065TIP3    H124159   3.419   3.791   1.172  0.4114  0.4897  0.0838
 8065TIP3    H224160   3.292   3.709   1.165  0.3818  0.6008 -0.7620
 8066TIP3   OH224161   5.790   2.936   1.860 -0.2251  0.5799  0.0938
 8066TIP3    H124162   5.785   2.851   1.903 -1.9949  0.6268  0.0569
 8066TIP3    H224163   5.814   2.997   1.930  0.4536  0.1586  0.2434
 8067TIP3   OH224164   1.821   2.078   3.818  0.3478 -0.0413 -0.3896
 8067TIP3    H124165   1.904   2.029   3.818  1.0110  1.0487 -1.1997
 8067TIP3    H224166   1.754   2.010   3.825  1.2992 -0.8669  2.7404
 8068TIP3   OH224167   3.055   0.834   0.713  0.1174 -0.6291  0.1568
 8068TIP3    H124168   3.066   0.867   0.802  0.3232 -2.5217  0.8689
 8068TIP3    H224169   2.968   0.793   0.713  0.1380 -0.6868 -0.5116
 8069TIP3   OH224170   1.804   0.558   2.000  0.1167  0.4940 -0.1705
 8069TIP3    H124171   1.832   0.466   2.003 -1.1584  0.0959  0.2535
 8069TIP3    H224172   1.726   0.561   2.055 -0.1345  1.7409 -0.5610
 8070TIP3   OH224173   7.144   0.317   5.255  0.2140 -0.5577  0.2493
 8070TIP3    H124174   7.096   0.244   5.294 -0.3976 -0.5814 -0.5258
 8070TIP3    H224175   7.235   0.287   5.252  0.7317  0.2997  3.6981
 8071TIP3   OH224176   7.137   0.983   3.664 -0.0308  0.0846 -0.7332
 8071TIP3    H124177   7.054   0.968   3.618 -0.1611  0.1148 -0.5126
 8071TIP3    H224178   7.195   1.020   3.597  0.0442 -0.6438 -1.0749
 8072TIP3   OH224179   0.108   6.687   5.783 -0.4300 -0.1539 -0.3327
 8072TIP3    H124180   0.110   6.619   5.716 -0.5616 -1.2238  0.7221
 8072TIP3    H224181   0.037   6.744   5.757  0.5703  0.4084 -1.9947
 8073TIP3   OH224182   2.664   5.410   4.349  0.1983  0.2394 -0.0050
 8073TIP3    H124183   2.707   5.339   4.397  1.0230  0.4654 -0.3777
 8073TIP3    H224184   2.584   5.372   4.314 -0.5756  0.1376  1.7787
 8074TIP3   OH224185   1.731   1.262   2.654  0.7678  0.3597 -0.2176
 8074TIP3    H124186   1.826   1.258   2.660  0.6340 -2.3665  2.3789
 8074TIP3    H224187   1.703   1.171   2.646 -1.6390  1.1764 -3.5077
 8075TIP3   OH224188   0.445   5.207   4.258  0.7292  0.6486 -0.6004
 8075TIP3    H124189   0.389   5.216   4.180  2.0175 -0.4123 -1.6951
 8075TIP3    H224190   0.504   5.281   4.253  0.1961  1.1172 -0.0838
 8076TIP3   OH224191   2.308   0.770   2.254 -0.1062  0.6709 -0.2333
 8076TIP3    H124192   2.301   0.866   2.253  1.6796  0.8411 -0.7042
 8076TIP3    H224193   2.262   0.742   2.175  0.6278  1.2890 -0.9043
 8077TIP3   OH224194   6.118   1.458   5.179  0.9004 -0.1973  0.5715
 8077TIP3    H124195   6.048   1.405   5.140 -0.1792  0.5780  1.3868
 8077TIP3    H224196   6.073   1.536   5.213  2.1250  0.2052  1.3342
 8078TIP3   OH224197   4.528   2.853   3.610 -0.4918  0.0385 -0.1319
 8078TIP3    H124198   4.619   2.850   3.578  0.0322 -2.8659  1.3092
 8078TIP3    H224199   4.476   2.820   3.536 -0.4428  1.7923 -0.9923
 8079TIP3   OH224200   6.118   4.340   2.422 -0.0660  0.0051  0.0491
 8079TIP3    H124201   6.129   4.426   2.382 -1.4450  0.4065  0.4822
 8079TIP3    H224202   6.118   4.358   2.516  0.5000 -0.5920  0.1707
 8080TIP3   OH224203   0.927   6.651   0.105  0.0634 -0.0147  0.3318
 8080TIP3    H124204   0.895   6.614   0.023  1.8153 -0.4139 -0.2185
 8080TIP3    H224205   1.022   6.642   0.100  0.2589  0.6105  2.1027
 8081TIP3   OH224206   0.666   6.048   3.846  0.3950 -0.4372 -0.2166
 8081TIP3    H124207   0.659   6.110   3.918  0.3234  1.4205 -1.7542
 8081TIP3    H224208   0.755   6.059   3.813  0.1533 -0.6223 -0.9558
 8082TIP3   OH224209   3.804   3.856   0.988  0.0330 -0.4549 -0.6016
 8082TIP3    H124210   3.757   3.865   0.905  0.6202  0.0525 -0.8832
 8082TIP3    H224211   3.873   3.793   0.969 -0.0431 -0.6011 -0.3986
 8083TIP3   OH224212   6.986   4.165   1.140 -0.4963  0.0404  0.0019
 8083TIP3    H124213   7.059   4.159   1.079 -0.8181  0.1524 -0.3981
 8083TIP3    H224214   6.935   4.086   1.124  0.4392 -0.9006  1.4733
 8084TIP3   OH224215   5.380   6.090   0.560  0.4122  0.0575  0.2119
 8084TIP3    H124216   5.362   6.137   0.641  1.1045 -0.6061  0.7669
 8084TIP3    H224217   5.472   6.110   0.540  0.9535 -1.6045  0.8661
 8085TIP3   OH224218  -0.030   2.417   1.319 -0.0189 -0.4429  0.3464
 8085TIP3    H124219   0.036   2.349   1.336  2.2104  1.9177  1.9785
 8085TIP3    H224220   0.010   2.471   1.250 -1.1512 -0.0182  0.0098
 8086TIP3   OH224221   2.183   6.469   4.844  0.7070 -0.4701  0.5333
 8086TIP3    H124222   2.180   6.538   4.778 -2.1662 -0.6956  0.2800
 8086TIP3    H224223   2.179   6.515   4.927  0.5614 -0.2617  0.4123
 8087TIP3   OH224224   4.428   3.703   3.738  0.4527 -0.2854 -0.0132
 8087TIP3    H124225   4.414   3.636   3.804  1.5332 -1.4530 -0.9039
 8087TIP3    H224226   4.408   3.659   3.655  2.5998  0.0096 -0.7405
 8088TIP3   OH224227   7.059   0.854   4.913 -0.1286 -0.6588  0.2654
 8088TIP3    H124228   7.140   0.842   4.863 -0.8262 -3.1506 -0.3475
 8088TIP3    H224229   6.989   0.845   4.850 -0.9835  1.7306  0.7493
 8089TIP3   OH224230   4.080   4.102   3.667  0.7078  0.2278  0.1798
 8089TIP3    H124231   4.144   4.173   3.677 -0.7096  1.5626  0.1395
 8089TIP3    H224232   3.996   4.146   3.665 -0.3440 -1.5850  1.6340
 8090TIP3   OH224233   1.095   6.544   1.302 -0.7977 -0.4976 -0.1416
 8090TIP3    H124234   1.183   6.578   1.289 -1.1734 -0.0635 -1.7546
 8090TIP3    H224235   1.062   6.592   1.379 -0.7649  1.7726 -1.4386
 8091TIP3   OH224236   0.116   4.095   2.900 -0.0028  0.4296 -0.2141
 8091TIP3    H124237   0.116   4.023   2.964  0.6392  0.6468  0.0364
 8091TIP3    H224238   0.172   4.162   2.939  0.1838  0.6732 -0.8905
 8092TIP3   OH224239   2.540   3.169   1.847 -0.7729 -0.3988 -0.2180
 8092TIP3    H124240   2.522   3.236   1.782 -1.1504 -0.8022 -0.5400
 8092TIP3    H224241   2.605   3.112   1.806 -0.0582  0.0589  0.2586
 8093TIP3   OH224242   4.266   1.376   3.163  0.0043  0.3890  0.3924
 8093TIP3    H124243   4.292   1.425   3.241  0.0832 -0.4537  0.9119
 8093TIP3    H224244   4.194   1.426   3.125  1.3885  1.9946 -0.2443
 8094TIP3   OH224245   2.312   2.795   0.519  0.5403 -0.1698  0.1921
 8094TIP3    H124246   2.237   2.757   0.473 -1.7045  1.7418  1.9799
 8094TIP3    H224247   2.345   2.862   0.460 -1.0954  0.9705  0.5022
 8095TIP3   OH224248   0.705   2.602   3.210  0.1033 -0.2629  0.3667
 8095TIP3    H124249   0.648   2.529   3.235 -0.2250 -0.9308 -2.0934
 8095TIP3    H224250   0.792   2.562   3.202 -0.1128 -0.4640 -1.1786
 8096TIP3   OH224251   5.228   2.996   2.321  0.4253 -0.3442  0.1757
 8096TIP3    H124252   5.222   3.061   2.391  1.1662 -0.5783  0.4676
 8096TIP3    H224253   5.188   2.917   2.359  1.0597 -0.5480  0.4449
 8097TIP3   OH224254   2.880   3.041   0.501  0.0687 -0.5433 -0.2530
 8097TIP3    H124255   2.885   3.088   0.417 -2.5019  0.8651  0.2729
 8097TIP3    H224256   2.801   2.988   0.494  1.1088 -2.2812  0.4653
 8098TIP3   OH224257   3.608   2.422   2.321 -0.3021  0.5153  0.0352
 8098TIP3    H124258   3.538   2.371   2.282  0.0955 -2.4142  2.7049
 8098TIP3    H224259   3.687   2.395   2.274 -0.6510  2.4750 -1.7856
 8099TIP3   OH224260   3.584   5.843   3.633 -0.0086  0.0650 -0.7974
 8099TIP3    H124261   3.502   5.887   3.609 -0.0231 -0.3070 -1.4357
 8099TIP3    H224262   3.639   5.851   3.555  1.4590  2.3385  0.3607
 8100TIP3   OH224263   1.544   4.290   0.014  0.4419  0.1833 -0.0316
 8100TIP3    H124264   1.578   4.376  -0.011 -0.7668  0.0689 -2.2957
 8100TIP3    H224265   1.470   4.310   0.072  0.0411  0.7032 -0.7039
 8101TIP3   OH224266   1.230   1.345   2.023  0.0742  0.0103  0.0227
 8101TIP3    H124267   1.318   1.311   2.010 -0.2882 -0.9836  0.0574
 8101TIP3    H224268   1.242   1.425   2.073  1.0250  0.4349 -0.8394
 8102TIP3   OH224269   0.728   6.074   3.172  0.4712 -0.1748  0.3428
 8102TIP3    H124270   0.680   6.093   3.092  1.1772  0.9267  0.1627
 8102TIP3    H224271   0.734   5.979   3.174 -1.9069 -0.3687  0.5028
 8103TIP3   OH224272   1.845   2.671   3.702  0.0528  0.2881 -0.1923
 8103TIP3    H124273   1.779   2.651   3.635 -0.0565  1.0238 -0.3157
 8103TIP3    H224274   1.853   2.590   3.752 -0.0077 -0.2160 -0.9682
 8104TIP3   OH224275   7.150   1.648   5.716 -0.4645 -0.7488 -0.5378
 8104TIP3    H124276   7.171   1.692   5.634  1.2457 -0.4927  0.0093
 8104TIP3    H224277   7.093   1.710   5.763  0.9811  0.4256 -0.2726
 8105TIP3   OH224278   5.767   2.118   3.275  0.1273 -0.6546 -0.3633
 8105TIP3    H124279   5.779   2.213   3.279  0.5527 -0.6129 -1.8741
 8105TIP3    H224280   5.699   2.099   3.340  0.3641  0.6189  0.2762
 8106TIP3   OH224281   6.479   2.689   3.772  0.2712 -0.0851 -0.2729
 8106TIP3    H124282   6.422   2.760   3.802  1.8707  1.1215  0.0344
 8106TIP3    H224283   6.469   2.689   3.677 -1.1810 -0.7573 -0.1528
 8107TIP3   OH224284   0.705   6.646   5.033  0.4309 -0.2340 -0.3799
 8107TIP3    H124285   0.739   6.602   4.954 -0.7744 -1.3825 -0.3012
 8107TIP3    H224286   0.635   6.702   5.000  1.4787  1.1062 -0.3852
 8108TIP3   OH224287   0.691   0.293   4.009  0.1782  0.0066 -0.4977
 8108TIP3    H124288   0.719   0.377   4.045 -4.6615  0.9585  1.8770
 8108TIP3    H224289   0.705   0.230   4.079 -1.2111  0.0372 -0.1671
 8109TIP3   OH224290   6.481   0.218   4.417  0.0449  0.4876 -0.1044
 8109TIP3    H124291   6.519   0.292   4.464  0.1637 -0.4701  1.3601
 8109TIP3    H224292   6.402   0.254   4.377  0.0846  1.4192  0.6120
 8110TIP3   OH224293   2.369   4.100   5.491  0.1415  0.2780 -0.0548
 8110TIP3    H124294   2.444   4.130   5.440  0.7560 -0.6037  0.3083
 8110TIP3    H224295   2.404   4.032   5.548 -1.2739 -1.5176 -1.2160
 8111TIP3   OH224296   1.677   0.852   1.484 -0.5361 -0.3556 -0.1345
 8111TIP3    H124297   1.710   0.769   1.449  0.1592 -0.4193  0.6530
 8111TIP3    H224298   1.596   0.829   1.528  0.5744 -0.9603  1.6837
 8112TIP3   OH224299   1.657   6.274   4.526 -0.2357  0.8920 -0.0772
 8112TIP3    H124300   1.741   6.315   4.502 -1.2605  2.5639 -1.0127
 8112TIP3    H224301   1.665   6.184   4.495  0.6489  1.4579 -1.6201
 8113TIP3   OH224302   2.145   5.066   4.947 -0.3197 -0.6086 -0.1334
 8113TIP3    H124303   2.176   5.022   5.026 -2.2953 -1.1596  0.3881
 8113TIP3    H224304   2.071   5.012   4.917 -0.6957  0.5410 -1.3713
 8114TIP3   OH224305   2.417   2.185   5.817  0.3493  0.2477  0.2263
 8114TIP3    H124306   2.421   2.190   5.912  0.7108 -0.0865  0.2278
 8114TIP3    H224307   2.494   2.134   5.792 -1.0694 -1.8375 -0.0872
 8115TIP3   OH224308   1.414   3.824   4.770  0.0424  0.4277 -0.2596
 8115TIP3    H124309   1.398   3.750   4.712  1.7677  0.9360 -1.4789
 8115TIP3    H224310   1.330   3.840   4.813 -1.4025  0.1711 -2.7843
 8116TIP3   OH224311   3.582   4.947   0.341  0.3543  0.2004  0.1096
 8116TIP3    H124312   3.664   4.898   0.326 -0.1681 -1.1043  1.2583
 8116TIP3    H224313   3.571   4.999   0.262  1.1623 -1.2566 -1.0283
 8117TIP3   OH224314   6.983   5.302   1.159  0.6726  0.1384  0.1227
 8117TIP3    H124315   7.054   5.355   1.197 -1.2960  0.8521  3.1859
 8117TIP3    H224316   6.987   5.219   1.207 -1.3834  0.7523  1.5113
 8118TIP3   OH224317   5.595   0.408   2.007 -0.3450  0.0175 -0.2713
 8118TIP3    H124318   5.596   0.350   1.931  2.8395 -0.1415 -0.2496
 8118TIP3    H224319   5.656   0.367   2.069  0.2403  2.1838  0.6746
 8119TIP3   OH224320   2.313   2.035   1.046 -0.0426  0.1267  0.2137
 8119TIP3    H124321   2.244   2.100   1.034 -0.7678 -0.7159 -0.3528
 8119TIP3    H224322   2.392   2.078   1.015 -0.6735  0.4255 -1.0747
 8120TIP3   OH224323   6.928   6.254   4.059 -0.0641  0.2728  0.2719
 8120TIP3    H124324   6.983   6.294   3.991  1.6286 -1.2709  0.6550
 8120TIP3    H224325   6.926   6.319   4.129 -0.0479  1.0004 -0.3853
 8121TIP3   OH224326   4.885   6.584   3.046 -0.3045  0.0051 -0.7604
 8121TIP3    H124327   4.941   6.522   2.998 -1.0028  0.3464 -2.0568
 8121TIP3    H224328   4.886   6.663   2.992  0.9253  1.3228  1.0915
 8122TIP3   OH224329   0.417   3.983   5.809 -0.3566  0.1691 -0.2271
 8122TIP3    H124330   0.394   3.915   5.746 -0.6583  0.9325 -0.9659
 8122TIP3    H224331   0.338   4.036   5.817 -0.0216  0.6242  0.0861
 8123TIP3   OH224332   2.506   6.405   1.976 -0.2442 -0.1200  0.3650
 8123TIP3    H124333   2.521   6.369   2.063 -2.4772 -0.6165  0.5898
 8123TIP3    H224334   2.457   6.486   1.991 -0.5540 -0.1527 -0.4170
 8124TIP3   OH224335   4.069   6.722   4.199 -0.1957  0.5905 -0.6386
 8124TIP3    H124336   3.974   6.715   4.205 -0.0728 -0.0025  1.1263
 8124TIP3    H224337   4.100   6.632   4.208  0.4977  0.4759 -3.2878
 8125TIP3   OH224338   1.425   1.580   4.838 -0.3847 -0.3387 -0.6189
 8125TIP3    H124339   1.332   1.579   4.860 -0.5004 -0.4839 -1.1003
 8125TIP3    H224340   1.463   1.644   4.899 -0.9951  0.6046 -1.1905
 8126TIP3   OH224341   2.986   0.430   3.609  0.4065 -0.1464 -0.3836
 8126TIP3    H124342   3.054   0.418   3.543 -0.2268 -0.5042 -0.9905
 8126TIP3    H224343   2.935   0.349   3.605 -0.7417  0.5680 -0.7661
 8127TIP3   OH224344   5.808   2.754   3.492 -0.0422 -0.6295 -0.0386
 8127TIP3    H124345   5.872   2.819   3.462 -1.6892  1.2372  0.2262
 8127TIP3    H224346   5.840   2.727   3.578 -0.3265  1.4498  0.7867
 8128TIP3   OH224347   2.189   3.656   0.458  0.3504 -0.2166 -0.3927
 8128TIP3    H124348   2.115   3.696   0.503  0.5876  0.3629 -0.4974
 8128TIP3    H224349   2.196   3.569   0.495  0.6086  0.2912  0.7880
 8129TIP3   OH224350   2.381   4.872   4.101 -0.1615  0.1750 -0.2826
 8129TIP3    H124351   2.471   4.882   4.132 -0.0246 -0.4066 -0.4855
 8129TIP3    H224352   2.327   4.900   4.174  0.1381 -1.8252  0.7482
 8130TIP3   OH224353   3.220   0.475   2.199  0.0080 -0.1816  0.1928
 8130TIP3    H124354   3.298   0.461   2.145 -0.0934 -0.7730  0.1922
 8130TIP3    H224355   3.215   0.570   2.210  1.5772 -0.2011  1.4048
 8131TIP3   OH224356   1.984   6.161   4.959  0.6673  0.0892 -0.3199
 8131TIP3    H124357   2.041   6.171   5.035  0.6256 -0.0193 -0.2738
 8131TIP3    H224358   2.038   6.115   4.895  0.5517 -0.2326 -0.1867
 8132TIP3   OH224359   0.319   5.090   1.034  0.0773  0.0649  0.0184
 8132TIP3    H124360   0.398   5.142   1.049 -0.5347  0.8258  0.6616
 8132TIP3    H224361   0.350   5.015   0.982  1.2777  0.1819  0.5177
 8133TIP3   OH224362   4.759   3.516   2.749  0.3998  0.5021  0.0952
 8133TIP3    H124363   4.786   3.518   2.657 -2.8962 -1.4871 -1.1111
 8133TIP3    H224364   4.666   3.539   2.747 -0.1216 -0.9781  2.7118
 8134TIP3   OH224365   3.310   0.613   4.906  0.0430  0.4740 -0.3509
 8134TIP3    H124366   3.327   0.519   4.896 -0.3869  0.5405 -2.1995
 8134TIP3    H224367   3.386   0.647   4.952 -1.0088 -1.1625  2.9252
 8135TIP3   OH224368   6.431   0.789   3.298  0.3463  0.0503  0.1904
 8135TIP3    H124369   6.454   0.709   3.251 -0.0449 -1.1680  1.9666
 8135TIP3    H224370   6.515   0.827   3.324  0.5079 -0.2296  0.0801
 8136TIP3   OH224371   3.818   1.384   2.916  0.3398  0.1495 -0.3047
 8136TIP3    H124372   3.859   1.468   2.895  0.4438  0.2487  0.2985
 8136TIP3    H224373   3.733   1.407   2.954  2.1768  0.2629  4.3820
 8137TIP3   OH224374   6.008   1.283   0.762 -0.2983 -0.0737  0.1914
 8137TIP3    H124375   5.964   1.199   0.749 -1.2181  0.4409 -0.1108
 8137TIP3    H224376   5.967   1.342   0.698 -0.0990  0.7661  0.8191
 8138TIP3   OH224377   3.267   0.213   3.305  0.0019  0.3811  0.4224
 8138TIP3    H124378   3.205   0.177   3.369 -1.5325  0.8564 -0.7451
 8138TIP3    H224379   3.351   0.212   3.350 -0.2930 -2.8731  1.1184
 8139TIP3   OH224380   6.055   5.586   0.808  0.0937  0.3082 -0.4458
 8139TIP3    H124381   6.009   5.649   0.753 -1.5614 -0.2986  0.1741
 8139TIP3    H224382   5.987   5.524   0.836  1.0110  0.1580  1.6495
 8140TIP3   OH224383   2.592   4.614   2.843  0.6906  0.3787  0.3643
 8140TIP3    H124384   2.678   4.648   2.865 -0.2151  1.3951  2.6952
 8140TIP3    H224385   2.542   4.620   2.924 -1.1447 -1.6182 -0.4986
 8141TIP3   OH224386   5.233   0.023   1.622  0.4513 -0.3368 -0.4820
 8141TIP3    H124387   5.211   0.095   1.681  0.3247  0.8121 -1.8862
 8141TIP3    H224388   5.249  -0.051   1.680  0.5666  0.8088  1.0033
 8142TIP3   OH224389   3.672   3.721   4.816 -0.5043  0.2282  0.6527
 8142TIP3    H124390   3.664   3.791   4.751 -2.1383  0.5624  1.1416
 8142TIP3    H224391   3.686   3.642   4.765 -1.2079  0.5672 -0.0918
 8143TIP3   OH224392   6.070   2.917   3.864 -0.2595 -0.1561  0.6097
 8143TIP3    H124393   6.044   2.839   3.816  1.0785 -0.9688  1.1451
 8143TIP3    H224394   5.994   2.938   3.919 -0.6728 -1.0098  0.3789
 8144TIP3   OH224395   6.050   3.370   1.940 -0.5273 -0.2089  0.3424
 8144TIP3    H124396   6.106   3.302   1.978 -1.5397 -0.8004  0.8009
 8144TIP3    H224397   6.092   3.391   1.856 -1.3522 -2.9819 -0.8825
 8145TIP3   OH224398   2.234   4.988   2.612 -0.2903  0.1113 -0.0638
 8145TIP3    H124399   2.161   4.939   2.651 -0.4503 -1.1507 -1.8340
 8145TIP3    H224400   2.267   5.042   2.684 -0.7720 -1.8191  1.7129
 8146TIP3   OH224401   3.761   0.740   4.767  0.7912 -0.2854 -0.2061
 8146TIP3    H124402   3.727   0.650   4.762 -0.3550  0.0380  1.0118
 8146TIP3    H224403   3.722   0.785   4.693 -0.7092 -0.1757  0.6138
 8147TIP3   OH224404   6.406   0.945   3.813 -0.3155 -0.5920 -0.0787
 8147TIP3    H124405   6.456   0.866   3.793  1.3239  0.1228  1.0053
 8147TIP3    H224406   6.381   0.934   3.905 -0.8573 -0.2358 -0.1786
 8148TIP3   OH224407   4.830   5.360   4.891 -0.1572  0.1619  0.1047
 8148TIP3    H124408   4.745   5.403   4.882 -0.8712 -0.7927  1.8171
 8148TIP3    H224409   4.877   5.383   4.811 -1.7085  1.3936 -0.5086
 8149TIP3   OH224410   5.690   1.782   3.889 -0.1055 -0.1276  0.0651
 8149TIP3    H124411   5.745   1.704   3.892 -0.0814 -0.2484 -2.1859
 8149TIP3    H224412   5.602   1.751   3.906 -0.0325 -0.5812 -0.3785
 8150TIP3   OH224413   2.692   1.964   0.978 -0.4684 -0.6577  0.1837
 8150TIP3    H124414   2.706   1.969   0.884 -4.7394 -1.3091 -0.6852
 8150TIP3    H224415   2.663   2.051   1.004  0.3857 -0.5622  0.8755
 8151TIP3   OH224416   4.572   5.162   2.406 -0.1450 -0.4313  0.6387
 8151TIP3    H124417   4.576   5.068   2.389  0.2689 -0.1605 -0.9064
 8151TIP3    H224418   4.483   5.187   2.382  0.3897 -0.0777 -1.1114
 8152TIP3   OH224419   3.350   6.252   4.851 -0.0929 -0.3360  0.1642
 8152TIP3    H124420   3.295   6.315   4.897  1.3280  0.4058  0.9012
 8152TIP3    H224421   3.314   6.166   4.876 -1.0445  0.1224  0.4230
 8153TIP3   OH224422   2.788   0.834   4.321 -0.4453  0.0325 -0.2082
 8153TIP3    H124423   2.848   0.805   4.390 -2.6297  1.4694  2.4955
 8153TIP3    H224424   2.819   0.922   4.298 -0.2819 -0.0647 -0.3603
 8154TIP3   OH224425   1.181   1.988   3.322 -0.1246  0.1512  0.0521
 8154TIP3    H124426   1.167   2.035   3.240 -1.4834 -1.5961 -0.7933
 8154TIP3    H224427   1.138   2.042   3.389  0.7541  1.4478 -0.4014
 8155TIP3   OH224428   5.277   3.763   0.269  0.4373  0.7919  0.2748
 8155TIP3    H124429   5.186   3.771   0.242  1.1623  0.4531 -2.5320
 8155TIP3    H224430   5.320   3.718   0.197  2.7894  0.6343  1.6681
 8156TIP3   OH224431   2.877   0.298   4.686  0.0606  0.3584 -0.0642
 8156TIP3    H124432   2.970   0.309   4.667  0.4499  1.4288  2.1648
 8156TIP3    H224433   2.867   0.205   4.709  0.8738  0.5420  1.0671
 8157TIP3   OH224434   3.536   5.025   0.076  0.0226  0.2714  0.5386
 8157TIP3    H124435   3.538   4.994  -0.015  2.7392  1.8605 -0.0546
 8157TIP3    H224436   3.460   5.083   0.080 -0.6066 -0.4437 -0.4511
 8158TIP3   OH224437   6.435   5.692   3.372 -0.2072 -0.0822  1.0308
 8158TIP3    H124438   6.375   5.687   3.297 -0.4875 -1.3323  1.3256
 8158TIP3    H224439   6.522   5.686   3.333 -0.3040  0.4088  0.7202
 8159TIP3   OH224440   5.556   2.339   3.996 -0.2610 -0.0315 -0.3699
 8159TIP3    H124441   5.648   2.366   3.988 -0.4336  0.6816 -0.0053
 8159TIP3    H224442   5.537   2.346   4.089 -1.2538  1.7666 -0.6681
 8160TIP3   OH224443   7.061   0.377   0.535 -0.3173 -0.1906 -0.1903
 8160TIP3    H124444   7.051   0.283   0.545 -0.7715 -0.3090 -1.5863
 8160TIP3    H224445   7.086   0.408   0.622  3.5006 -2.0538 -0.4260
 8161TIP3   OH224446   7.223   1.960   0.792 -0.0773 -0.0627 -0.0545
 8161TIP3    H124447   7.174   1.886   0.827  1.0068 -0.3904  0.7959
 8161TIP3    H224448   7.201   1.960   0.698 -4.8159  2.1784  0.7177
 8162TIP3   OH224449   3.541   3.480   0.283 -0.0498  0.1078 -0.1009
 8162TIP3    H124450   3.607   3.412   0.292  0.4802  0.2766 -2.1067
 8162TIP3    H224451   3.465   3.435   0.248  0.3653  0.5250 -1.6153
 8163TIP3   OH224452   1.688   0.806   4.091 -0.1024 -0.0018  0.0107
 8163TIP3    H124453   1.651   0.894   4.079  1.2084  0.6054  0.2577
 8163TIP3    H224454   1.759   0.802   4.028  0.5410 -0.4766  0.7515
 8164TIP3   OH224455   4.769   1.397   1.875  0.1090 -0.0822 -0.1745
 8164TIP3    H124456   4.702   1.428   1.936  0.8077 -1.2922  1.2606
 8164TIP3    H224457   4.720   1.375   1.796 -0.8926  0.9969  0.1066
 8165TIP3   OH224458   4.242   2.172   2.726  0.2119  0.4311  0.1705
 8165TIP3    H124459   4.233   2.240   2.659  1.6180  1.9874  1.4893
 8165TIP3    H224460   4.266   2.220   2.806  1.0963 -1.6052  1.1876
 8166TIP3   OH224461   3.531   2.984   3.078  0.1200  0.0914  0.1039
 8166TIP3    H124462   3.495   3.030   3.153  0.2848  0.1035  0.1759
 8166TIP3    H224463   3.502   2.893   3.090 -2.2916  0.5763 -1.3016
 8167TIP3   OH224464   2.515   0.531   4.191  0.6719  0.0020 -0.3993
 8167TIP3    H124465   2.509   0.576   4.275  1.5370 -0.2919 -0.1666
 8167TIP3    H224466   2.429   0.494   4.177  0.9414 -1.3168  1.1371
 8168TIP3   OH224467   4.533   0.963   2.801  0.0941 -0.5295 -0.3358
 8168TIP3    H124468   4.604   0.899   2.795  0.4998 -0.1845  0.5154
 8168TIP3    H224469   4.517   0.971   2.895  1.5045  2.1485 -0.2309
 8169TIP3   OH224470   6.134   4.843   5.655  0.0974  0.2971 -0.0405
 8169TIP3    H124471   6.060   4.803   5.700  1.5396 -1.0398  1.2317
 8169TIP3    H224472   6.128   4.936   5.676 -0.5103  0.0159  1.0683
 8170TIP3   OH224473   5.398   5.511   1.854  0.3244 -0.1594 -0.4544
 8170TIP3    H124474   5.329   5.492   1.918  1.0831 -0.8388  0.1793
 8170TIP3    H224475   5.351   5.521   1.771 -0.8070  1.8693  0.3574
 8171TIP3   OH224476   5.463   0.853   4.805  0.3430 -0.7253  0.4196
 8171TIP3    H124477   5.436   0.915   4.872  1.1264 -0.1167  0.1823
 8171TIP3    H224478   5.532   0.802   4.847  1.3468  0.1394 -0.1411
 8172TIP3   OH224479   0.744   1.348   4.338  0.1164 -0.2223 -0.3678
 8172TIP3    H124480   0.783   1.345   4.425 -1.3947 -2.3795  0.3149
 8172TIP3    H224481   0.749   1.258   4.306 -2.0535 -0.1091 -1.2181
 8173TIP3   OH224482   6.679   0.065   0.788  0.0385 -0.5321  0.1778
 8173TIP3    H124483   6.612   0.041   0.724  0.4441  0.8050 -0.8029
 8173TIP3    H224484   6.634   0.064   0.872 -1.4664  1.1533 -0.5506
 8174TIP3   OH224485   0.933   5.665   0.130  0.6077  0.5741 -0.3087
 8174TIP3    H124486   1.028   5.679   0.129  0.6153  0.7673  1.3236
 8174TIP3    H224487   0.917   5.607   0.055  2.1085 -0.0666 -0.1741
 8175TIP3   OH224488   3.508   2.536   2.826  0.6135 -0.4562  0.0234
 8175TIP3    H124489   3.588   2.531   2.879  1.1385 -1.6204 -0.8333
 8175TIP3    H224490   3.492   2.629   2.816  2.6961 -0.1256 -0.9578
 8176TIP3   OH224491   0.267   4.198   1.660 -0.3068  0.6541 -0.3923
 8176TIP3    H124492   0.183   4.198   1.706 -0.8586 -1.4252 -1.3044
 8176TIP3    H224493   0.261   4.273   1.600 -1.7804  0.1736 -0.8890
 8177TIP3   OH224494   6.221   1.116   4.645 -0.3630  0.2451  0.0464
 8177TIP3    H124495   6.168   1.042   4.675 -1.9587  1.0701 -0.6601
 8177TIP3    H224496   6.225   1.175   4.720  1.9011 -1.0129  1.0152
 8178TIP3   OH224497   2.416   2.093   3.128  0.1734 -0.1399  0.2951
 8178TIP3    H124498   2.359   2.166   3.104  0.6758  0.1750  0.0403
 8178TIP3    H224499   2.470   2.126   3.199  0.1813 -0.3777  0.4035
 8179TIP3   OH224500   6.967   1.911   5.208  0.0002 -0.4334 -0.1459
 8179TIP3    H124501   7.052   1.866   5.202  0.5958  0.6916 -0.4756
 8179TIP3    H224502   6.974   1.965   5.286 -0.0302  0.4312 -0.7373
 8180TIP3   OH224503   4.636   6.398   5.084  0.1529  0.0815 -1.0812
 8180TIP3    H124504   4.731   6.410   5.078  0.1162  1.4753  0.4532
 8180TIP3    H224505   4.620   6.376   5.175 -0.7966 -3.0317 -1.8768
 8181TIP3   OH224506   5.398   1.632   0.091  0.4482  0.3093  0.7162
 8181TIP3    H124507   5.424   1.694   0.159 -0.2821 -0.8463  2.0962
 8181TIP3    H224508   5.373   1.687   0.017  0.4762  1.6333  1.6539
 8182TIP3   OH224509   6.259   1.421   2.603  0.0053 -0.5325 -0.1696
 8182TIP3    H124510   6.290   1.388   2.519  1.2808 -1.9743  0.8157
 8182TIP3    H224511   6.256   1.343   2.660  0.7814  0.6621  1.5898
 8183TIP3   OH224512   5.926   2.129   3.540 -0.1462  0.6721 -0.4902
 8183TIP3    H124513   5.934   2.036   3.521  1.6240  0.8382 -0.7652
 8183TIP3    H224514   5.832   2.147   3.534 -0.6419 -1.2688  0.5340
 8184TIP3   OH224515   0.428   2.282   1.227  0.5151 -0.0596  0.1465
 8184TIP3    H124516   0.505   2.307   1.278 -0.3169 -1.0768  2.0357
 8184TIP3    H224517   0.443   2.190   1.204  0.6378  0.2409 -0.9995
 8185TIP3   OH224518   2.156   6.330   1.107 -0.7341  0.1977 -0.3963
 8185TIP3    H124519   2.167   6.300   1.198 -0.8445  0.7207 -0.2070
 8185TIP3    H224520   2.062   6.341   1.097 -0.6989  0.4328 -0.4775
 8186TIP3   OH224521   0.284   0.266   0.896  0.0874  0.0648  0.4446
 8186TIP3    H124522   0.313   0.233   0.811 -0.8754  0.0537  0.1095
 8186TIP3    H224523   0.281   0.361   0.885  1.1495  0.1641  0.8630
 8187TIP3   OH224524   4.239   3.201   0.590  0.0693 -0.1251 -0.3013
 8187TIP3    H124525   4.202   3.131   0.643 -0.4436  1.2070  1.1724
 8187TIP3    H224526   4.333   3.197   0.607  0.0642 -0.5817 -0.3860
 8188TIP3   OH224527   1.967   0.227   0.997 -0.1501  0.5768  0.3552
 8188TIP3    H124528   1.894   0.237   1.058 -0.6263 -1.4067  0.1909
 8188TIP3    H224529   1.968   0.133   0.976  2.8042  0.4115  0.7965
 8189TIP3   OH224530   2.810   5.534   2.137  0.2734 -0.1050  0.2950
 8189TIP3    H124531   2.856   5.507   2.057 -0.9006 -0.9659 -0.1099
 8189TIP3    H224532   2.879   5.537   2.204  1.2976  0.7252 -0.7391
 8190TIP3   OH224533   1.575   1.028   2.488  0.1348 -0.1578 -0.3553
 8190TIP3    H124534   1.561   0.958   2.551  1.3352 -0.3009 -0.2171
 8190TIP3    H224535   1.552   0.988   2.403  1.9934 -1.1645 -0.4404
 8191TIP3   OH224536   2.347   4.552   1.547  0.1163 -0.3188  0.0466
 8191TIP3    H124537   2.279   4.599   1.596  1.1882 -0.2279  1.5240
 8191TIP3    H224538   2.302   4.521   1.469 -1.0513  1.6711 -0.1474
 8192TIP3   OH224539   3.813   4.013   5.548  0.3781 -0.8477 -0.2891
 8192TIP3    H124540   3.844   4.102   5.567 -0.9416 -0.1797 -1.0306
 8192TIP3    H224541   3.782   3.980   5.632  0.0105 -0.2292 -0.1726
 8193TIP3   OH224542   5.791   1.389   1.510  0.5965  0.3391 -0.0114
 8193TIP3    H124543   5.880   1.418   1.529  0.2068  2.4640 -1.0948
 8193TIP3    H224544   5.737   1.429   1.578  0.1864  1.2191 -0.8313
 8194TIP3   OH224545   5.338   4.186   4.029 -0.1038 -0.6718 -0.1956
 8194TIP3    H124546   5.415   4.139   3.998 -0.9677 -0.7513 -2.3862
 8194TIP3    H224547   5.345   4.273   3.991 -0.0112  0.0649  1.4162
 8195TIP3   OH224548   2.723   1.352   0.176 -0.0938 -0.9007  0.4445
 8195TIP3    H124549   2.800   1.328   0.125 -0.1873 -1.3265  0.5011
 8195TIP3    H224550   2.747   1.434   0.219  0.7960 -1.6638  1.4546
 8196TIP3   OH224551   4.562   2.126   0.788  0.5929  0.6326  0.0896
 8196TIP3    H124552   4.531   2.070   0.859  0.6066  0.4724 -0.0304
 8196TIP3    H224553   4.658   2.119   0.791  0.5657 -1.3723 -1.5186
 8197TIP3   OH224554   5.600   4.794   0.425 -0.4000  0.3258 -0.4425
 8197TIP3    H124555   5.636   4.745   0.499 -2.0574 -0.7614 -0.3025
 8197TIP3    H224556   5.669   4.791   0.359  0.1866 -0.7885  0.1798
 8198TIP3   OH224557   2.520   2.321   5.245  0.2289  0.3129  0.1927
 8198TIP3    H124558   2.557   2.359   5.166  0.6545 -0.7098 -0.1211
 8198TIP3    H224559   2.584   2.255   5.272 -0.9173 -0.8609  0.1520
 8199TIP3   OH224560   1.532   4.019   1.405 -1.0735 -0.4245  0.0197
 8199TIP3    H124561   1.611   4.020   1.353 -1.3699 -1.7096 -0.4999
 8199TIP3    H224562   1.460   4.018   1.341 -1.5151  0.7135  0.4785
 8200TIP3   OH224563   4.259   0.347   5.911  0.2910  0.1629  0.5000
 8200TIP3    H124564   4.166   0.370   5.914  0.6438  1.6665  0.5817
 8200TIP3    H224565   4.277   0.336   5.817  0.0238 -0.1610  0.4857
 8201TIP3   OH224566   3.033   4.200   3.494 -0.4412 -0.3112 -0.2835
 8201TIP3    H124567   2.975   4.215   3.568 -1.3799 -2.0935 -0.6043
 8201TIP3    H224568   3.051   4.288   3.460 -0.6648  0.4727  1.5111
 8202TIP3   OH224569   5.006   4.512   3.589 -0.1392 -0.2074  0.1907
 8202TIP3    H124570   5.038   4.539   3.675  0.4941 -1.4886  0.3751
 8202TIP3    H224571   4.926   4.563   3.576 -0.5200 -0.3639  1.7542
 8203TIP3   OH224572   5.788   5.214   5.375  0.3352  0.2276  0.1333
 8203TIP3    H124573   5.823   5.181   5.458 -1.8165  0.1620  1.0840
 8203TIP3    H224574   5.830   5.160   5.308  0.9666 -0.7531  1.2866
 8204TIP3   OH224575   5.801   5.189   0.176  0.8886  0.1109  0.1893
 8204TIP3    H124576   5.872   5.242   0.138  0.5154 -0.3601 -1.1861
 8204TIP3    H224577   5.775   5.130   0.106 -0.8639  0.2590  0.6838
 8205TIP3   OH224578   2.565   3.240   3.713 -0.1801 -1.1006  0.7381
 8205TIP3    H124579   2.502   3.303   3.747 -1.1109 -0.6148 -1.6533
 8205TIP3    H224580   2.650   3.284   3.722 -0.6845  0.0501  0.2037
 8206TIP3   OH224581   0.413   1.731   0.972 -0.1356  0.0303  0.2127
 8206TIP3    H124582   0.477   1.780   0.920 -0.5290  1.3384  0.9240
 8206TIP3    H224583   0.334   1.786   0.970 -0.6428 -0.6575  0.8898
 8207TIP3   OH224584   5.946   1.279   5.579  0.5956 -0.0788  0.3905
 8207TIP3    H124585   5.851   1.273   5.583  0.5533 -2.3822 -2.0914
 8207TIP3    H224586   5.967   1.354   5.635 -2.5802  0.0904  1.5501
 8208TIP3   OH224587   7.133   4.661   2.962 -0.7175  0.3399  0.2301
 8208TIP3    H124588   7.185   4.646   3.042  2.5317  1.1860 -1.5396
 8208TIP3    H224589   7.114   4.574   2.928 -0.0854  0.0060  0.7212
 8209TIP3   OH224590   2.939   3.221   1.670 -0.1889  0.5564  0.1505
 8209TIP3    H124591   2.891   3.304   1.659 -0.9208  0.2402  0.9081
 8209TIP3    H224592   2.875   3.161   1.708  0.6042 -0.0953  0.4815
 8210TIP3   OH224593   1.100   4.750   0.086 -0.2838  0.1486  0.7470
 8210TIP3    H124594   1.019   4.801   0.093  0.7865  2.1291 -0.1327
 8210TIP3    H224595   1.154   4.801   0.024  1.5243 -1.2307  1.1125
 8211TIP3   OH224596   0.085   2.643   4.631  0.0184 -0.1190  0.5217
 8211TIP3    H124597   0.121   2.712   4.576  0.1374 -0.3173  0.3471
 8211TIP3    H224598   0.005   2.617   4.587 -0.3458  0.3274  0.9149
 8212TIP3   OH224599   3.629   2.842   1.490 -0.9999  0.1867  0.3481
 8212TIP3    H124600   3.649   2.749   1.493  0.0605  0.2961 -1.5226
 8212TIP3    H224601   3.602   2.864   1.579  0.4211 -1.5473  1.2721
 8213TIP3   OH224602   6.367   2.798   3.528  0.1353  0.4549 -0.2686
 8213TIP3    H124603   6.439   2.768   3.473  1.9447  1.5659  1.3565
 8213TIP3    H224604   6.297   2.733   3.514  0.8911  0.1133 -2.9516
 8214TIP3   OH224605   1.762   1.526   2.827  0.2068  0.2319 -0.3678
 8214TIP3    H124606   1.756   1.432   2.809  0.3418  0.0586  0.4129
 8214TIP3    H224607   1.700   1.567   2.767  0.0318 -0.3754 -0.6073
 8215TIP3   OH224608   3.958   0.421   3.150 -0.7141  0.3477  0.1379
 8215TIP3    H124609   3.907   0.417   3.069 -0.4438  1.3451 -0.0844
 8215TIP3    H224610   3.982   0.513   3.160  1.2467 -0.1124  0.1067
 8216TIP3   OH224611   0.883   6.239   4.099 -0.2071 -0.2173  0.5638
 8216TIP3    H124612   0.883   6.320   4.149 -1.1618 -0.0276  0.2897
 8216TIP3    H224613   0.792   6.231   4.068  0.0230 -1.0766  0.0918
 8217TIP3   OH224614   2.775   1.996   4.807 -0.3073  0.3407  0.3308
 8217TIP3    H124615   2.745   1.989   4.716  0.6315 -1.1229  0.1126
 8217TIP3    H224616   2.696   2.021   4.856 -1.1656 -0.3431 -0.6636
 8218TIP3   OH224617   3.900   6.081   2.800  0.3635 -0.3697  0.6627
 8218TIP3    H124618   3.938   6.046   2.719 -0.6432  0.5651 -0.2367
 8218TIP3    H224619   3.830   6.019   2.822  0.4508 -0.4682  0.6655
 8219TIP3   OH224620   3.920   6.586   1.191 -0.3870 -0.2761  0.4191
 8219TIP3    H124621   3.933   6.586   1.096 -4.2318 -0.6231 -0.2755
 8219TIP3    H224622   3.988   6.528   1.225  0.1305 -1.3974 -2.2859
 8220TIP3   OH224623   1.626   0.047   5.096 -0.4396 -0.6008 -0.1970
 8220TIP3    H124624   1.691   0.115   5.113 -0.4161 -0.9038  1.0357
 8220TIP3    H224625   1.660  -0.030   5.143 -1.0702 -1.1071 -0.5570
 8221TIP3   OH224626   3.816   3.847   0.402 -0.0353 -0.5994  0.1038
 8221TIP3    H124627   3.743   3.785   0.414  1.1821 -2.1048  0.0440
 8221TIP3    H224628   3.894   3.791   0.398  1.4543  1.0814  2.7856
 8222TIP3   OH224629   4.031   3.687   0.731 -0.1543 -0.7048 -0.2770
 8222TIP3    H124630   4.100   3.732   0.779  0.9921 -0.6926 -1.8639
 8222TIP3    H224631   4.053   3.594   0.738 -0.9694 -0.8494  0.6503
 8223TIP3   OH224632   6.553   1.947   5.685  0.0864  0.1105  0.3718
 8223TIP3    H124633   6.475   1.931   5.739  0.5131 -0.4837  0.8175
 8223TIP3    H224634   6.627   1.925   5.741  0.5559 -0.0681 -0.2971
 8224TIP3   OH224635   1.503   6.492   4.543 -0.0184 -0.3234 -0.0412
 8224TIP3    H124636   1.515   6.398   4.560 -0.0776 -0.3816 -0.3243
 8224TIP3    H224637   1.582   6.532   4.580  0.5811 -0.6040 -0.9914
 8225TIP3   OH224638   3.211   1.248   1.262  0.3199 -0.3211  0.6902
 8225TIP3    H124639   3.271   1.229   1.190  1.6583  1.6919  1.1768
 8225TIP3    H224640   3.181   1.162   1.291  0.9203 -1.2596 -1.2747
 8226TIP3   OH224641   0.678   2.539   1.990 -0.4253  0.1030 -0.3226
 8226TIP3    H124642   0.618   2.589   1.935 -0.7137  0.2940  0.1654
 8226TIP3    H224643   0.678   2.451   1.951  1.2200  0.8086 -2.1068
 8227TIP3   OH224644   5.239   1.254   3.558 -0.4827  0.3331 -0.3520
 8227TIP3    H124645   5.256   1.162   3.537 -1.4535  0.1675 -0.4884
 8227TIP3    H224646   5.146   1.256   3.581 -0.4106  1.2428 -0.1090
 8228TIP3   OH224647   1.839   2.973   0.962 -0.9951 -0.1984  0.7115
 8228TIP3    H124648   1.751   2.943   0.940 -0.9718  0.2403 -0.0041
 8228TIP3    H224649   1.826   3.059   1.003 -0.7871  1.0791 -1.6935
 8229TIP3   OH224650   1.524   6.754   1.362 -0.6220 -0.3322  0.4922
 8229TIP3    H124651   1.489   6.666   1.347 -2.3708  0.4481 -0.2264
 8229TIP3    H224652   1.468   6.791   1.430  0.0621  0.2598  0.7465
 8230TIP3   OH224653   0.906   5.579   3.129  0.3820  0.0862  0.0502
 8230TIP3    H124654   0.921   5.522   3.204 -0.6641 -0.6153 -0.2402
 8230TIP3    H224655   0.930   5.525   3.053 -1.2633 -0.2661 -0.2746
 8231TIP3   OH224656   6.102   1.645   3.774 -0.2426 -0.0726 -0.2933
 8231TIP3    H124657   6.197   1.641   3.782 -0.2541 -1.0988 -0.5114
 8231TIP3    H224658   6.075   1.705   3.843  0.5712  0.3050 -0.2917
 8232TIP3   OH224659   2.587   2.630   5.023  0.0302 -0.0994  0.2267
 8232TIP3    H124660   2.604   2.555   4.965 -0.2196 -2.0528  2.4916
 8232TIP3    H224661   2.498   2.616   5.054 -0.2642  1.5490  0.2071
 8233TIP3   OH224662   3.645   2.658   3.660 -0.2163  0.0317 -0.7304
 8233TIP3    H124663   3.572   2.713   3.631  0.2780  2.1689  1.6723
 8233TIP3    H224664   3.721   2.693   3.613 -0.3038 -0.2628 -1.0859
 8234TIP3   OH224665   5.352   5.273   3.546  0.1694  0.1087  0.1056
 8234TIP3    H124666   5.376   5.186   3.579 -1.4053 -0.3166  0.1911
 8234TIP3    H224667   5.333   5.260   3.454  0.2057  0.4199  0.0537
 8235TIP3   OH224668   0.539   4.064   0.910 -0.4569  0.2642 -0.0013
 8235TIP3    H124669   0.631   4.089   0.921 -0.0124 -1.5081  0.5895
 8235TIP3    H224670   0.500   4.078   0.997 -0.9699  1.7338 -0.4346
 8236TIP3   OH224671   4.121   3.407   0.723 -0.0706  0.0729 -0.5137
 8236TIP3    H124672   4.076   3.350   0.785  0.9488  1.5728  1.7186
 8236TIP3    H224673   4.199   3.358   0.697 -0.0171 -0.2033  0.1567
 8237TIP3   OH224674   2.525   1.757   4.136 -0.0033 -0.3720 -0.1866
 8237TIP3    H124675   2.480   1.837   4.113 -1.3764 -1.3046 -0.8298
 8237TIP3    H224676   2.616   1.784   4.149 -0.4430  1.2799 -0.3199
 8238TIP3   OH224677   5.393   6.348   2.424  0.5435  0.2304 -0.0813
 8238TIP3    H124678   5.445   6.397   2.487  0.3850  0.5334 -0.1871
 8238TIP3    H224679   5.405   6.395   2.341 -1.1052  1.1933  0.1882
 8239TIP3   OH224680   6.182   0.888   2.056 -0.2242  0.2994  0.6134
 8239TIP3    H124681   6.161   0.795   2.069 -0.6472  0.3696  0.4436
 8239TIP3    H224682   6.119   0.918   1.990 -0.1767  0.7417  0.7661
 8240TIP3   OH224683   5.795   1.064   4.119  0.1286 -0.0068  0.5961
 8240TIP3    H124684   5.863   1.125   4.094 -0.3593  0.1850 -0.2892
 8240TIP3    H224685   5.757   1.102   4.199 -0.4820  1.1090 -0.1979
 8241TIP3   OH224686   2.872   0.719   0.921 -0.0225  0.6872 -0.3689
 8241TIP3    H124687   2.825   0.802   0.918  0.4800  1.0634  0.9839
 8241TIP3    H224688   2.842   0.678   1.002  1.1940  0.4847  0.0069
 8242TIP3   OH224689   3.867   6.419   2.090  0.4464 -0.2119  0.4767
 8242TIP3    H124690   3.831   6.340   2.130  1.2998  0.2366  2.2059
 8242TIP3    H224691   3.942   6.442   2.145  1.9754  0.1959 -1.6397
 8243TIP3   OH224692   1.016   1.816   1.162 -0.5891 -0.4498  0.2370
 8243TIP3    H124693   1.076   1.855   1.099  1.0938  1.0680  2.6095
 8243TIP3    H224694   1.063   1.739   1.195 -0.3486  0.1370  1.3240
 8244TIP3   OH224695   5.527   1.443   5.731  0.0121  0.1523 -0.2797
 8244TIP3    H124696   5.511   1.397   5.813  1.6071  0.9622  0.5322
 8244TIP3    H224697   5.594   1.390   5.687  0.6541  0.7981 -0.0982
 8245TIP3   OH224698   6.676   1.695   3.107 -0.5066  0.3313 -0.4757
 8245TIP3    H124699   6.600   1.637   3.119 -0.7170  0.7983  0.5414
 8245TIP3    H224700   6.656   1.772   3.161  1.3613 -0.1730  1.0288
 8246TIP3   OH224701   5.089   2.619   4.799 -0.0341  0.0792  0.0610
 8246TIP3    H124702   5.178   2.652   4.783 -0.1760  0.6935  0.5249
 8246TIP3    H224703   5.052   2.609   4.711 -0.1248  1.5557 -0.0987
 8247TIP3   OH224704   0.603   1.372   0.554  0.0404 -0.3994 -0.5729
 8247TIP3    H124705   0.531   1.350   0.496 -0.2121 -1.9246  0.2435
 8247TIP3    H224706   0.596   1.466   0.568 -1.1834 -0.3642 -1.3064
 8248TIP3   OH224707   3.062   3.314   5.762 -0.5561 -0.3010  0.1992
 8248TIP3    H124708   3.023   3.357   5.686  0.5971 -1.0432 -0.8620
 8248TIP3    H224709   2.993   3.259   5.797 -1.3755  0.7244  0.2445
 8249TIP3   OH224710   1.906   5.058   4.508 -0.2401 -0.3059  1.0915
 8249TIP3    H124711   1.986   5.052   4.456 -1.1349  2.4693 -0.8790
 8249TIP3    H224712   1.936   5.081   4.596  1.2282  3.6503 -0.2201
 8250TIP3   OH224713   6.502   1.123   1.134  0.7333  0.0225 -0.4055
 8250TIP3    H124714   6.517   1.216   1.118  2.9745 -0.1246  0.4362
 8250TIP3    H224715   6.571   1.098   1.196 -1.7956 -1.4838  2.0446
 8251TIP3   OH224716   2.748   2.133   2.188 -0.0006 -0.3259  0.2143
 8251TIP3    H124717   2.701   2.178   2.118  0.1533  0.4471  0.5994
 8251TIP3    H224718   2.697   2.053   2.204  0.0041 -0.5480 -0.8173
 8252TIP3   OH224719   1.312   1.740   5.345 -0.1365  0.0308 -0.2257
 8252TIP3    H124720   1.326   1.729   5.439 -1.1743 -0.2211 -0.0932
 8252TIP3    H224721   1.391   1.704   5.305 -0.3151 -1.2306  0.4974
 8253TIP3   OH224722   2.451   2.864   5.297  0.3974 -0.8883 -0.2333
 8253TIP3    H124723   2.459   2.896   5.386 -1.6480  1.3613 -0.7603
 8253TIP3    H224724   2.539   2.834   5.274  1.9941  2.3606  1.1228
 8254TIP3   OH224725   4.262   5.595   4.603 -0.4759  0.2539  0.2863
 8254TIP3    H124726   4.328   5.604   4.535 -0.4974 -0.7882  0.1133
 8254TIP3    H224727   4.307   5.619   4.684 -0.0978  0.2695  0.0730
 8255TIP3   OH224728   0.435   5.171   2.945 -0.0643  0.2260 -0.2148
 8255TIP3    H124729   0.479   5.252   2.973 -0.7103  0.0940  1.2880
 8255TIP3    H224730   0.488   5.101   2.983 -1.0207  0.0436  0.8476
 8256TIP3   OH224731   7.137   4.846   2.512 -0.4791  0.4313 -0.5784
 8256TIP3    H124732   7.056   4.893   2.530 -1.2050 -0.6420 -0.9599
 8256TIP3    H224733   7.178   4.895   2.440 -0.3580  1.4482  0.1588
 8257TIP3   OH224734   3.127   1.932   5.309 -0.0558 -0.0026  0.8335
 8257TIP3    H124735   3.140   1.959   5.218  1.1845 -2.4460  0.1704
 8257TIP3    H224736   3.211   1.892   5.334 -0.6596 -0.1801  2.7477
 8258TIP3   OH224737   1.752   6.587   4.640  0.4854 -0.2026  0.0262
 8258TIP3    H124738   1.694   6.587   4.716  2.0113  0.0004  1.2238
 8258TIP3    H224739   1.818   6.521   4.660  1.5674  0.6629 -0.5882
 8259TIP3   OH224740   2.643   6.201   2.879 -0.1691  0.1258  0.0142
 8259TIP3    H124741   2.680   6.131   2.932 -0.6360 -0.1496 -0.0197
 8259TIP3    H224742   2.566   6.230   2.927 -0.2237  0.3193 -0.1868
 8260TIP3   OH224743   1.975   0.543   3.796  0.2622  0.1913  0.5514
 8260TIP3    H124744   2.051   0.512   3.747  0.6416  0.3251  1.0497
 8260TIP3    H224745   1.915   0.468   3.795  0.0391  0.3620 -0.5511
 8261TIP3   OH224746   1.326   5.832   4.956  0.0294  0.4292 -0.0698
 8261TIP3    H124747   1.281   5.759   4.914 -1.0324  1.2833 -0.4695
 8261TIP3    H224748   1.419   5.817   4.939 -0.1232 -1.0824  0.2887
 8262TIP3   OH224749   1.146   5.929   1.291 -0.1680 -0.0218  0.3678
 8262TIP3    H124750   1.114   5.898   1.206  0.0290 -2.7369  1.1705
 8262TIP3    H224751   1.072   5.977   1.329 -1.3588 -1.3488 -0.1559
 8263TIP3   OH224752   0.627   3.249   2.180  0.3997  0.9450 -0.0426
 8263TIP3    H124753   0.660   3.272   2.267 -0.9527  0.7951  0.5295
 8263TIP3    H224754   0.675   3.307   2.120  1.4114  0.9889  0.7748
 8264TIP3   OH224755   6.642   0.977   2.716  0.0860 -0.0676 -0.3370
 8264TIP3    H124756   6.648   0.979   2.621  2.0134  0.1067 -0.2505
 8264TIP3    H224757   6.588   0.901   2.736 -2.1384  1.0897 -1.5877
 8265TIP3   OH224758   3.969   5.932   3.907 -0.0031  0.1375 -0.2185
 8265TIP3    H124759   3.925   5.848   3.889  1.3107 -0.2804 -1.6702
 8265TIP3    H224760   3.904   5.998   3.883 -0.5885 -0.4620 -0.3235
 8266TIP3   OH224761   0.211   5.774   1.383 -0.2330  0.0142 -0.5622
 8266TIP3    H124762   0.135   5.796   1.329  0.8262 -0.4512 -2.3259
 8266TIP3    H224763   0.245   5.694   1.344  1.4987  0.5253 -0.1658
 8267TIP3   OH224764   6.648   6.246   4.104  0.0775  0.1774  0.2217
 8267TIP3    H124765   6.608   6.324   4.068  0.4361 -0.0739 -0.7379
 8267TIP3    H224766   6.742   6.263   4.101  0.1145  0.5932  2.0697
 8268TIP3   OH224767   4.747   1.634   0.862  0.0415 -0.4287 -0.2593
 8268TIP3    H124768   4.728   1.569   0.794  0.9890  1.3603 -2.3416
 8268TIP3    H224769   4.795   1.585   0.930  1.9307 -1.6690 -2.3630
 8269TIP3   OH224770   1.697   6.533   3.808  0.3262  0.1349  0.0856
 8269TIP3    H124771   1.722   6.624   3.794  0.9477  0.4607  2.7947
 8269TIP3    H224772   1.778   6.489   3.831 -0.2283 -0.7714  0.3521
 8270TIP3   OH224773   6.516   3.226   4.302 -0.5765 -0.3557  0.1186
 8270TIP3    H124774   6.424   3.247   4.287 -0.3630  0.4599 -0.0851
 8270TIP3    H224775   6.546   3.291   4.366 -0.0251 -0.3442 -0.1425
 8271TIP3   OH224776   6.523   2.669   4.369  0.2936 -0.0334  0.1088
 8271TIP3    H124777   6.485   2.744   4.414  0.9235  0.6311 -0.4395
 8271TIP3    H224778   6.489   2.674   4.279  0.7224 -0.1195 -0.0627
 8272TIP3   OH224779   0.206   4.962   2.476 -0.3709  0.1000 -0.0621
 8272TIP3    H124780   0.206   4.875   2.436 -0.9574  0.4297 -0.7985
 8272TIP3    H224781   0.294   4.997   2.459 -0.0203 -0.4695  0.5303
 8273TIP3   OH224782   0.237   5.610   0.332  0.0804  0.2936  0.2243
 8273TIP3    H124783   0.213   5.518   0.320 -2.2058  0.3270  3.3187
 8273TIP3    H224784   0.333   5.609   0.340  0.2518 -1.5425 -1.3440
 8274TIP3   OH224785   1.725   2.577   4.778  0.5626 -0.3793 -0.3722
 8274TIP3    H124786   1.739   2.658   4.728  0.3107 -0.1076 -0.0158
 8274TIP3    H224787   1.637   2.588   4.815 -0.7516 -2.1034 -2.7059
 8275TIP3   OH224788   4.015   5.542   3.124  0.5670 -0.0845  0.0562
 8275TIP3    H124789   3.951   5.609   3.099 -0.9500 -1.3910  0.3151
 8275TIP3    H224790   4.100   5.586   3.115 -0.3460  1.7137 -0.2568
 8276TIP3   OH224791   5.300   1.297   0.000  0.2507  0.8041 -0.9436
 8276TIP3    H124792   5.256   1.331   0.078 -0.6572  3.5461 -2.5106
 8276TIP3    H224793   5.279   1.204  -0.002  0.4699  0.5977  2.1231
 8277TIP3   OH224794   1.600   5.949   0.564 -0.2209 -0.3739  0.0055
 8277TIP3    H124795   1.528   5.911   0.615  2.0873 -1.3083  2.8233
 8277TIP3    H224796   1.655   5.875   0.541 -0.6892  0.1572 -3.2303
 8278TIP3   OH224797   1.223   5.279   3.001  0.0129  0.0661 -0.0560
 8278TIP3    H124798   1.260   5.296   3.087 -0.8648  0.4301  0.2608
 8278TIP3    H224799   1.141   5.329   2.999 -0.2178 -0.3150 -0.9201
 8279TIP3   OH224800   7.128   0.527   5.489 -0.1783 -0.3857  0.0706
 8279TIP3    H124801   7.046   0.572   5.468  0.1563 -0.0438 -0.5239
 8279TIP3    H224802   7.141   0.466   5.416 -0.2982 -1.0013  0.5499
 8280TIP3   OH224803   5.446   6.740   2.233  0.5378 -0.2094  0.0192
 8280TIP3    H124804   5.486   6.823   2.258 -1.6044  0.6553  0.8448
 8280TIP3    H224805   5.380   6.724   2.301  0.9954 -2.6868 -0.0279
 8281TIP3   OH224806   5.970   5.825   4.026  0.2560  0.0098  0.1524
 8281TIP3    H124807   6.002   5.773   3.952 -1.1644  0.2611 -0.6677
 8281TIP3    H224808   5.883   5.854   4.000  0.1301  0.9726  1.5129
 8282TIP3   OH224809   3.907   3.098   0.069 -0.2956  0.7343  0.4292
 8282TIP3    H124810   3.857   3.178   0.058 -0.5726  0.4135 -0.8888
 8282TIP3    H224811   3.850   3.029   0.033  0.3627  0.1030  0.5689
 8283TIP3   OH224812   4.517   3.461   4.205  0.0058 -0.1127 -0.0624
 8283TIP3    H124813   4.482   3.384   4.160  0.6699 -0.5747  0.1937
 8283TIP3    H224814   4.510   3.532   4.142 -0.8779 -0.3126 -0.2088
 8284TIP3   OH224815   0.659   1.339   0.990 -0.1434 -0.2123 -0.3667
 8284TIP3    H124816   0.689   1.277   0.923  1.2604 -0.1991  0.2121
 8284TIP3    H224817   0.591   1.391   0.946 -0.5565 -1.4068 -1.2008
 8285TIP3   OH224818   7.101   4.507   1.155  0.1875  0.2204  0.2991
 8285TIP3    H124819   7.073   4.486   1.066  0.6516 -2.2181  0.6433
 8285TIP3    H224820   7.196   4.494   1.153  0.6154  2.7953  0.5458
 8286TIP3   OH224821   2.655   0.752   5.730  0.1101 -0.1933  0.2993
 8286TIP3    H124822   2.667   0.814   5.658 -0.8256  0.3773  0.6038
 8286TIP3    H224823   2.569   0.775   5.766 -1.4837 -3.2828 -1.1592
 8287TIP3   OH224824   2.364   4.545   3.402 -0.3944  0.6871 -0.3951
 8287TIP3    H124825   2.318   4.523   3.322 -1.0904  0.4928  0.0462
 8287TIP3    H224826   2.330   4.631   3.427 -3.3849 -0.9553  1.8935
 8288TIP3   OH224827   6.093   4.266   0.913 -0.1759  0.0321  0.1514
 8288TIP3    H124828   6.113   4.182   0.872 -0.2223 -0.8183  1.7541
 8288TIP3    H224829   6.115   4.252   1.006  2.2397  2.5727  0.0802
 8289TIP3   OH224830   4.853   2.248   5.542  0.2804 -0.0482  0.0198
 8289TIP3    H124831   4.910   2.171   5.547 -0.5751 -0.7892 -1.1396
 8289TIP3    H224832   4.906   2.314   5.498  0.0005 -1.0365 -1.9204
 8290TIP3   OH224833   4.239   5.066   2.140  0.0602  0.3792 -0.6300
 8290TIP3    H124834   4.233   5.135   2.206  1.8681  0.1239 -0.1372
 8290TIP3    H224835   4.201   4.989   2.183 -0.7290  0.7236 -0.6913
 8291TIP3   OH224836   4.179   1.721   5.077  0.4051  0.0949  0.4146
 8291TIP3    H124837   4.180   1.762   4.990  1.5918 -1.5267 -0.3648
 8291TIP3    H224838   4.100   1.757   5.118 -1.4072 -0.7072 -2.1264
 8292TIP3   OH224839   4.237   1.874   2.993  0.4142 -0.5913 -0.0962
 8292TIP3    H124840   4.291   1.945   2.960  0.1962 -0.8468 -1.0118
 8292TIP3    H224841   4.193   1.838   2.916 -1.6373  0.0796  0.6844
 8293TIP3   OH224842   2.858   6.458   3.039 -0.8651 -0.1749  0.5264
 8293TIP3    H124843   2.858   6.430   2.947 -1.5087  0.7875  0.2163
 8293TIP3    H224844   2.816   6.544   3.037 -2.2311 -0.7662  1.9129
 8294TIP3   OH224845   0.268   3.427   0.494  0.1201  0.1155  0.5424
 8294TIP3    H124846   0.223   3.343   0.505  0.2983 -0.1029 -0.3914
 8294TIP3    H224847   0.324   3.434   0.572  0.0700 -0.6067  0.6521
 8295TIP3   OH224848   2.559   3.383   5.712  0.3704 -0.1550  0.3303
 8295TIP3    H124849   2.609   3.395   5.632  0.4849 -0.7292  0.3125
 8295TIP3    H224850   2.525   3.293   5.706  1.1055 -0.5125  1.3284
 8296TIP3   OH224851   4.223   3.769   0.917  0.0098  0.3613  0.8823
 8296TIP3    H124852   4.236   3.863   0.906 -1.9217  0.3317 -4.8593
 8296TIP3    H224853   4.311   3.734   0.931  1.8076  2.6693 -3.0606
 8297TIP3   OH224854   3.970   0.901   1.766  0.5170  0.2373 -0.1500
 8297TIP3    H124855   3.891   0.918   1.715  0.1815 -0.6893  0.0504
 8297TIP3    H224856   4.041   0.934   1.710  0.1133 -0.2859 -0.9902
 8298TIP3   OH224857   0.111   3.481   1.824 -0.3620 -0.5841  0.4222
 8298TIP3    H124858   0.071   3.469   1.910  1.0263  2.0432  1.5473
 8298TIP3    H224859   0.205   3.472   1.839  0.0935  2.1192 -0.2797
 8299TIP3   OH224860   1.382   3.104   0.265  0.2897  0.1504 -0.1721
 8299TIP3    H124861   1.319   3.121   0.195 -1.1542  1.5091  1.3724
 8299TIP3    H224862   1.357   3.019   0.300 -0.9630  0.8429  0.6703
 8300TIP3   OH224863   0.720   0.718   4.613 -0.3843 -1.0031  0.7690
 8300TIP3    H124864   0.698   0.725   4.705 -0.1151 -0.9185  0.8281
 8300TIP3    H224865   0.725   0.809   4.582  0.7595 -0.9815  0.9698
 8301TIP3   OH224866   7.186   3.478   0.090 -0.6829  0.3935  0.4657
 8301TIP3    H124867   7.225   3.513   0.170 -0.0690 -0.1738  0.4175
 8301TIP3    H224868   7.190   3.383   0.100  2.3204  0.1818 -1.5662
 8302TIP3   OH224869   0.971   3.397   4.312 -0.0250  0.2788  0.3683
 8302TIP3    H124870   1.035   3.432   4.250  0.2043 -0.8223 -0.0393
 8302TIP3    H224871   0.998   3.306   4.327 -1.2291 -0.0758  0.5288
 8303TIP3   OH224872   6.623   6.425   3.142  0.5647  0.7093  0.2013
 8303TIP3    H124873   6.530   6.405   3.137  0.1529  2.5457 -0.5707
 8303TIP3    H224874   6.629   6.492   3.210  1.0119  1.9303 -0.9838
 8304TIP3   OH224875   0.661   2.441   1.144  0.0488  0.9004  0.0852
 8304TIP3    H124876   0.617   2.395   1.073 -2.1623 -0.8384  2.4020
 8304TIP3    H224877   0.745   2.395   1.154 -0.2333  0.2467 -0.4955
 8305TIP3   OH224878   4.186   4.866   4.545 -0.4334 -0.3682 -0.0880
 8305TIP3    H124879   4.270   4.830   4.573 -0.4336  0.5459  1.2295
 8305TIP3    H224880   4.122   4.800   4.570 -0.3891  0.2459  1.8597
 8306TIP3   OH224881   1.614   0.676   4.322 -0.0548 -0.5928 -0.5415
 8306TIP3    H124882   1.609   0.731   4.244 -0.5749  0.3711  0.1454
 8306TIP3    H224883   1.677   0.608   4.300  0.7016  0.3462 -1.3833
 8307TIP3   OH224884   1.298   5.284   5.360 -0.0136  0.8641 -0.0024
 8307TIP3    H124885   1.360   5.351   5.331  0.9980  0.0622  0.2323
 8307TIP3    H224886   1.298   5.219   5.291  1.7594 -0.6329  1.2970
 8308TIP3   OH224887   5.433   0.416   5.878 -0.4186  0.1855 -0.2602
 8308TIP3    H124888   5.498   0.461   5.932 -2.5825 -0.4575  3.1395
 8308TIP3    H224889   5.475   0.333   5.856  1.4645  1.4559 -1.8930
 8309TIP3   OH224890   1.887   1.503   5.299 -0.5208  0.1806 -0.0356
 8309TIP3    H124891   1.827   1.469   5.366  1.4928 -0.8439  1.3501
 8309TIP3    H224892   1.905   1.593   5.325 -0.0796 -0.0808  0.5931
 8310TIP3   OH224893   4.245   0.576   3.443 -0.1287  0.4764  0.3917
 8310TIP3    H124894   4.268   0.619   3.361  0.4935 -1.2939 -0.4201
 8310TIP3    H224895   4.182   0.508   3.417 -0.5673  0.4313  1.5100
 8311TIP3   OH224896   5.625   6.468   4.146  0.4538  0.2113 -0.0466
 8311TIP3    H124897   5.691   6.412   4.106 -1.2340 -1.4499 -0.6577
 8311TIP3    H224898   5.624   6.442   4.238  0.2076 -0.2635 -0.1760
 8312TIP3   OH224899   3.230   3.223   3.911  0.2676 -0.3607 -0.4802
 8312TIP3    H124900   3.262   3.193   3.826  1.6889  0.3820 -0.2292
 8312TIP3    H224901   3.290   3.185   3.974 -0.2982 -0.2332  0.1477
 8313TIP3   OH224902   0.812   4.934   0.260 -0.0992  0.7050 -0.1406
 8313TIP3    H124903   0.866   4.984   0.321  1.3962  1.2145 -1.7818
 8313TIP3    H224904   0.773   5.000   0.203 -1.5415  0.2475  0.2794
 8314TIP3   OH224905   2.854   0.881   3.773 -0.4730 -0.3636 -0.0111
 8314TIP3    H124906   2.783   0.941   3.751 -1.1463  0.3235  3.4679
 8314TIP3    H224907   2.820   0.794   3.752 -1.5092  0.1083 -0.3563
 8315TIP3   OH224908   2.279   1.525   3.845 -0.6525 -0.3445  0.2380
 8315TIP3    H124909   2.230   1.599   3.811 -1.2900  0.2236  2.2932
 8315TIP3    H224910   2.213   1.464   3.877 -0.0809 -0.9116  0.3703
 8316TIP3   OH224911   3.501   4.195   3.291 -0.2342 -0.0692  0.3461
 8316TIP3    H124912   3.416   4.153   3.276 -0.0684 -1.2590  2.3573
 8316TIP3    H224913   3.563   4.141   3.242 -0.0345 -2.3380  2.8377
 8317TIP3   OH224914   2.446   5.722   5.248  0.2476 -0.7938 -0.4720
 8317TIP3    H124915   2.501   5.749   5.321 -0.3671 -1.7005  0.3467
 8317TIP3    H224916   2.383   5.794   5.237  0.1413 -0.8002  0.1003
 8318TIP3   OH224917   3.957   0.623   4.991 -0.0911 -0.1134  0.2259
 8318TIP3    H124918   3.915   0.669   4.918 -1.2258  0.2636  1.1023
 8318TIP3    H224919   3.959   0.687   5.062  3.9385  0.6735 -0.3606
 8319TIP3   OH224920   1.353   3.966   4.505 -0.0760 -0.1067  0.3448
 8319TIP3    H124921   1.373   3.913   4.583  0.3317  1.2782  1.2297
 8319TIP3    H224922   1.337   4.054   4.540  0.6509  0.6737 -1.1932
 8320TIP3   OH224923   1.588   4.216   1.080 -0.0478 -0.2123 -0.6190
 8320TIP3    H124924   1.604   4.129   1.116  0.1263 -0.2789 -0.8557
 8320TIP3    H224925   1.510   4.206   1.025 -0.6644  0.0185  0.1987
 8321TIP3   OH224926   7.155   1.147   3.359  0.5611  0.1488 -0.0744
 8321TIP3    H124927   7.218   1.191   3.301  0.9072  0.1072  0.2709
 8321TIP3    H224928   7.123   1.073   3.306  0.2831  0.5681 -0.5041
 8322TIP3   OH224929   6.211   3.654   4.635 -0.3068  0.1754 -0.5908
 8322TIP3    H124930   6.251   3.649   4.548 -0.4423  0.1583 -0.6516
 8322TIP3    H224931   6.121   3.682   4.619  0.0760  1.6372 -0.3645
 8323TIP3   OH224932   1.953   4.776   5.612 -0.5805 -0.4821 -0.2873
 8323TIP3    H124933   1.886   4.833   5.648  0.3790  1.6281 -1.6524
 8323TIP3    H224934   1.964   4.805   5.522  2.0184 -0.8621 -0.1777
 8324TIP3   OH224935   5.731   4.569   5.347  0.3474 -0.8543 -0.5329
 8324TIP3    H124936   5.641   4.539   5.356  0.3680 -1.2342 -1.4437
 8324TIP3    H224937   5.732   4.657   5.385  0.1673 -1.7599  1.7285
 8325TIP3   OH224938   2.474   1.833   2.462 -0.1504  0.6082 -0.4057
 8325TIP3    H124939   2.482   1.924   2.433 -1.9632  2.1559  3.3506
 8325TIP3    H224940   2.382   1.825   2.488 -0.1337 -2.4930 -1.0000
 8326TIP3   OH224941   4.579   4.151   5.348 -0.5099  0.6599 -0.3574
 8326TIP3    H124942   4.541   4.097   5.278 -2.0485  0.9139  0.2325
 8326TIP3    H224943   4.607   4.231   5.304 -0.3334  0.3160 -0.8761
 8327TIP3   OH224944   2.946   5.250   2.349 -0.5999  0.3421 -0.6958
 8327TIP3    H124945   2.890   5.174   2.365  0.0346  0.1296  0.6263
 8327TIP3    H224946   3.001   5.257   2.427  0.8870  0.8456 -1.7350
 8328TIP3   OH224947   2.669   6.666   4.751  0.6292  0.1868  0.4797
 8328TIP3    H124948   2.600   6.651   4.687  1.4215  0.2250 -0.4166
 8328TIP3    H224949   2.684   6.581   4.792  1.7761 -0.4308 -1.1294
 8329TIP3   OH224950   1.529   4.815   1.263 -0.1345 -1.0897 -0.0954
 8329TIP3    H124951   1.539   4.844   1.172  0.1098  0.5127  0.4062
 8329TIP3    H224952   1.615   4.830   1.302  0.0676 -2.7522  0.1640
 8330TIP3   OH224953   3.255   0.923   2.011 -0.0573  0.0404  0.2100
 8330TIP3    H124954   3.197   0.877   1.949  2.2131 -1.8149 -0.6749
 8330TIP3    H224955   3.270   1.008   1.969 -0.6641 -0.1566 -0.4505
 8331TIP3   OH224956   2.863   1.857   5.782 -0.0958  0.0919 -0.8732
 8331TIP3    H124957   2.955   1.868   5.758  0.4174  1.8782  1.5313
 8331TIP3    H224958   2.862   1.863   5.878 -2.5700 -1.2546 -0.7239
 8332TIP3   OH224959   0.816   1.507   2.551 -0.1039  0.0884  0.3433
 8332TIP3    H124960   0.781   1.418   2.552 -0.3955  0.1404 -1.4870
 8332TIP3    H224961   0.739   1.563   2.545  0.1007  0.4552  1.0705
 8333TIP3   OH224962   6.558   6.675   2.292 -0.2946  0.3810  0.3906
 8333TIP3    H124963   6.623   6.668   2.362  0.0215  1.0018  0.1734
 8333TIP3    H224964   6.607   6.714   2.219 -0.9778  1.1475  0.3231
 8334TIP3   OH224965   6.244   3.058   1.042 -0.2537  0.2107  0.2987
 8334TIP3    H124966   6.218   3.147   1.066 -0.8151 -0.0762  0.7825
 8334TIP3    H224967   6.168   3.021   0.998 -0.4152 -0.3859  1.0621
 8335TIP3   OH224968   3.950   5.725   2.304  0.1263  0.1539 -0.0876
 8335TIP3    H124969   4.018   5.672   2.262 -1.3865 -1.9419 -0.0524
 8335TIP3    H224970   3.900   5.663   2.357 -2.4849  1.3899 -0.9400
 8336TIP3   OH224971   3.699   1.943   0.069  0.7463 -0.3634  0.3392
 8336TIP3    H124972   3.612   1.921   0.102  0.3824  0.7602  0.1992
 8336TIP3    H224973   3.683   1.977  -0.019  0.9674  2.2349  1.2081
 8337TIP3   OH224974   1.931   1.935   1.218  0.2685  0.3703  0.3062
 8337TIP3    H124975   2.007   1.894   1.259  0.0620 -0.9308 -0.5471
 8337TIP3    H224976   1.904   2.003   1.279  0.1334 -1.2925  2.2128
 8338TIP3   OH224977   5.194   1.960   4.353 -0.0916 -0.4678  0.0084
 8338TIP3    H124978   5.278   1.944   4.310  0.6829  0.3888  1.1490
 8338TIP3    H224979   5.139   1.886   4.326  1.1402 -1.2463 -0.4673
 8339TIP3   OH224980   0.049   5.616   1.615  0.4553 -0.0252 -0.1378
 8339TIP3    H124981   0.057   5.670   1.694  0.8431 -0.9663  0.4821
 8339TIP3    H224982   0.045   5.526   1.647  0.9409 -0.4482 -1.2005
 8340TIP3   OH224983   4.605   5.763   0.386  0.3508  0.6012 -0.3173
 8340TIP3    H124984   4.589   5.668   0.387  0.0802  0.6100 -2.0317
 8340TIP3    H224985   4.600   5.788   0.478 -2.2313 -0.6127 -0.0233
 8341TIP3   OH224986   0.598   1.307   2.341  0.4143  0.1551  0.5840
 8341TIP3    H124987   0.507   1.335   2.332 -0.0392 -1.6277 -1.1400
 8341TIP3    H224988   0.603   1.268   2.428 -0.1653  1.2579  1.1252
 8342TIP3   OH224989   1.187   4.408   3.234 -0.5565 -0.7879  0.0962
 8342TIP3    H124990   1.261   4.466   3.250 -1.1851  0.7084 -1.9461
 8342TIP3    H224991   1.181   4.354   3.312  1.9491 -0.1627  0.8077
 8343TIP3   OH224992   5.618   1.958   2.817 -0.4980 -1.2107  0.2468
 8343TIP3    H124993   5.630   1.863   2.814 -0.7908 -1.2521  0.3389
 8343TIP3    H224994   5.541   1.971   2.874 -0.2028 -0.8981  0.5784
 8344TIP3   OH224995   6.648   0.957   4.794 -0.4578  0.4501  0.0283
 8344TIP3    H124996   6.732   0.921   4.767 -0.6204  1.1092 -1.4135
 8344TIP3    H224997   6.643   1.042   4.751 -1.7726  0.5176  0.2668
 8345TIP3   OH224998   1.704   2.802   1.843 -0.2146 -0.4594 -0.2288
 8345TIP3    H124999   1.623   2.839   1.879 -0.9378 -1.8017 -0.4118
 8345TIP3    H225000   1.684   2.786   1.751  0.8231  0.6860 -0.6857
 8346TIP3   OH225001   3.980   3.101   4.480 -0.3353  0.7294 -0.4750
 8346TIP3    H125002   3.933   3.121   4.399  0.8673  0.4694 -1.2654
 8346TIP3    H225003   3.955   3.171   4.541 -2.9247 -0.2224 -0.3306
 8347TIP3   OH225004   6.702   0.804   1.197  0.1307  0.0725 -0.1826
 8347TIP3    H125005   6.746   0.819   1.114 -0.2177  1.9115 -0.0706
 8347TIP3    H225006   6.617   0.766   1.172  0.6673 -0.9361 -0.5401
 8348TIP3   OH225007   5.005   2.400   0.326 -0.3212 -0.0120  0.0329
 8348TIP3    H125008   4.916   2.364   0.325  0.1411 -1.2000  0.2792
 8348TIP3    H225009   5.044   2.365   0.406  0.8355 -0.7230 -0.8138
 8349TIP3   OH225010   4.478   2.182   3.169 -0.8467  0.7180  0.2781
 8349TIP3    H125011   4.558   2.182   3.221 -0.7322  0.7089  0.1020
 8349TIP3    H225012   4.415   2.134   3.222 -0.0079 -1.6111 -0.6793
 8350TIP3   OH225013   4.473   5.323   4.369 -0.0098  0.5766  0.4952
 8350TIP3    H125014   4.500   5.263   4.299 -1.4492 -0.1716  0.5329
 8350TIP3    H225015   4.553   5.342   4.418  0.7794  0.0681 -0.5682
 8351TIP3   OH225016   0.087   1.660   0.016 -0.3352  0.3552  0.1596
 8351TIP3    H125017   0.175   1.653  -0.020 -0.2476  1.6820  0.0769
 8351TIP3    H225018   0.098   1.706   0.099 -0.6672 -1.7458  1.4599
 8352TIP3   OH225019   4.055   3.028   2.693 -0.3073 -0.0025  0.0782
 8352TIP3    H125020   4.049   3.079   2.612 -1.9094  0.2512  0.3300
 8352TIP3    H225021   4.065   3.093   2.762 -0.1852 -0.1553  0.2053
 8353TIP3   OH225022   0.376   5.579   2.423 -0.0090 -0.4089  0.7114
 8353TIP3    H125023   0.292   5.593   2.467 -1.5485 -1.1612 -1.8099
 8353TIP3    H225024   0.412   5.667   2.412 -0.3224 -0.1008  2.0365
 8354TIP3   OH225025   6.097   1.232   0.010  0.3426 -0.1330 -0.2540
 8354TIP3    H125026   6.085   1.174  -0.066  0.7589 -0.2071 -0.2655
 8354TIP3    H225027   6.013   1.228   0.056 -0.8022  1.7746 -1.9883
 8355TIP3   OH225028   3.686   0.924   5.141  0.5625  0.1713  0.6030
 8355TIP3    H125029   3.678   0.992   5.073  0.8105 -0.1221  0.2809
 8355TIP3    H225030   3.601   0.879   5.139  1.0645 -0.7775 -0.5227
 8356TIP3   OH225031   4.172   3.225   3.967 -0.9909 -0.4794  0.0509
 8356TIP3    H125032   4.224   3.171   3.908  0.1991  0.9675 -0.2953
 8356TIP3    H225033   4.195   3.194   4.055  0.6503  0.2453 -0.0852
 8357TIP3   OH225034   0.480   3.331   3.750 -0.0688  0.1671 -0.2414
 8357TIP3    H125035   0.431   3.291   3.679  2.1205  0.3075 -1.9304
 8357TIP3    H225036   0.414   3.375   3.803 -2.0905 -2.2986 -0.5454
 8358TIP3   OH225037   7.198   6.089   1.819 -0.1811 -0.1741  0.3225
 8358TIP3    H125038   7.165   6.093   1.730  0.4718 -0.4509  0.0629
 8358TIP3    H225039   7.120   6.080   1.874 -0.5508 -0.5096 -0.2541
 8359TIP3   OH225040   5.681   5.910   3.054  0.1540  0.1645 -0.0655
 8359TIP3    H125041   5.696   5.886   2.963 -0.6254 -0.1056 -0.1287
 8359TIP3    H225042   5.657   5.828   3.098 -2.2227  0.6810 -0.2204
 8360TIP3   OH225043   4.764   1.909   4.652 -0.3763  0.4844 -0.1031
 8360TIP3    H125044   4.711   1.889   4.575 -0.0123 -2.3787  0.2944
 8360TIP3    H225045   4.704   1.953   4.712 -1.1984  0.8891 -1.1909
 8361TIP3   OH225046   3.478   2.143   4.325 -0.1165 -0.1668 -0.3970
 8361TIP3    H125047   3.569   2.167   4.341 -0.1280 -0.9047  0.9742
 8361TIP3    H225048   3.482   2.076   4.258  0.3367 -0.0503 -0.4884
 8362TIP3   OH225049   6.427   3.491   0.760  0.2738  0.3860 -0.3657
 8362TIP3    H125050   6.448   3.574   0.801  2.5986  0.2322 -1.0956
 8362TIP3    H225051   6.489   3.483   0.688  1.2858 -2.6864  0.6503
 8363TIP3   OH225052   7.166   2.255   3.195  0.0793  0.1942  0.6189
 8363TIP3    H125053   7.129   2.299   3.272  0.0902  1.0795  0.1309
 8363TIP3    H225054   7.246   2.304   3.176 -0.2607  0.4085 -0.3419
 8364TIP3   OH225055   3.538   3.024   2.631  0.0173 -0.6513  0.2118
 8364TIP3    H125056   3.607   2.966   2.600  0.8307  0.6883 -0.5825
 8364TIP3    H225057   3.581   3.084   2.692 -0.6397 -0.3860  0.4278
 8365TIP3   OH225058   0.025   3.012   1.112  0.0903 -0.6266  0.5404
 8365TIP3    H125059   0.019   2.977   1.201  0.9629 -0.3001  0.7348
 8365TIP3    H225060   0.085   2.953   1.067  0.2519 -0.3462  0.3876
 8366TIP3   OH225061   6.145   2.189   1.060  0.0869  0.1369 -0.3097
 8366TIP3    H125062   6.104   2.267   1.099 -1.5834 -0.6853 -0.3315
 8366TIP3    H225063   6.136   2.202   0.966  0.2091  0.1354 -0.3207
 8367TIP3   OH225064   5.716   6.538   5.073 -0.1341  0.3059 -0.8089
 8367TIP3    H125065   5.623   6.560   5.073  0.0381  1.1131  0.1602
 8367TIP3    H225066   5.760   6.623   5.071  0.5666  0.0139  0.9326
 8368TIP3   OH225067   4.534   6.744   5.732  0.1132  1.0071  0.0030
 8368TIP3    H125068   4.496   6.769   5.816  1.8509  1.1405  0.7866
 8368TIP3    H225069   4.548   6.828   5.687  0.2942  1.0100  0.0682
 8369TIP3   OH225070   2.303   3.356   0.107  0.0967 -0.5650 -0.2133
 8369TIP3    H125071   2.377   3.408   0.138  0.0045 -0.3007 -0.4327
 8369TIP3    H225072   2.333   3.319   0.023  0.4808 -1.5719  0.3483
 8370TIP3   OH225073   0.437   4.423   5.806  0.5014 -0.0696 -0.4686
 8370TIP3    H125074   0.350   4.425   5.768  0.3834 -0.4687 -0.2223
 8370TIP3    H225075   0.482   4.352   5.760  0.1969 -0.8927  0.4693
 8371TIP3   OH225076   2.560   4.216   5.321  0.3346  0.2716 -0.1819
 8371TIP3    H125077   2.644   4.235   5.280 -0.5307 -1.3429 -2.9740
 8371TIP3    H225078   2.498   4.275   5.278 -0.0146  1.7475  2.1414
 8372TIP3   OH225079   2.646   0.367   1.679  0.0951 -0.1207 -0.1855
 8372TIP3    H125080   2.696   0.419   1.743 -1.1409  1.4132 -0.4031
 8372TIP3    H225081   2.558   0.364   1.715 -0.4579  0.1987 -1.4793
 8373TIP3   OH225082   0.455   5.139   5.758  0.4434 -0.2105 -0.2833
 8373TIP3    H125083   0.501   5.191   5.691 -1.0875  0.9723 -0.4945
 8373TIP3    H225084   0.413   5.205   5.814 -1.8339 -1.1828 -0.7333
 8374TIP3   OH225085   1.381   2.871   3.334  0.3022 -0.1680  0.1184
 8374TIP3    H125086   1.348   2.911   3.414  0.2804  1.7911 -0.8134
 8374TIP3    H225087   1.375   2.940   3.268  0.5276 -1.6451 -1.5336
 8375TIP3   OH225088   5.652   2.764   3.975  0.3620 -0.2553 -0.1057
 8375TIP3    H125089   5.658   2.857   3.953  1.4913 -0.1731  0.4771
 8375TIP3    H225090   5.657   2.762   4.071  0.3315 -0.9221 -0.1147
 8376TIP3   OH225091   0.283   1.369   4.925  0.5637  0.6316  0.0460
 8376TIP3    H125092   0.271   1.412   4.840  0.2098  2.9378  1.1821
 8376TIP3    H225093   0.193   1.355   4.957  0.6744 -0.9402 -0.2458
 8377TIP3   OH225094   3.570   5.063   0.585 -0.0028  0.0235 -0.2735
 8377TIP3    H125095   3.480   5.070   0.619 -0.4056  0.3649 -1.3826
 8377TIP3    H225096   3.561   5.019   0.501  0.5710  2.2007 -1.5464
 8378TIP3   OH225097   2.531   5.194   1.959 -0.7620  0.1705 -0.1615
 8378TIP3    H125098   2.586   5.218   1.884 -1.0348  1.4891  0.0359
 8378TIP3    H225099   2.548   5.262   2.024 -1.0109 -0.6067  0.7373
 8379TIP3   OH225100   1.546   2.126   4.130 -0.1095 -0.1101 -0.1025
 8379TIP3    H125101   1.549   2.164   4.043 -1.3025  0.0516 -0.0835
 8379TIP3    H225102   1.616   2.171   4.178 -0.3417  0.7893 -0.5822
 8380TIP3   OH225103   2.673   4.089   2.550 -0.6731  0.1311 -0.2638
 8380TIP3    H125104   2.585   4.101   2.515 -1.2995 -1.2207  0.7667
 8380TIP3    H225105   2.660   4.052   2.638  0.9052  0.6657  0.2363
 8381TIP3   OH225106   1.554   1.419   5.252 -0.5093 -0.5070 -0.2287
 8381TIP3    H125107   1.574   1.512   5.246 -0.8193 -0.4635 -0.6400
 8381TIP3    H225108   1.539   1.403   5.345  0.4033 -0.3307 -0.0403
 8382TIP3   OH225109   3.830   4.954   0.657  0.3797  0.5108  0.3517
 8382TIP3    H125110   3.875   4.932   0.739  0.4003  1.3415  0.5738
 8382TIP3    H225111   3.744   4.985   0.685 -0.5034 -1.3527 -0.0854
 8383TIP3   OH225112   4.588   6.240   0.804  0.1989 -0.0499  0.1873
 8383TIP3    H125113   4.542   6.188   0.869 -0.2068 -0.3312 -0.3136
 8383TIP3    H225114   4.521   6.299   0.769  0.7480  1.1504  1.0664
 8384TIP3   OH225115   4.608   6.004   5.796  0.5059 -0.1703  0.1058
 8384TIP3    H125116   4.580   6.094   5.778 -2.3253 -1.2780 -1.5718
 8384TIP3    H225117   4.699   6.001   5.767 -0.2321  1.4195 -2.7381
 8385TIP3   OH225118   3.408   6.520   5.634  0.3807  0.1040  0.1868
 8385TIP3    H125119   3.411   6.446   5.695  2.1115 -1.1115 -1.2764
 8385TIP3    H225120   3.336   6.498   5.574 -1.4420  1.3866  1.7908
 8386TIP3   OH225121   0.842   1.921   2.796 -0.4545 -0.9272 -0.4552
 8386TIP3    H125122   0.817   1.997   2.744  1.8807  0.4656  0.2915
 8386TIP3    H225123   0.892   1.866   2.735  0.6511 -0.2199 -0.2225
 8387TIP3   OH225124   1.248   4.187   0.646  0.1776  0.4184  0.8160
 8387TIP3    H125125   1.260   4.102   0.604 -1.4712  0.2992  0.5241
 8387TIP3    H225126   1.282   4.250   0.582 -0.2524  0.0816  0.2410
 8388TIP3   OH225127   1.524   6.040   4.249 -0.0145 -0.1854 -0.0919
 8388TIP3    H125128   1.501   5.950   4.225  1.1948 -0.1205 -1.7187
 8388TIP3    H225129   1.618   6.046   4.230 -0.0702  1.4108  0.0288
 8389TIP3   OH225130   6.314   1.003   1.379 -0.0219  0.2850  0.1962
 8389TIP3    H125131   6.227   1.019   1.340  0.0480  0.6029  0.1709
 8389TIP3    H225132   6.374   1.055   1.326  0.1270  0.4179  0.4944
 8390TIP3   OH225133   1.219   2.882   1.322 -0.4132  0.6271 -0.2171
 8390TIP3    H125134   1.234   2.841   1.237  0.7706  0.5954 -0.0011
 8390TIP3    H225135   1.219   2.976   1.305 -1.4859  0.6028 -0.4445
 8391TIP3   OH225136   2.352   3.304   3.541 -0.4531 -0.1074 -0.6815
 8391TIP3    H125137   2.266   3.279   3.506 -0.6096 -0.6042  0.0445
 8391TIP3    H225138   2.382   3.226   3.587  0.6006 -0.0958 -1.3178
 8392TIP3   OH225139   2.449   2.480   2.634  0.2418 -0.2818  0.2113
 8392TIP3    H125140   2.418   2.444   2.551 -1.3768  2.0142 -0.2625
 8392TIP3    H225141   2.541   2.454   2.638 -0.0028 -1.6425 -1.5867
 8393TIP3   OH225142   2.543   2.860   3.428 -0.3123 -0.2420  0.9873
 8393TIP3    H125143   2.569   2.911   3.504  0.0060 -0.8069  1.2618
 8393TIP3    H225144   2.600   2.892   3.357  1.1395 -1.4280  1.5685
 8394TIP3   OH225145   3.059   2.092   1.101  0.2388  0.1712  0.5614
 8394TIP3    H125146   3.095   2.124   1.018  1.3525  0.5104  1.1415
 8394TIP3    H225147   2.979   2.046   1.077  0.5226  0.2953 -0.6926
 8395TIP3   OH225148   1.365   6.663   2.437  0.2315  0.4363  0.0530
 8395TIP3    H125149   1.309   6.633   2.365  0.7213 -2.3449  0.7014
 8395TIP3    H225150   1.317   6.735   2.476 -3.1322 -1.9004  0.7066
 8396TIP3   OH225151   7.092   4.560   0.128  0.3936 -0.7109  0.1283
 8396TIP3    H125152   7.032   4.612   0.180 -0.6552  0.1946 -1.8834
 8396TIP3    H225153   7.039   4.486   0.097  0.5612 -0.4444 -0.8313
 8397TIP3   OH225154   1.669   4.214   0.292 -0.1878  0.0273 -0.0083
 8397TIP3    H125155   1.640   4.292   0.243 -1.0024  0.0074  0.4218
 8397TIP3    H225156   1.747   4.243   0.339 -0.8453  0.7955  0.6575
 8398TIP3   OH225157   5.045   3.978   3.422  0.0973 -0.1954 -0.3571
 8398TIP3    H125158   5.023   4.065   3.457 -0.9138 -0.4754 -0.2665
 8398TIP3    H225159   5.133   3.989   3.386 -0.3708  1.1217 -1.1742
 8399TIP3   OH225160   2.371   4.223   1.605  0.6685  0.3427 -0.4602
 8399TIP3    H125161   2.277   4.232   1.617  0.8235  1.6782 -0.0776
 8399TIP3    H225162   2.392   4.277   1.529  1.0057 -0.7264 -1.1543
 8400TIP3   OH225163   6.406   2.090   2.173 -0.1065  0.0620 -0.7969
 8400TIP3    H125164   6.399   1.996   2.189 -2.0847  0.1534 -0.8738
 8400TIP3    H225165   6.364   2.103   2.088 -0.6057  1.1172 -0.4015
 8401TIP3   OH225166   2.789   4.323   5.216  0.2921  0.7660  0.0338
 8401TIP3    H125167   2.873   4.294   5.251  1.1418 -0.5079 -2.7834
 8401TIP3    H225168   2.801   4.416   5.198  0.2784  1.1244  1.7002
 8402TIP3   OH225169   5.923   5.340   5.093 -0.8907 -0.3759 -0.1592
 8402TIP3    H125170   5.999   5.396   5.104 -0.8635 -0.4351 -0.0434
 8402TIP3    H225171   5.959   5.251   5.092 -1.1718 -0.5614  2.2267
 8403TIP3   OH225172   2.981   2.932   0.726  0.5222  0.1121  0.4061
 8403TIP3    H125173   2.922   2.936   0.801 -0.8189 -1.5671 -0.4765
 8403TIP3    H225174   2.933   2.974   0.655  1.0970  0.2437  0.0848
 8404TIP3   OH225175   0.252   4.683   1.301 -0.5661 -0.3465  0.2724
 8404TIP3    H125176   0.321   4.744   1.277  0.0729 -0.4375  1.7448
 8404TIP3    H225177   0.255   4.681   1.397 -2.5615 -0.4247  0.3582
 8405TIP3   OH225178   0.350   4.175   2.439  0.6049  0.1359 -0.4285
 8405TIP3    H125179   0.329   4.209   2.352 -0.0445 -0.6915 -0.6137
 8405TIP3    H225180   0.278   4.205   2.494  0.4188 -0.2985 -0.4313
 8406TIP3   OH225181   0.890   1.504   4.950 -0.5356  0.0513 -0.5122
 8406TIP3    H125182   0.816   1.536   4.899 -0.4091  0.8927 -0.1920
 8406TIP3    H225183   0.967   1.534   4.902 -0.4165  0.6662  0.0418
 8407TIP3   OH225184   2.746   3.157   3.182 -0.0001  0.0871 -0.0369
 8407TIP3    H125185   2.742   3.248   3.151  1.1564 -0.0161 -0.5287
 8407TIP3    H225186   2.684   3.154   3.255 -1.1851  0.8857 -0.9734
 8408TIP3   OH225187   4.032   1.120   5.136 -0.2783 -0.0757  0.1690
 8408TIP3    H125188   4.092   1.055   5.099 -1.2927 -1.2010  0.4440
 8408TIP3    H225189   4.064   1.135   5.225  2.2195  2.7012 -0.9995
 8409TIP3   OH225190   4.150   4.844   4.262  0.1080 -0.6434 -0.2760
 8409TIP3    H125191   4.138   4.858   4.356  1.4495 -0.0068 -0.1873
 8409TIP3    H225192   4.224   4.899   4.238 -0.5850 -0.3271 -1.8400
 8410TIP3   OH225193   4.685   3.094   5.032 -0.5982 -0.0089 -0.0486
 8410TIP3    H125194   4.718   3.031   5.097  0.2407  1.2012  0.7409
 8410TIP3    H225195   4.736   3.173   5.048 -2.1015  1.0973 -0.5723
 8411TIP3   OH225196   0.928   3.283   0.324  0.0781 -0.5982 -0.1041
 8411TIP3    H125197   0.973   3.348   0.270  1.1601 -0.1416  1.2749
 8411TIP3    H225198   0.840   3.318   0.334  0.2027 -0.1084 -0.6358
 8412TIP3   OH225199   3.246   4.436   4.327 -0.2176  0.0396 -0.0980
 8412TIP3    H125200   3.206   4.463   4.410 -0.4140 -0.2160 -0.1114
 8412TIP3    H225201   3.178   4.452   4.262  1.1113  3.9841 -0.8494
 8413TIP3   OH225202   4.581   5.165   4.183 -0.0675 -0.2219 -0.2799
 8413TIP3    H125203   4.579   5.167   4.087  0.8672 -0.4078 -0.3125
 8413TIP3    H225204   4.661   5.117   4.204  1.7042  2.8721  0.6000
 8414TIP3   OH225205   0.648   2.851   1.965 -0.0870 -0.7988  0.0613
 8414TIP3    H125206   0.629   2.885   2.052  3.0464 -0.5343  0.7755
 8414TIP3    H225207   0.565   2.857   1.918 -1.1478  2.1814  1.9989
 8415TIP3   OH225208   2.404   5.255   3.461  0.1482 -0.2930  0.4116
 8415TIP3    H125209   2.410   5.339   3.417 -1.1976 -0.7212 -0.6734
 8415TIP3    H225210   2.396   5.276   3.554  1.1221  0.7095  0.2775
 8416TIP3   OH225211   5.689   5.591   4.844 -0.1849 -0.1833 -0.4790
 8416TIP3    H125212   5.692   5.684   4.821  0.9143 -0.2577 -0.6698
 8416TIP3    H225213   5.741   5.585   4.924 -1.6897 -0.3733  0.5277
 8417TIP3   OH225214   1.433   6.458   1.904  0.2055 -0.3716  0.4755
 8417TIP3    H125215   1.510   6.418   1.944  0.9873  1.8711  1.3656
 8417TIP3    H225216   1.465   6.494   1.821 -0.0581 -0.0602  0.5081
 8418TIP3   OH225217   5.779   5.862   1.138 -0.3134 -0.2591  0.4841
 8418TIP3    H125218   5.840   5.935   1.146  0.2010 -0.3737 -1.7648
 8418TIP3    H225219   5.694   5.903   1.122  0.0862 -0.1115 -1.4351
 8419TIP3   OH225220   1.569   0.079   2.591  0.3162  0.1356 -0.3749
 8419TIP3    H125221   1.658   0.046   2.579  0.1114  0.2305 -2.5555
 8419TIP3    H225222   1.572   0.169   2.560 -0.4782  0.2193 -0.2347
 8420TIP3   OH225223   1.183   2.749   3.040 -0.0424  0.1782  0.1106
 8420TIP3    H125224   1.268   2.706   3.035  0.1049  0.4507  0.2715
 8420TIP3    H225225   1.201   2.841   3.024 -0.3172  0.2260  0.0747
 8421TIP3   OH225226   6.837   3.091   0.648 -0.0216  0.7886 -0.2783
 8421TIP3    H125227   6.754   3.049   0.625 -1.1891  1.8165  1.8124
 8421TIP3    H225228   6.900   3.054   0.586 -1.5028 -1.9717 -0.2820
 8422TIP3   OH225229   5.403   4.072   4.344 -0.2982 -0.4802  0.2281
 8422TIP3    H125230   5.323   4.097   4.298  0.3629 -1.4031 -1.4869
 8422TIP3    H225231   5.474   4.102   4.287  0.5862 -0.6601  1.1968
 8423TIP3   OH225232   6.403   3.726   1.138  0.1448  0.4478 -0.1733
 8423TIP3    H125233   6.414   3.738   1.043 -3.0295  0.3430 -0.6502
 8423TIP3    H225234   6.401   3.631   1.150  1.8181  0.4402  0.2253
 8424TIP3   OH225235   3.114   5.190   4.423  0.2329 -0.2224 -0.1147
 8424TIP3    H125236   3.160   5.106   4.426 -1.1179 -0.9818  0.0810
 8424TIP3    H225237   3.184   5.255   4.416  1.2428 -1.4767 -3.0858
 8425TIP3   OH225238   4.624   6.049   1.918 -0.3065  0.3078  0.7159
 8425TIP3    H125239   4.601   6.131   1.962 -1.1077 -0.3778  1.6230
 8425TIP3    H225240   4.628   5.984   1.989  0.2732 -0.4562  0.0105
 8426TIP3   OH225241   4.363   5.631   2.013 -0.0692  0.3619 -0.2550
 8426TIP3    H125242   4.305   5.603   1.943  0.1375  0.3197 -0.4099
 8426TIP3    H225243   4.425   5.559   2.023 -0.9390 -0.2628  0.9207
 8427TIP3   OH225244   6.580   5.647   5.450 -0.0905 -0.0014 -0.9320
 8427TIP3    H125245   6.665   5.605   5.446  0.8651  1.4924  1.3996
 8427TIP3    H225246   6.530   5.596   5.514 -0.4916 -0.1039 -1.3193
 8428TIP3   OH225247   5.860   1.067   0.680  0.2953 -0.1329  0.2065
 8428TIP3    H125248   5.786   1.076   0.740 -0.9875 -1.9267 -0.9829
 8428TIP3    H225249   5.820   1.046   0.596  2.0917 -4.6211  0.1856
 8429TIP3   OH225250   0.758   1.559   5.399  0.6977 -0.0157  0.1106
 8429TIP3    H125251   0.716   1.605   5.327 -1.4175 -1.7023  0.1642
 8429TIP3    H225252   0.824   1.504   5.358  2.7020  2.3322 -0.0222
 8430TIP3   OH225253   6.340   6.482   2.750 -0.1852  0.2705  0.2833
 8430TIP3    H125254   6.356   6.520   2.664 -0.5675 -2.0558 -0.8794
 8430TIP3    H225255   6.401   6.408   2.756 -0.2523  0.3028  1.9763
 8431TIP3   OH225256   6.019   4.331   4.433  0.4977  0.6173  0.3247
 8431TIP3    H125257   6.075   4.325   4.511 -0.3273  0.2497  0.9005
 8431TIP3    H225258   5.932   4.308   4.464  0.3892 -0.8731 -0.9861
 8432TIP3   OH225259   5.851   3.825   3.536  0.5816 -0.5728  0.4968
 8432TIP3    H125260   5.849   3.877   3.455  0.4826 -0.5778  0.4959
 8432TIP3    H225261   5.816   3.885   3.603 -0.0886 -0.8328  0.3855
 8433TIP3   OH225262   5.303   5.269   3.275  0.5497 -0.0698 -0.1046
 8433TIP3    H125263   5.212   5.290   3.293 -0.2554 -2.5169 -0.9630
 8433TIP3    H225264   5.310   5.266   3.180  1.3287 -0.6269 -0.0445
 8434TIP3   OH225265   5.323   0.973   0.956  0.1010 -0.2063 -0.4694
 8434TIP3    H125266   5.326   1.018   1.040  0.1490 -0.1166 -0.5195
 8434TIP3    H225267   5.367   0.889   0.973  1.9978  0.6433 -0.9136
 8435TIP3   OH225268   4.597   0.165   3.504  0.2482  0.2158  0.5148
 8435TIP3    H125269   4.692   0.179   3.503  0.3084 -0.1052 -0.9347
 8435TIP3    H225270   4.587   0.070   3.515  0.0692  0.2887  1.0407
 8436TIP3   OH225271   0.151   1.458   1.924  0.3546  0.4744  0.9012
 8436TIP3    H125272   0.058   1.436   1.932 -0.2172  0.9225 -2.6764
 8436TIP3    H225273   0.152   1.554   1.920  0.6551  0.4307 -0.9704
 8437TIP3   OH225274   6.216   1.833   1.126  0.1365  0.6605 -0.0572
 8437TIP3    H125275   6.123   1.847   1.105  0.0111  0.7785  0.5591
 8437TIP3    H225276   6.251   1.921   1.139  0.4760  0.6502 -0.8359
 8438TIP3   OH225277   6.614   5.617   0.801  0.1229 -0.2929 -0.0032
 8438TIP3    H125278   6.553   5.557   0.845  0.3368 -0.1076  0.5588
 8438TIP3    H225279   6.585   5.618   0.710 -1.2193  0.3993  0.3976
 8439TIP3   OH225280   4.482   4.182   5.611 -0.4789 -0.0169  0.0494
 8439TIP3    H125281   4.528   4.158   5.530  2.0986  0.3386  1.2871
 8439TIP3    H225282   4.426   4.107   5.630  0.1169 -0.8234 -1.2024
 8440TIP3   OH225283   4.822   0.552   1.162 -0.2255  0.6531  0.1317
 8440TIP3    H125284   4.879   0.524   1.090  0.2440  0.4983  0.5556
 8440TIP3    H225285   4.865   0.629   1.198  0.0794  0.1539  0.8735
 8441TIP3   OH225286   5.451   5.160   4.833  0.0878  0.6050 -0.3686
 8441TIP3    H125287   5.508   5.222   4.878  2.6877 -2.4422  0.8980
 8441TIP3    H225288   5.417   5.104   4.903 -1.3449 -0.0855 -1.5506
 8442TIP3   OH225289   3.816   5.315   2.280 -0.5341 -0.0495 -0.0085
 8442TIP3    H125290   3.840   5.392   2.331  0.7778  0.2713 -1.0370
 8442TIP3    H225291   3.736   5.339   2.234  0.4870  1.1666 -1.2255
 8443TIP3   OH225292   6.805   5.712   1.970 -0.0488  0.0288 -0.4629
 8443TIP3    H125293   6.844   5.716   2.057  0.6881 -0.8239 -0.7421
 8443TIP3    H225294   6.722   5.759   1.979 -0.5153 -0.9882  1.0002
 8444TIP3   OH225295   4.165   0.199   4.369 -0.1105 -0.6493  0.0773
 8444TIP3    H125296   4.136   0.123   4.319 -0.0058  0.2716 -1.4263
 8444TIP3    H225297   4.251   0.175   4.403  0.8471 -0.5081 -2.0796
 8445TIP3   OH225298   0.718   6.280   4.448 -0.0591 -0.2368  0.1590
 8445TIP3    H125299   0.654   6.256   4.514  0.6733 -0.1828  0.9094
 8445TIP3    H225300   0.785   6.211   4.453 -0.5498 -0.8653 -1.3297
 8446TIP3   OH225301   1.332   0.180   3.611  0.1863  0.5890 -0.5640
 8446TIP3    H125302   1.276   0.253   3.635 -2.8041 -2.0224  1.1191
 8446TIP3    H225303   1.283   0.132   3.544  2.4174  0.4493 -2.2163
 8447TIP3   OH225304   4.976   5.922   2.895  0.4362 -0.3021 -0.0429
 8447TIP3    H125305   4.928   5.900   2.815 -2.6461 -0.8826  1.7926
 8447TIP3    H225306   4.951   6.012   2.913  1.7373  0.0853 -0.0991
 8448TIP3   OH225307   1.259   6.537   2.203  0.2206 -0.4158  0.1028
 8448TIP3    H125308   1.199   6.465   2.219 -0.9751  0.2638 -1.1396
 8448TIP3    H225309   1.277   6.533   2.109 -1.0868  1.7880 -0.3024
 8449TIP3   OH225310   6.623   0.710   1.930 -0.0660  0.4208 -0.2236
 8449TIP3    H125311   6.646   0.770   1.859 -0.0896  2.3053  1.2845
 8449TIP3    H225312   6.532   0.686   1.912  0.0195  0.6218 -0.9851
 8450TIP3   OH225313   3.234   0.886   2.983 -0.2074  0.2968  0.4673
 8450TIP3    H125314   3.144   0.904   2.958  0.1869 -1.5841 -2.8000
 8450TIP3    H225315   3.230   0.802   3.029  0.0525 -0.9568 -1.7077
 8451TIP3   OH225316   5.607   5.672   5.807 -0.0043 -0.3052  0.1385
 8451TIP3    H125317   5.684   5.724   5.829 -0.8488  0.9061  0.3520
 8451TIP3    H225318   5.599   5.610   5.879  1.3880 -1.1920 -0.4379
 8452TIP3   OH225319   6.662   3.322   2.632  0.4325 -0.1802 -0.4244
 8452TIP3    H125320   6.682   3.395   2.690  0.1691 -0.5708  0.1732
 8452TIP3    H225321   6.612   3.261   2.687 -0.4090 -0.2515 -1.2418
 8453TIP3   OH225322   6.849   3.787   3.163 -0.2816 -0.5589 -0.1306
 8453TIP3    H125323   6.933   3.784   3.119 -0.0055  0.5231  0.2950
 8453TIP3    H225324   6.868   3.822   3.250 -1.1914 -0.0693 -0.1128
 8454TIP3   OH225325   0.256   0.588   0.879 -0.1056 -0.2197 -0.5128
 8454TIP3    H125326   0.218   0.665   0.922  0.0354  0.5685 -1.7391
 8454TIP3    H225327   0.347   0.613   0.862 -0.1495 -0.5387 -1.2127
 8455TIP3   OH225328   3.409   0.283   2.672 -0.1141  0.0091  0.3933
 8455TIP3    H125329   3.471   0.235   2.616  0.0058 -2.2473  2.3087
 8455TIP3    H225330   3.452   0.367   2.689  0.6271  0.0387 -1.4260
 8456TIP3   OH225331   1.119   6.619   3.128 -0.6989  0.2546 -0.1887
 8456TIP3    H125332   1.120   6.561   3.052 -1.4591 -0.5210  0.3694
 8456TIP3    H225333   1.034   6.662   3.123 -1.0620 -0.3476  0.6028
 8457TIP3   OH225334   4.034   2.335   5.560 -0.3085  0.5618  0.7789
 8457TIP3    H125335   3.991   2.304   5.480 -1.9266  2.1724  0.9399
 8457TIP3    H225336   4.058   2.426   5.541 -0.2676  0.8190  1.9506
 8458TIP3   OH225337   3.021   5.779   2.096 -0.2618  0.0781  0.0500
 8458TIP3    H125338   3.003   5.766   2.189  2.6459  1.0115  0.8572
 8458TIP3    H225339   3.010   5.692   2.057 -1.1873 -0.4016  1.3117
 8459TIP3   OH225340   2.924   4.879   4.494 -0.7560 -0.3660 -0.0106
 8459TIP3    H125341   3.017   4.900   4.489 -0.9618  0.5951 -0.0374
 8459TIP3    H225342   2.903   4.840   4.410 -0.8316  1.4336 -0.8847
 8460TIP3   OH225343   6.907   4.139   1.407 -0.0625  0.0922 -0.8825
 8460TIP3    H125344   6.951   4.127   1.322 -0.0291 -0.2349 -0.8209
 8460TIP3    H225345   6.829   4.190   1.386  0.4119  0.7992 -0.9734
 8461TIP3   OH225346   3.801   3.567   2.366 -0.4901  0.0768 -0.3729
 8461TIP3    H125347   3.742   3.516   2.311 -1.9931  1.9023 -0.5690
 8461TIP3    H225348   3.833   3.637   2.308  0.5035  0.1323  0.2150
 8462TIP3   OH225349   2.489   3.568   0.812 -0.4130  0.6407 -0.6247
 8462TIP3    H125350   2.490   3.617   0.894  0.1692 -0.0245 -0.2185
 8462TIP3    H225351   2.579   3.539   0.800 -0.8390 -0.7838 -0.5565
 8463TIP3   OH225352   0.287   4.468   2.585  0.5386 -0.5190  0.5801
 8463TIP3    H125353   0.201   4.500   2.614  0.7483 -0.8975  1.6696
 8463TIP3    H225354   0.268   4.399   2.521  0.0526  2.3623 -2.7000
 8464TIP3   OH225355   2.671   5.496   1.790  0.3318  0.1991  0.6444
 8464TIP3    H125356   2.623   5.436   1.733  0.5026 -0.4576  1.1705
 8464TIP3    H225357   2.606   5.523   1.855  0.0061  1.3246 -0.1121
 8465TIP3   OH225358   6.908   5.489   2.663  0.1426  0.0390 -0.0304
 8465TIP3    H125359   6.939   5.413   2.615 -0.2279 -0.0521 -0.1261
 8465TIP3    H225360   6.925   5.468   2.755  1.0805  0.3171 -0.1300
 8466TIP3   OH225361   6.533   4.862   1.043 -0.3180  0.3106  0.3167
 8466TIP3    H125362   6.603   4.797   1.037 -0.7694 -0.3174  1.4883
 8466TIP3    H225363   6.579   4.946   1.045  0.6193 -0.1422  2.9917
 8467TIP3   OH225364   3.266   0.087   0.781  0.1804 -0.2043 -0.5022
 8467TIP3    H125365   3.205   0.056   0.714 -0.0791  0.9483 -0.8239
 8467TIP3    H225366   3.336   0.128   0.732  0.5483 -0.3281 -0.0873
 8468TIP3   OH225367   3.423   6.278   5.767 -0.2278 -0.3564  0.2394
 8468TIP3    H125368   3.458   6.257   5.854 -0.6601  0.3473  0.5885
 8468TIP3    H225369   3.346   6.222   5.758  0.3758 -1.1552 -0.1096
 8469TIP3   OH225370   0.954   3.898   1.051 -0.5839  0.3283  0.0280
 8469TIP3    H125371   0.940   3.805   1.033  0.4706  0.6834 -3.3178
 8469TIP3    H225372   1.036   3.918   1.006  0.2818  2.5230  2.3420
 8470TIP3   OH225373   4.445   2.018   2.159 -0.1601 -0.2080  0.7032
 8470TIP3    H125374   4.506   1.944   2.161  1.8003  1.0865 -2.6674
 8470TIP3    H225375   4.368   1.983   2.114 -0.5028 -0.9273  1.8065
 8471TIP3   OH225376   0.585   0.950   2.506  0.5988  0.3111 -0.1902
 8471TIP3    H125377   0.514   0.923   2.448  0.3947 -1.4364  0.8125
 8471TIP3    H225378   0.539   0.990   2.581  0.6504 -0.7701  0.4332
 8472TIP3   OH225379   5.968   2.675   2.009  0.5069 -0.3327 -0.0495
 8472TIP3    H125380   5.966   2.584   2.038 -1.4458 -0.5360 -0.6774
 8472TIP3    H225381   5.892   2.715   2.051 -1.0028 -0.0380 -2.8181
 8473TIP3   OH225382   5.990   5.042   4.288  0.4950  0.0799  0.3918
 8473TIP3    H125383   5.959   5.029   4.378  1.1489  0.8412  0.7378
 8473TIP3    H225384   6.050   4.970   4.272  3.0845  1.7612  1.8340
 8474TIP3   OH225385   1.086   5.118   5.584 -0.1249 -0.0127  0.2618
 8474TIP3    H125386   1.162   5.167   5.616  1.6420 -0.4434 -2.8910
 8474TIP3    H225387   1.120   5.032   5.562 -1.9625 -0.8168  0.3641
 8475TIP3   OH225388   1.317   1.196   3.870 -0.3135  0.7378  0.3861
 8475TIP3    H125389   1.350   1.236   3.951  0.7927 -0.4257  0.5598
 8475TIP3    H225390   1.333   1.262   3.803  1.8673  0.5113  0.5853
 8476TIP3   OH225391   6.266   4.499   5.226  0.0411 -0.2273  0.1816
 8476TIP3    H125392   6.339   4.552   5.192  0.8526  0.1071  2.3105
 8476TIP3    H225393   6.243   4.540   5.309 -1.4946 -1.3299  0.3355
 8477TIP3   OH225394   3.534   3.521   1.155 -0.5605 -0.0072 -0.1807
 8477TIP3    H125395   3.447   3.528   1.115 -0.5111  2.9509  0.0329
 8477TIP3    H225396   3.516   3.499   1.246 -0.8887 -2.0614 -0.6803
 8478TIP3   OH225397   5.449   3.705   4.823  0.5317  0.6235 -0.0930
 8478TIP3    H125398   5.480   3.788   4.860 -0.1638  0.2695  1.3554
 8478TIP3    H225399   5.359   3.724   4.795  0.8028  0.6885 -0.9369
 8479TIP3   OH225400   3.978   1.601   5.612  0.1445 -0.4139 -0.4763
 8479TIP3    H125401   4.052   1.628   5.558  0.8291  0.6346  0.9223
 8479TIP3    H225402   3.981   1.658   5.688 -1.6772 -0.8486 -0.0138
 8480TIP3   OH225403   5.827   0.597   3.038 -0.1078 -0.9665  0.8305
 8480TIP3    H125404   5.791   0.686   3.041 -1.1788 -1.3191 -0.7430
 8480TIP3    H225405   5.917   0.609   3.007  0.0772 -0.3652  1.5694
 8481TIP3   OH225406   2.136   3.128   5.654  0.3547  0.4093 -0.1446
 8481TIP3    H125407   2.194   3.175   5.714 -1.0132  3.5943 -1.0945
 8481TIP3    H225408   2.062   3.101   5.708  0.7324  0.1247  0.2369
 8482TIP3   OH225409   6.196   5.485   5.253  0.1509  0.6586  0.1255
 8482TIP3    H125410   6.197   5.471   5.158  0.4199  0.1838  0.1915
 8482TIP3    H225411   6.119   5.436   5.283 -1.0902  2.4174 -0.0623
 8483TIP3   OH225412   4.821   3.220   5.351 -0.0936  0.9013  0.7605
 8483TIP3    H125413   4.871   3.287   5.398  0.8263  0.5442  0.3328
 8483TIP3    H225414   4.763   3.268   5.293  1.5689  1.3935 -0.6061
 8484TIP3   OH225415   0.430   3.116   1.072  0.3405  0.7314  0.3430
 8484TIP3    H125416   0.461   3.102   0.982  0.5608  1.9934  0.2045
 8484TIP3    H225417   0.426   3.028   1.110  0.7106  0.2251 -0.7487
 8485TIP3   OH225418   1.864   0.292   3.628 -0.6914 -0.1586 -0.4502
 8485TIP3    H125419   1.918   0.257   3.557  0.7266  0.1878  0.4272
 8485TIP3    H225420   1.775   0.293   3.592 -0.1814 -1.0693 -1.8070
 8486TIP3   OH225421   6.820   3.979   2.581  0.8334  0.2393 -0.2338
 8486TIP3    H125422   6.818   4.073   2.599 -0.0133  0.2212 -0.1920
 8486TIP3    H225423   6.734   3.960   2.544  1.2092 -0.4141 -0.8024
 8487TIP3   OH225424   1.267   3.020   3.541  0.3592 -0.3023  0.6849
 8487TIP3    H125425   1.172   3.015   3.540  0.2872  0.4286  1.8298
 8487TIP3    H225426   1.287   3.103   3.497  0.3959  0.0958  1.4344
 8488TIP3   OH225427   6.317   3.726   2.536  0.2738 -0.7478  0.2255
 8488TIP3    H125428   6.330   3.747   2.444  2.8934 -0.5611  0.5685
 8488TIP3    H225429   6.252   3.789   2.566  0.9520  0.5874 -1.0126
 8489TIP3   OH225430   6.165   0.779   5.640 -0.5310  0.4030 -0.5238
 8489TIP3    H125431   6.205   0.744   5.720 -0.4157  0.9385 -0.3466
 8489TIP3    H225432   6.119   0.704   5.602 -0.8318  0.2164  0.1914
 8490TIP3   OH225433   4.449   1.162   0.963 -0.0555  0.6328  0.0531
 8490TIP3    H125434   4.420   1.072   0.979  0.0810  0.6416  0.3688
 8490TIP3    H225435   4.535   1.152   0.922 -0.6580  0.6008 -1.2384
 8491TIP3   OH225436   2.801   1.187   1.249 -0.7665 -0.9195  0.3841
 8491TIP3    H125437   2.769   1.115   1.304 -0.9173 -0.4102  0.9729
 8491TIP3    H225438   2.735   1.256   1.259  0.4905  0.1537  1.6073
 8492TIP3   OH225439   0.073   5.396   3.781 -0.0665  0.1264  0.1880
 8492TIP3    H125440  -0.020   5.376   3.782  0.1668 -1.1339  2.0422
 8492TIP3    H225441   0.086   5.451   3.859  0.7397  0.1852  0.0202
 8493TIP3   OH225442   7.174   1.407   3.941  0.1364  0.0534 -0.5845
 8493TIP3    H125443   7.264   1.377   3.930  0.5345  1.2683 -0.7830
 8493TIP3    H225444   7.182   1.501   3.957 -0.9509 -0.1953  1.7440
 8494TIP3   OH225445   4.209   0.579   1.803 -0.0781  1.1779 -0.2536
 8494TIP3    H125446   4.217   0.546   1.714 -0.4463  0.5289 -0.0516
 8494TIP3    H225447   4.214   0.674   1.794 -0.1106  1.1152 -0.9647
 8495TIP3   OH225448   1.066   5.577   4.443  0.0621 -0.2458  0.1646
 8495TIP3    H125449   1.045   5.494   4.399  0.0208 -0.4629  0.5860
 8495TIP3    H225450   1.162   5.583   4.438 -0.0494  0.9050 -2.0451
 8496TIP3   OH225451   3.395   1.999   2.323  0.3194  0.5022  0.0386
 8496TIP3    H125452   3.317   2.027   2.275  0.3961 -0.5768 -0.7722
 8496TIP3    H225453   3.403   2.060   2.396 -0.9274  1.0013 -0.2296
 8497TIP3   OH225454   3.121   1.209   4.023  0.2881 -0.1411  0.6299
 8497TIP3    H125455   3.031   1.188   3.998 -0.3565 -0.9850  3.2930
 8497TIP3    H225456   3.163   1.123   4.036  2.3127  0.1317 -2.8229
 8498TIP3   OH225457   3.448   0.782   0.348  0.1218 -0.4241 -0.8334
 8498TIP3    H125458   3.405   0.708   0.392  1.0976 -1.0587 -0.9185
 8498TIP3    H225459   3.458   0.848   0.416  1.8826 -1.5069  0.0445
 8499TIP3   OH225460   2.093   1.618   0.482 -0.3576 -0.0998 -0.4878
 8499TIP3    H125461   2.058   1.530   0.462 -1.5336  0.5055 -1.2218
 8499TIP3    H225462   2.185   1.613   0.458 -0.9598 -0.4054 -3.1311
 8500TIP3   OH225463   0.357   5.840   0.035  0.4808 -0.3131 -0.2774
 8500TIP3    H125464   0.344   5.819   0.128  0.5972 -2.0998 -0.6394
 8500TIP3    H225465   0.315   5.769  -0.012 -0.6108  1.1665 -1.6640
 8501TIP3   OH225466   2.074   6.208   4.579  0.1949 -0.4047  0.0693
 8501TIP3    H125467   2.144   6.149   4.608  2.2599  0.9797 -1.7723
 8501TIP3    H225468   2.062   6.268   4.653  2.5716  0.6476 -0.2893
 8502TIP3   OH225469   2.412   4.423   5.277  0.2926  0.1376 -0.0880
 8502TIP3    H125470   2.459   4.449   5.356  2.4829 -0.0929 -1.2394
 8502TIP3    H225471   2.322   4.408   5.306  0.6458  1.7126  2.0025
 8503TIP3   OH225472   3.309   1.111   2.268 -0.8449  0.1545 -0.0150
 8503TIP3    H125473   3.335   1.029   2.312 -1.6140  0.0206  0.2040
 8503TIP3    H225474   3.237   1.085   2.211  0.2928  0.2784 -1.5906
 8504TIP3   OH225475   5.382   6.283   4.743 -0.2719  0.2079 -0.2576
 8504TIP3    H125476   5.445   6.212   4.734 -0.7760 -0.3002  0.1461
 8504TIP3    H225477   5.433   6.363   4.727  0.2373 -0.2530 -1.0274
 8505TIP3   OH225478   2.851   2.593   5.278  0.4377 -0.0345  0.1133
 8505TIP3    H125479   2.886   2.504   5.271  0.4417 -0.0059 -0.2511
 8505TIP3    H225480   2.881   2.637   5.199 -0.7152 -0.1124 -0.3908
 8506TIP3   OH225481   1.718   5.509   0.401  0.3151 -1.1552  0.0566
 8506TIP3    H125482   1.637   5.465   0.425 -0.0702 -0.4025  0.1570
 8506TIP3    H225483   1.709   5.529   0.308 -0.4121  0.5299  0.4423
 8507TIP3   OH225484   2.444   4.126   2.403  0.2909 -0.0221 -0.1401
 8507TIP3    H125485   2.362   4.082   2.382  0.7215 -0.6545 -0.5407
 8507TIP3    H225486   2.507   4.090   2.340  0.6017  1.3524 -0.6490
 8508TIP3   OH225487   6.300   0.977   3.143  0.0352  0.0047  0.3236
 8508TIP3    H125488   6.291   0.893   3.189  0.7302 -0.6955 -0.7608
 8508TIP3    H225489   6.303   1.043   3.212  1.2411 -1.0207  1.2935
 8509TIP3   OH225490   3.399   1.760   0.479  0.2543 -0.1969 -0.6984
 8509TIP3    H125491   3.314   1.798   0.458  0.1571  0.5485  0.8901
 8509TIP3    H225492   3.385   1.711   0.560  1.5202  0.7712  0.1586
 8510TIP3   OH225493   5.430   6.030   4.970 -0.2809  0.1591 -0.0273
 8510TIP3    H125494   5.391   5.951   5.007  0.7733 -0.1588  0.4325
 8510TIP3    H225495   5.438   6.012   4.877 -0.0604 -0.2790  0.0716
 8511TIP3   OH225496   6.329   1.380   2.121  0.6465 -0.5342 -0.4620
 8511TIP3    H125497   6.341   1.474   2.110  0.0766 -0.6776 -2.9140
 8511TIP3    H225498   6.290   1.351   2.039 -0.1078 -2.7783  0.6024
 8512TIP3   OH225499   3.068   6.533   0.974  0.4973  0.1023 -0.1049
 8512TIP3    H125500   3.060   6.613   1.026  2.6319  0.2667  0.0379
 8512TIP3    H225501   2.977   6.508   0.955 -0.2379  2.2656  0.2632
 8513TIP3   OH225502   4.059   3.003   3.716 -0.2024 -0.6036 -0.0232
 8513TIP3    H125503   4.103   3.049   3.645  2.3737 -2.8447 -0.0543
 8513TIP3    H225504   4.076   2.910   3.699 -1.8825 -1.3813  2.0439
 8514TIP3   OH225505   0.796   4.073   3.820  0.2740  0.2042 -0.0183
 8514TIP3    H125506   0.780   4.164   3.796  0.1689  0.2780  0.3337
 8514TIP3    H225507   0.872   4.048   3.767  1.1290  0.9033  0.8478
 8515TIP3   OH225508   4.358   5.563   4.006 -0.1363 -0.6554 -0.2233
 8515TIP3    H125509   4.433   5.573   4.065 -0.7525 -0.9449  0.6300
 8515TIP3    H225510   4.303   5.639   4.024  0.4084  0.0878 -1.5626
 8516TIP3   OH225511   2.421   5.546   4.240 -0.2431 -0.3747  0.2932
 8516TIP3    H125512   2.430   5.635   4.274  0.9398 -0.0239 -0.8603
 8516TIP3    H225513   2.380   5.497   4.311 -0.5916  1.0019  1.0784
 8517TIP3   OH225514   6.972   4.958   2.190  0.4604 -0.1176  0.3186
 8517TIP3    H125515   7.033   4.954   2.117 -0.1341 -1.4751 -0.1403
 8517TIP3    H225516   7.024   4.992   2.263  0.9750  1.6007 -0.7863
 8518TIP3   OH225517   5.563   2.900   0.455  0.1513  0.2835  0.4398
 8518TIP3    H125518   5.590   2.920   0.365 -0.1848  1.0670  0.5073
 8518TIP3    H225519   5.481   2.948   0.467 -0.1527 -0.3471  0.9485
 8519TIP3   OH225520   1.203   0.886   3.085  0.3163  0.3402 -0.1163
 8519TIP3    H125521   1.184   0.886   2.992  0.4636 -1.9624 -0.1982
 8519TIP3    H225522   1.223   0.977   3.106  3.5125  0.4859 -3.0050
 8520TIP3   OH225523   2.790   2.563   3.765 -0.1958 -0.0941  0.1572
 8520TIP3    H125524   2.699   2.547   3.742 -0.0561  1.2196 -1.4425
 8520TIP3    H225525   2.841   2.523   3.694  0.3533  1.4474 -0.3575
 8521TIP3   OH225526   2.515   4.589   4.104  0.0473 -0.7110 -0.1028
 8521TIP3    H125527   2.591   4.647   4.095 -0.0888 -0.6290 -0.8046
 8521TIP3    H225528   2.440   4.646   4.089 -0.2412 -0.5329  1.7765
 8522TIP3   OH225529   1.967   5.716   5.834  0.1850  0.2184  0.3530
 8522TIP3    H125530   1.958   5.668   5.752 -0.8950  0.0719  0.5460
 8522TIP3    H225531   1.898   5.680   5.891 -0.5175  1.8454  0.5749
 8523TIP3   OH225532   1.588   1.272   1.751 -0.3325 -0.0850  0.1347
 8523TIP3    H125533   1.614   1.240   1.665 -0.8963  1.2397 -0.5740
 8523TIP3    H225534   1.512   1.219   1.775  0.4711 -1.1854  0.3380
 8524TIP3   OH225535   2.422   4.655   4.817  0.3202  0.1743  0.0043
 8524TIP3    H125536   2.485   4.698   4.759  0.8998 -0.1055  0.4192
 8524TIP3    H225537   2.341   4.651   4.765  0.5568  0.7926 -0.4288
 8525TIP3   OH225538   3.710   2.682   2.357  0.1711 -0.9920  0.5822
 8525TIP3    H125539   3.713   2.731   2.274  4.3736 -0.7394  0.6912
 8525TIP3    H225540   3.662   2.603   2.335 -2.4170  0.8183 -0.9196
 8526TIP3   OH225541   5.202   3.092   5.555  0.0643  0.4178 -0.4380
 8526TIP3    H125542   5.147   3.044   5.616 -0.1873  0.7652 -0.3836
 8526TIP3    H225543   5.232   3.168   5.605 -0.3974  0.8682 -0.8302
 8527TIP3   OH225544   4.539   3.039   0.691 -0.4810 -0.0072  0.3332
 8527TIP3    H125545   4.570   3.119   0.649  1.2867 -1.1734 -0.7478
 8527TIP3    H225546   4.537   3.059   0.784  2.1139  0.6627  0.3185
 8528TIP3   OH225547   6.713   3.545   2.795  0.1421  0.1193  0.3069
 8528TIP3    H125548   6.809   3.547   2.792  0.2760 -1.5778  1.5701
 8528TIP3    H225549   6.690   3.600   2.870  0.1599  0.1977  0.2546
 8529TIP3   OH225550   5.325   3.054   1.771  0.0277  0.3788 -0.1990
 8529TIP3    H125551   5.263   3.113   1.727  0.8677  0.3127 -1.5476
 8529TIP3    H225552   5.393   3.111   1.805  1.7078  0.2004 -2.9199
 8530TIP3   OH225553   3.995   5.515   4.659  0.6922  0.3538  0.1899
 8530TIP3    H125554   4.008   5.532   4.752  0.9359  0.6523  0.1054
 8530TIP3    H225555   4.082   5.528   4.620  0.8119 -0.7807  0.0644
 8531TIP3   OH225556   4.279   3.975   1.940 -1.1384 -0.0440 -0.7408
 8531TIP3    H125557   4.285   3.935   1.854 -1.9031  1.3040 -1.4499
 8531TIP3    H225558   4.316   4.062   1.929 -1.6028  0.2838  0.1974
 8532TIP3   OH225559   3.109   3.778   0.606  0.5412 -0.2670  0.3473
 8532TIP3    H125560   3.149   3.807   0.687  2.1513 -0.1873 -0.4359
 8532TIP3    H225561   3.075   3.691   0.625  0.7651 -0.1866  1.1302
 8533TIP3   OH225562   2.481   1.839   1.541 -0.2291 -0.4357 -0.2910
 8533TIP3    H125563   2.410   1.900   1.517  0.1536  0.1573  0.0596
 8533TIP3    H225564   2.556   1.869   1.489 -0.0214 -0.5698 -0.0654
 8534TIP3   OH225565   6.518   3.221   0.735  0.1146  0.0313  0.9662
 8534TIP3    H125566   6.430   3.257   0.749  0.6830  1.4221  1.0957
 8534TIP3    H225567   6.509   3.128   0.755 -1.9330 -0.4360 -1.5930
 8535TIP3   OH225568   3.930   1.888   2.404  0.3937  0.0138  0.5955
 8535TIP3    H125569   3.837   1.884   2.383  0.7577 -0.3101 -1.0625
 8535TIP3    H225570   3.949   1.982   2.409  0.3240  0.1251 -0.8127
 8536TIP3   OH225571   1.972   1.892   0.555  0.0703  0.6389  0.2333
 8536TIP3    H125572   1.971   1.815   0.498 -2.2966  0.3521  0.5453
 8536TIP3    H225573   2.019   1.864   0.633  2.3712  0.6852 -1.0439
 8537TIP3   OH225574   1.863   6.654   4.958  0.0516  0.4385  0.5544
 8537TIP3    H125575   1.786   6.615   4.916  0.5095  1.2427 -1.1418
 8537TIP3    H225576   1.827   6.707   5.029 -0.7074 -1.5231  1.7346
 8538TIP3   OH225577   3.837   2.880   2.821 -0.4204 -0.3651 -0.5835
 8538TIP3    H125578   3.783   2.889   2.743 -0.1771  1.0005 -0.6101
 8538TIP3    H225579   3.884   2.963   2.828 -1.3017  0.0000  1.6835
 8539TIP3   OH225580   0.179   5.402   2.261  0.0501 -0.2566  0.2961
 8539TIP3    H125581   0.206   5.381   2.171  0.9777 -1.1997  0.7640
 8539TIP3    H225582   0.205   5.493   2.273  0.3568 -0.2663 -0.2348
 8540TIP3   OH225583   6.783   0.173   4.659 -0.7411 -0.5439 -0.3419
 8540TIP3    H125584   6.854   0.236   4.667 -2.3217  1.4601 -1.0203
 8540TIP3    H225585   6.746   0.166   4.747 -1.6476  0.9005 -0.5787
 8541TIP3   OH225586   3.953   5.384   3.380  0.2045  0.1104  0.3459
 8541TIP3    H125587   3.884   5.449   3.396 -1.5261 -0.1753 -4.3361
 8541TIP3    H225588   3.990   5.410   3.296  3.0891 -2.1315  0.7930
 8542TIP3   OH225589   0.609   5.704   1.650 -0.4599  0.1042 -0.4357
 8542TIP3    H125590   0.664   5.781   1.659 -0.6422  0.0244  1.7904
 8542TIP3    H225591   0.520   5.736   1.662 -0.5050 -0.4754  0.9995
 8543TIP3   OH225592   5.367   3.717   1.934  0.1307 -0.7184  0.0807
 8543TIP3    H125593   5.324   3.785   1.987 -0.4797  0.9344 -2.3893
 8543TIP3    H225594   5.294   3.665   1.900  0.5811 -2.5304  1.6971
 8544TIP3   OH225595   1.946   1.210   4.829  0.0046  0.0812 -0.4624
 8544TIP3    H125596   1.974   1.285   4.777 -1.0115 -0.9070 -2.5668
 8544TIP3    H225597   1.850   1.212   4.823 -0.0870 -0.6541  0.5516
 8545TIP3   OH225598   4.985   1.291   3.330  0.4422 -0.0707  0.5189
 8545TIP3    H125599   4.955   1.279   3.240  1.4438 -0.4637  0.2317
 8545TIP3    H225600   5.016   1.205   3.356  0.6307  0.1620  1.0731
 8546TIP3   OH225601   5.544   1.656   3.512 -0.3933 -0.2971  0.2646
 8546TIP3    H125602   5.563   1.614   3.596  0.6135  1.2523  0.8582
 8546TIP3    H225603   5.515   1.585   3.455 -0.0784 -1.5465  1.6140
 8547TIP3   OH225604   1.359   4.190   3.549 -0.0402  0.2951 -0.4953
 8547TIP3    H125605   1.331   4.100   3.566 -1.5632  0.7707 -0.3933
 8547TIP3    H225606   1.278   4.239   3.538  0.7222  1.8886  0.6158
 8548TIP3   OH225607   5.342   1.467   3.392 -0.1267 -0.5191  0.2777
 8548TIP3    H125608   5.317   1.376   3.378  0.7351 -0.5137 -1.5379
 8548TIP3    H225609   5.290   1.495   3.467 -1.3095 -2.1436  0.1022
 8549TIP3   OH225610   0.703   3.439   0.368  0.4177  0.2447 -0.3943
 8549TIP3    H125611   0.679   3.530   0.353 -0.7924 -0.2931 -2.0773
 8549TIP3    H225612   0.634   3.389   0.324  0.3020 -1.5132  1.6491
 8550TIP3   OH225613   1.473   2.491   5.538  0.4194 -0.4520  0.5522
 8550TIP3    H125614   1.427   2.426   5.591  0.2229 -1.0272 -0.3166
 8550TIP3    H225615   1.519   2.440   5.472 -0.1119  0.3157 -0.4370
 8551TIP3   OH225616   4.131   1.045   1.593  0.1442 -0.2234 -0.1278
 8551TIP3    H125617   4.062   1.108   1.571 -0.4639 -1.0092 -0.5409
 8551TIP3    H225618   4.209   1.079   1.549 -0.2436  0.0933 -0.5838
 8552TIP3   OH225619   4.698   2.204   3.363  0.6163 -0.3528  0.3256
 8552TIP3    H125620   4.765   2.196   3.295  1.0759  3.0161  0.2150
 8552TIP3    H225621   4.728   2.276   3.418 -4.1524  3.7046 -1.5550
 8553TIP3   OH225622   2.829   4.298   4.574 -0.0313  0.2813 -0.2025
 8553TIP3    H125623   2.854   4.228   4.514 -0.7908  0.7984 -1.1561
 8553TIP3    H225624   2.752   4.264   4.620 -0.0815  0.2882 -0.2815
 8554TIP3   OH225625   3.948   4.683   4.050 -0.7040  0.4616  0.0762
 8554TIP3    H125626   3.964   4.774   4.026 -1.2069  0.6764  0.5385
 8554TIP3    H225627   3.916   4.687   4.140 -1.4995 -0.1117 -0.1755
 8555TIP3   OH225628   5.987   3.720   4.490  0.0030 -0.3196 -0.3066
 8555TIP3    H125629   6.041   3.752   4.418  0.5665  0.2607  0.3523
 8555TIP3    H225630   5.918   3.786   4.499  0.2233 -0.1307  0.0058
 8556TIP3   OH225631   6.838   2.530   3.226 -0.0616  0.3252  0.1842
 8556TIP3    H125632   6.887   2.568   3.299 -0.4967 -0.0889  0.6977
 8556TIP3    H225633   6.856   2.588   3.152  1.1877  0.1843  0.3688
 8557TIP3   OH225634   6.931   6.171   3.677  0.8183 -0.2033 -0.2698
 8557TIP3    H125635   6.962   6.262   3.682 -0.3303  0.1824  0.2174
 8557TIP3    H225636   6.838   6.177   3.699  1.0026 -1.6690  1.0157
 8558TIP3   OH225637   0.758   4.436   0.412  0.0548 -0.4342  0.3151
 8558TIP3    H125638   0.820   4.437   0.339 -0.0739 -1.0650  0.1972
 8558TIP3    H225639   0.745   4.529   0.433 -0.7687 -0.1725 -1.1798
 8559TIP3   OH225640   3.853   0.335   5.327 -0.4128 -0.0094 -0.0691
 8559TIP3    H125641   3.944   0.361   5.341 -0.0155 -1.0268 -0.6451
 8559TIP3    H225642   3.802   0.412   5.352  0.6295  0.8104 -0.3808
 8560TIP3   OH225643   2.285   2.946   0.743  0.0940  0.0379 -0.2075
 8560TIP3    H125644   2.376   2.975   0.731  1.1776 -2.0107  2.1348
 8560TIP3    H225645   2.276   2.873   0.682 -0.1257  0.4882 -0.7195
 8561TIP3   OH225646   4.456   1.346   5.642  0.5299  0.2995 -0.6148
 8561TIP3    H125647   4.447   1.293   5.563  1.0512  0.3946 -0.7398
 8561TIP3    H225648   4.542   1.387   5.634  0.0198  1.3978 -0.6653
 8562TIP3   OH225649   0.048   6.663   1.920 -0.5682  0.2708  0.6324
 8562TIP3    H125650   0.020   6.741   1.871  0.3179 -0.1069 -0.5142
 8562TIP3    H225651   0.111   6.620   1.862  0.4574 -0.2431  2.0789
 8563TIP3   OH225652   0.725   2.591   1.492 -0.0134 -0.3190  0.1347
 8563TIP3    H125653   0.814   2.625   1.492  0.8668 -2.4493 -0.7225
 8563TIP3    H225654   0.730   2.509   1.542 -1.4814 -0.4918  0.0562
 8564TIP3   OH225655   1.982   5.475   4.430  0.7591  0.4874 -0.3278
 8564TIP3    H125656   1.948   5.564   4.445 -0.5794  0.5673 -3.2529
 8564TIP3    H225657   1.956   5.426   4.508  1.9758  2.6986  1.6169
 8565TIP3   OH225658   0.157   2.965   4.995 -0.6941 -0.3888 -0.0305
 8565TIP3    H125659   0.163   3.018   5.074  1.0530 -0.5581  0.0073
 8565TIP3    H225660   0.079   2.911   5.007 -2.5772  2.1446 -0.0916
 8566TIP3   OH225661   5.407   6.427   3.761 -0.6681 -0.3878  0.0748
 8566TIP3    H125662   5.496   6.464   3.759 -0.8756  0.1703  0.6643
 8566TIP3    H225663   5.416   6.341   3.721  0.1297 -0.3094  0.0627
 8567TIP3   OH225664   1.506   1.201   2.853 -0.1387  0.1207 -0.2161
 8567TIP3    H125665   1.449   1.168   2.783 -1.0338 -0.6275  0.8438
 8567TIP3    H225666   1.594   1.177   2.824 -0.5784 -1.0847 -0.6294
 8568TIP3   OH225667   2.073   5.946   5.726 -0.0112  0.9217  0.1422
 8568TIP3    H125668   2.038   5.864   5.760  0.2673  0.5440 -0.4811
 8568TIP3    H225669   2.023   5.963   5.646  0.6599  0.7945 -0.3148
 8569TIP3   OH225670   6.835   2.918   2.871 -0.4911  0.3962 -0.1115
 8569TIP3    H125671   6.833   2.913   2.775 -1.7732 -0.6957 -0.0477
 8569TIP3    H225672   6.848   3.012   2.889 -0.2544  0.6248 -1.3362
 8570TIP3   OH225673   3.067   0.368   4.432  0.1392  0.3031 -0.1332
 8570TIP3    H125674   3.140   0.400   4.484  1.7632 -0.0726 -2.0454
 8570TIP3    H225675   3.043   0.441   4.375  2.0434 -0.8093 -2.5788
 8571TIP3   OH225676   0.586   0.552   5.087 -0.8889  0.3103  0.1326
 8571TIP3    H125677   0.530   0.493   5.137  1.0638 -1.4676  0.3906
 8571TIP3    H225678   0.602   0.625   5.146 -1.0015 -0.3332  0.9774
 8572TIP3   OH225679   2.906   5.448   1.677 -0.1839 -0.0332 -0.0216
 8572TIP3    H125680   2.879   5.356   1.680  0.3795 -0.1686  2.3233
 8572TIP3    H225681   2.831   5.496   1.713 -1.1188  0.6865 -2.6541
 8573TIP3   OH225682   2.288   3.239   5.850 -0.3096 -0.2661  0.0392
 8573TIP3    H125683   2.346   3.174   5.890 -1.2332 -0.9126  0.3487
 8573TIP3    H225684   2.304   3.319   5.902  1.1403 -0.0979 -0.6180
 8574TIP3   OH225685   6.430   4.267   5.324  0.1612 -0.5692 -1.1720
 8574TIP3    H125686   6.389   4.352   5.310 -1.0170 -0.8241  0.4498
 8574TIP3    H225687   6.368   4.203   5.290 -2.3378 -1.1350  3.5946
 8575TIP3   OH225688   0.920   6.551   2.089  0.2285  0.7064 -0.1646
 8575TIP3    H125689   1.000   6.504   2.066  0.1222  1.0548 -1.3353
 8575TIP3    H225690   0.950   6.632   2.131  0.6172  1.8155 -2.4309
 8576TIP3   OH225691   0.956   2.532   1.178  0.3086  0.0126 -0.1738
 8576TIP3    H125692   0.932   2.441   1.198  0.1978 -0.0630 -0.6535
 8576TIP3    H225693   0.993   2.565   1.260  1.6159 -0.8931 -0.3644
 8577TIP3   OH225694   2.379   1.416   1.859 -0.1379 -0.5081 -0.1729
 8577TIP3    H125695   2.437   1.484   1.825  0.8647 -0.5597  1.3334
 8577TIP3    H225696   2.318   1.398   1.787  1.8381 -0.6229 -1.9265
 8578TIP3   OH225697   4.027   6.372   5.570  0.3404  0.3150 -0.2561
 8578TIP3    H125698   4.005   6.383   5.663  2.1488  0.9259  0.1348
 8578TIP3    H225699   3.944   6.386   5.524 -0.2843  1.5612  1.1635
 8579TIP3   OH225700   3.339   2.112   3.228 -0.4011  0.3894 -0.2417
 8579TIP3    H125701   3.304   2.197   3.253 -0.3179 -0.6292  4.2329
 8579TIP3    H225702   3.424   2.107   3.271 -0.1858 -1.7578 -0.7848
 8580TIP3   OH225703   0.988   5.445   1.378  0.4631 -0.6018  0.0539
 8580TIP3    H125704   0.906   5.492   1.393  1.1988  0.8825 -0.3751
 8580TIP3    H225705   0.975   5.402   1.293  0.6590  0.9445 -0.8051
 8581TIP3   OH225706   3.229   3.325   0.622  0.3007  0.3330 -0.1114
 8581TIP3    H125707   3.254   3.411   0.656 -1.9306  0.6245  0.9421
 8581TIP3    H225708   3.312   3.286   0.594  1.3792  2.8056 -0.6495
 8582TIP3   OH225709   2.624   4.347   3.022 -0.6914 -0.0205  0.0893
 8582TIP3    H125710   2.636   4.417   3.086  1.5925 -1.6578  1.6118
 8582TIP3    H225711   2.552   4.294   3.058 -1.6383  0.8481 -0.4702
 8583TIP3   OH225712   4.206   2.248   4.977  0.3077  0.4516 -0.6400
 8583TIP3    H125713   4.185   2.267   4.886 -0.2167 -1.0869 -0.8724
 8583TIP3    H225714   4.138   2.295   5.027  0.2990  0.8904 -1.0553
 8584TIP3   OH225715   3.934   6.511   3.977  0.0950  0.2180 -0.2870
 8584TIP3    H125716   3.895   6.574   3.917  1.2814  1.5074  0.2397
 8584TIP3    H225717   4.028   6.516   3.960  0.2291 -1.3775 -0.1829
 8585TIP3   OH225718   4.634   6.518   4.058  0.3972  0.3855 -0.1571
 8585TIP3    H125719   4.688   6.581   4.104  0.6200 -0.2953  0.5266
 8585TIP3    H225720   4.649   6.435   4.103  1.0558 -0.4341 -1.7891
 8586TIP3   OH225721   3.978   0.859   3.807 -0.0714 -0.4154  0.1241
 8586TIP3    H125722   3.906   0.884   3.750  0.6678 -1.2835 -1.2447
 8586TIP3    H225723   4.043   0.821   3.748  1.9700  1.2985  1.1414
 8587TIP3   OH225724   0.005   5.161   4.012 -0.0689 -0.2178 -0.1155
 8587TIP3    H125725  -0.029   5.106   4.083 -1.1025 -0.1750 -0.5709
 8587TIP3    H225726   0.033   5.099   3.945 -0.0760 -0.2262 -0.1106
 8588TIP3   OH225727   5.667   2.139   3.826  0.0029  0.2206  0.2115
 8588TIP3    H125728   5.617   2.218   3.847 -0.5139  0.0453 -0.3236
 8588TIP3    H225729   5.600   2.075   3.800  0.4608 -0.2092  0.0905
 8589TIP3   OH225730   3.320   3.656   5.716 -0.3014  0.6880 -0.4238
 8589TIP3    H125731   3.278   3.579   5.677 -0.7492  1.0574 -0.6673
 8589TIP3    H225732   3.414   3.641   5.702 -0.4706  1.0062 -2.0143
 8590TIP3   OH225733   0.265   0.576   3.514 -0.2386 -0.1344  0.0664
 8590TIP3    H125734   0.224   0.555   3.430 -0.6297  1.1419 -0.0722
 8590TIP3    H225735   0.222   0.517   3.576 -3.1561  1.8294  0.1328
 8591TIP3   OH225736   2.744   2.921   1.988 -0.4066  0.2139 -0.2187
 8591TIP3    H125737   2.727   2.836   2.028  1.5018  0.3739  1.1044
 8591TIP3    H225738   2.695   2.983   2.042 -1.7714  0.0073 -1.1633
 8592TIP3   OH225739   0.362   6.651   1.291 -0.1091  0.3945  0.4547
 8592TIP3    H125740   0.281   6.691   1.260 -0.2655 -0.0782  0.2537
 8592TIP3    H225741   0.402   6.719   1.346  0.5893  1.5846 -1.4301
 8593TIP3   OH225742   5.467   0.708   4.280  0.0500  0.4692  0.5020
 8593TIP3    H125743   5.450   0.626   4.326 -0.7351  1.0653  1.3010
 8593TIP3    H225744   5.405   0.770   4.317 -0.6783  0.9675 -1.4267
 8594TIP3   OH225745   1.140   1.807   1.897 -0.3378 -0.5560 -0.1209
 8594TIP3    H125746   1.107   1.789   1.809 -1.6654 -0.1944  0.2850
 8594TIP3    H225747   1.235   1.791   1.891 -0.5392 -1.3941 -1.3763
 8595TIP3   OH225748   1.572   4.271   3.379  0.2543 -0.6955 -0.1061
 8595TIP3    H125749   1.537   4.292   3.293  0.1800  0.5192  0.2094
 8595TIP3    H225750   1.495   4.259   3.435  0.2944  1.2907  0.4255
 8596TIP3   OH225751   3.705   6.168   0.664  0.0412  0.3218  0.1338
 8596TIP3    H125752   3.700   6.214   0.580 -3.2532  0.9056  0.5076
 8596TIP3    H225753   3.669   6.081   0.645 -0.5422  0.3926  0.8618
 8597TIP3   OH225754   0.426   6.129   4.492 -0.3013  0.1336 -0.4035
 8597TIP3    H125755   0.432   6.080   4.574 -1.9137  0.0959 -0.2828
 8597TIP3    H225756   0.475   6.077   4.429  1.4327  0.4321  0.6263
 8598TIP3   OH225757   4.247   5.074   2.610 -0.7244  0.1259 -0.1407
 8598TIP3    H125758   4.193   5.040   2.681  0.8147 -1.8713  0.1580
 8598TIP3    H225759   4.307   5.136   2.652 -0.8781  0.1760  0.0056
 8599TIP3   OH225760   4.397   6.168   4.633  0.3432 -0.5648 -0.1376
 8599TIP3    H125761   4.450   6.246   4.620 -1.5054  0.5082 -1.8344
 8599TIP3    H225762   4.318   6.200   4.677  0.1333 -1.7291  0.3700
 8600TIP3   OH225763   0.544   5.380   2.390  0.2849 -0.2138 -0.5456
 8600TIP3    H125764   0.472   5.442   2.388  0.1005 -0.4069 -0.0147
 8600TIP3    H225765   0.571   5.371   2.299 -1.1374 -1.0304 -0.9094
 8601TIP3   OH225766   1.066   3.872   5.851  0.7776  0.0507  0.5872
 8601TIP3    H125767   1.008   3.896   5.779  0.4825  2.2619  1.4831
 8601TIP3    H225768   1.011   3.821   5.911  0.2000  0.7316  0.6433
 8602TIP3   OH225769   6.464   3.767   0.850 -0.6943  0.3299  0.1061
 8602TIP3    H125770   6.558   3.787   0.859 -0.8298  1.0859 -0.1191
 8602TIP3    H225771   6.433   3.827   0.782 -1.1653 -0.5223 -0.4496
 8603TIP3   OH225772   6.494   6.457   4.780 -0.0640 -0.1890  0.2017
 8603TIP3    H125773   6.510   6.468   4.686 -0.2904  0.1497  0.1985
 8603TIP3    H225774   6.489   6.547   4.813 -0.1953 -0.3072  0.5007
 8604TIP3   OH225775   0.269   0.334   1.217 -0.4191 -0.0092  0.2127
 8604TIP3    H125776   0.203   0.392   1.180 -0.9963 -2.1580 -2.4731
 8604TIP3    H225777   0.352   0.365   1.179 -0.9448 -1.8726 -2.7758
 8605TIP3   OH225778   1.444   6.364   2.836 -0.2371 -0.4838  0.2294
 8605TIP3    H125779   1.456   6.392   2.746  1.5552 -0.2645  0.4961
 8605TIP3    H225780   1.444   6.445   2.887 -0.0217 -0.6708  0.5341
 8606TIP3   OH225781   1.913   1.848   3.452 -0.7038 -0.2617  0.5365
 8606TIP3    H125782   1.818   1.846   3.448 -0.6950  0.3257  0.0499
 8606TIP3    H225783   1.939   1.919   3.394  0.0551 -0.7412  0.2761
 8607TIP3   OH225784   4.943   6.255   1.899  0.7821  0.3466  0.3952
 8607TIP3    H125785   5.025   6.298   1.922 -0.0232  1.8132  0.6579
 8607TIP3    H225786   4.959   6.162   1.914  2.0722  0.7097  1.3956
 8608TIP3   OH225787   1.855   2.949   3.752 -1.0894 -0.2055 -0.1558
 8608TIP3    H125788   1.819   3.036   3.769  0.0112  0.8496 -2.7064
 8608TIP3    H225789   1.792   2.908   3.694 -0.4061 -0.0846 -1.0065
 8609TIP3   OH225790   4.055   3.778   5.179 -0.2845 -0.6057 -0.0741
 8609TIP3    H125791   4.122   3.820   5.126  0.4424 -2.0968 -0.3861
 8609TIP3    H225792   4.101   3.750   5.258 -1.4529  2.0317  1.6656
 8610TIP3   OH225793   3.309   5.337   4.954  0.2272 -0.1309  0.4494
 8610TIP3    H125794   3.258   5.409   4.991  0.7350  0.6187 -0.3032
 8610TIP3    H225795   3.244   5.269   4.936 -0.4205  0.5619  0.1242
 8611TIP3   OH225796   5.985   5.960   2.459 -0.3154  0.6825 -0.5119
 8611TIP3    H125797   5.891   5.955   2.444 -0.3557  1.4565 -0.5423
 8611TIP3    H225798   6.008   6.051   2.442  0.7224  0.1687 -2.0811
 8612TIP3   OH225799   5.247   0.145   0.739  0.4318 -0.7269  0.1358
 8612TIP3    H125800   5.335   0.180   0.750 -0.1887  1.1747 -0.5719
 8612TIP3    H225801   5.199   0.214   0.693 -1.5875 -1.4711  1.0089
 8613TIP3   OH225802   4.579   5.469   2.799 -0.2286 -0.2900 -0.6196
 8613TIP3    H125803   4.666   5.490   2.836 -0.1770 -1.6591  0.1103
 8613TIP3    H225804   4.519   5.528   2.845  0.1976 -0.0363 -0.3820
 8614TIP3   OH225805   6.337   6.222   4.807  0.3807  0.0815  0.1435
 8614TIP3    H125806   6.335   6.191   4.716 -0.5463  0.0295  0.1761
 8614TIP3    H225807   6.379   6.308   4.802 -1.8523  1.1874 -0.6923
 8615TIP3   OH225808   1.252   4.210   1.879 -0.2593 -0.1599 -0.9389
 8615TIP3    H125809   1.183   4.178   1.821 -0.7752  0.7528 -0.8388
 8615TIP3    H225810   1.269   4.137   1.938 -1.9025 -0.0365 -0.2713
 8616TIP3   OH225811   3.231   0.036   1.704 -0.5035  1.1632 -0.2220
 8616TIP3    H125812   3.198  -0.044   1.745 -0.1608  0.3832 -1.4207
 8616TIP3    H225813   3.323   0.042   1.732 -0.7283  1.5539  0.4610
 8617TIP3   OH225814   4.430   6.744   0.040  0.2403  0.3731  0.2756
 8617TIP3    H125815   4.498   6.676   0.039  1.2938  1.3924  0.7184
 8617TIP3    H225816   4.366   6.712   0.103  0.5350 -0.3792  0.2091
 8618TIP3   OH225817   2.311   4.293   3.567 -0.5940  0.3762  0.0004
 8618TIP3    H125818   2.274   4.319   3.483  0.9749 -1.0703 -1.2006
 8618TIP3    H225819   2.267   4.210   3.589 -1.9879  1.4049  1.3506
 8619TIP3   OH225820   2.836   1.869   2.942  0.1306  0.4725 -0.3609
 8619TIP3    H125821   2.765   1.900   2.885  0.1404  0.2635 -0.4877
 8619TIP3    H225822   2.916   1.894   2.896  0.1432 -0.3560 -0.8112
 8620TIP3   OH225823   0.511   5.705   0.407 -0.0165 -0.5901 -0.7334
 8620TIP3    H125824   0.598   5.733   0.378  0.4604  0.9020  1.8736
 8620TIP3    H225825   0.528   5.642   0.476 -1.0772 -1.5934 -1.3459
 8621TIP3   OH225826   3.086   3.565   2.667  0.0056  0.2782 -0.0488
 8621TIP3    H125827   3.043   3.624   2.606  0.7364 -0.2226 -1.0823
 8621TIP3    H225828   3.056   3.478   2.642 -0.5822  0.1419  1.0655
 8622TIP3   OH225829   3.800   0.486   3.760  0.1625 -0.0921  0.2457
 8622TIP3    H125830   3.865   0.421   3.786  0.7119  0.3056 -0.1276
 8622TIP3    H225831   3.727   0.473   3.821  0.2605 -1.0654  0.1657
 8623TIP3   OH225832   1.413   1.669   2.863  0.6111  0.1121  0.1523
 8623TIP3    H125833   1.419   1.608   2.937 -2.0301  1.1481  1.3497
 8623TIP3    H225834   1.409   1.614   2.786 -0.5502 -1.2047  1.1133
 8624TIP3   OH225835   1.716   5.360   2.821  0.0557  0.3033  0.8810
 8624TIP3    H125836   1.788   5.419   2.801  1.4399 -1.3419  0.7557
 8624TIP3    H225837   1.677   5.396   2.901 -0.9233  2.8624 -0.6290
 8625TIP3   OH225838   1.275   0.995   4.075 -0.0084  0.3073 -0.1412
 8625TIP3    H125839   1.196   1.045   4.094  0.6158  0.3430  2.8271
 8625TIP3    H225840   1.338   1.060   4.045 -0.2696  0.7391  0.2365
 8626TIP3   OH225841   0.517   6.115   3.613 -0.0200  0.5059 -0.2271
 8626TIP3    H125842   0.573   6.072   3.677 -1.1706  0.7533  0.9993
 8626TIP3    H225843   0.571   6.122   3.534  0.3858 -2.7131 -0.3561
 8627TIP3   OH225844   4.841   5.824   5.589  0.2706  0.1879  0.5020
 8627TIP3    H125845   4.872   5.866   5.509  0.5099  1.0910  1.0433
 8627TIP3    H225846   4.772   5.882   5.621 -0.1721 -0.4326  0.6906
 8628TIP3   OH225847   5.577   1.466   2.239  0.4482  0.2236 -0.3805
 8628TIP3    H125848   5.615   1.459   2.327  0.9317  0.6630 -0.5481
 8628TIP3    H225849   5.519   1.542   2.243 -1.1312 -0.9591  0.1201
 8629TIP3   OH225850   4.101   1.184   5.406 -1.2760  0.0126  0.1007
 8629TIP3    H125851   4.186   1.220   5.432  0.0741 -2.1129 -1.1090
 8629TIP3    H225852   4.084   1.114   5.469 -0.8594 -1.2591 -1.1744
 8630TIP3   OH225853   0.831   3.769   4.932  0.0685  0.0577 -0.3371
 8630TIP3    H125854   0.840   3.681   4.968  2.5258 -0.4165 -1.8615
 8630TIP3    H225855   0.909   3.815   4.963 -0.0009  0.9653 -1.4634
 8631TIP3   OH225856   0.612   3.791   5.877 -0.2484  0.0488 -0.2462
 8631TIP3    H125857   0.565   3.874   5.866  0.5901  0.3134 -2.3900
 8631TIP3    H225858   0.670   3.787   5.801 -0.7182 -2.7970 -0.5501
 8632TIP3   OH225859   1.399   1.754   0.756 -0.0669 -0.1392 -0.3956
 8632TIP3    H125860   1.444   1.784   0.835 -0.8756  0.1874 -0.0473
 8632TIP3    H225861   1.417   1.821   0.690 -1.5197  0.9493  0.2616
 8633TIP3   OH225862   4.684   2.668   2.611 -0.2248 -0.0741  0.2735
 8633TIP3    H125863   4.621   2.735   2.638  0.1213 -0.1991  1.4512
 8633TIP3    H225864   4.631   2.589   2.600 -0.1350 -0.5457  2.6761
 8634TIP3   OH225865   4.467   6.058   4.354 -0.0376 -0.3210  0.6542
 8634TIP3    H125866   4.464   6.128   4.419 -0.3440  1.8566 -1.5485
 8634TIP3    H225867   4.382   6.016   4.359 -0.5202  0.6461  0.8517
 8635TIP3   OH225868   1.399   1.616   0.288  0.0619 -0.0333 -0.2972
 8635TIP3    H125869   1.441   1.558   0.224 -0.5958  0.0960 -0.8525
 8635TIP3    H225870   1.343   1.558   0.339  0.1070 -0.0309 -0.2444
 8636TIP3   OH225871   6.586   3.913   3.955 -0.4386 -0.4512  0.7200
 8636TIP3    H125872   6.681   3.904   3.954 -0.6035 -2.7335  0.4543
 8636TIP3    H225873   6.563   3.913   4.048 -0.1423  1.0809  0.8164
 8637TIP3   OH225874   5.461   5.502   3.326 -0.4660  0.3040  0.5088
 8637TIP3    H125875   5.424   5.547   3.250  2.2882 -0.1290 -1.2382
 8637TIP3    H225876   5.414   5.419   3.330 -0.8706  0.4615 -0.5549
 8638TIP3   OH225877   6.127   5.000   1.314 -0.2752 -0.4318  0.2146
 8638TIP3    H125878   6.189   4.952   1.259 -1.4699 -0.0369 -1.5391
 8638TIP3    H225879   6.144   4.967   1.402  1.2094 -1.6189 -0.4603
 8639TIP3   OH225880   5.579   4.892   4.762  0.0624 -0.2451  0.1900
 8639TIP3    H125881   5.537   4.807   4.771 -0.7911  0.0842 -0.5046
 8639TIP3    H225882   5.508   4.951   4.737  0.6795  0.6310  0.4574
 8640TIP3   OH225883   1.992   3.734   1.067 -0.0438  0.5384 -0.3430
 8640TIP3    H125884   2.048   3.707   0.994  1.5922  0.0021  1.0482
 8640TIP3    H225885   2.030   3.817   1.097 -0.3872  0.4933  0.2223
 8641TIP3   OH225886   0.121   0.585   4.689  0.1940  0.3395 -0.0457
 8641TIP3    H125887   0.167   0.616   4.610  2.1862 -2.9485 -0.3568
 8641TIP3    H225888   0.067   0.512   4.658 -1.3676  0.8910  1.2262
 8642TIP3   OH225889   0.758   0.498   4.857  0.2770  0.8187  0.2922
 8642TIP3    H125890   0.692   0.502   4.926  0.0244  0.4390  0.0765
 8642TIP3    H225891   0.840   0.478   4.903  0.0446  0.1811  0.4493
 8643TIP3   OH225892   6.092   0.743   3.633 -0.5411 -0.1256  0.0144
 8643TIP3    H125893   6.017   0.696   3.670 -0.0716 -0.3097  0.7426
 8643TIP3    H225894   6.156   0.675   3.614 -0.0289  0.1699  0.6648
 8644TIP3   OH225895   1.323   3.149   5.881 -0.6162 -0.9334 -0.0765
 8644TIP3    H125896   1.283   3.156   5.794  0.1056 -1.5758 -0.4650
 8644TIP3    H225897   1.349   3.239   5.902  0.0141 -0.9016 -0.9217
 8645TIP3   OH225898   0.467   0.390   2.051 -0.2425  0.2314 -0.2520
 8645TIP3    H125899   0.411   0.389   1.973  1.8567 -1.2582 -1.8393
 8645TIP3    H225900   0.538   0.451   2.029  2.3587 -2.8734 -1.1364
 8646TIP3   OH225901   4.345   4.594   5.269  0.1955 -0.5337  0.3858
 8646TIP3    H125902   4.351   4.564   5.360  1.8579 -1.7264 -0.0836
 8646TIP3    H225903   4.376   4.520   5.217 -2.2867 -0.4928 -1.3069
 8647TIP3   OH225904   0.444   0.572   3.231 -0.7209  0.7148 -0.1308
 8647TIP3    H125905   0.487   0.513   3.293  0.1521 -0.2776 -1.6276
 8647TIP3    H225906   0.350   0.558   3.247 -0.6108  2.4117  2.6991
 8648TIP3   OH225907   2.335   4.651   5.068 -0.2410 -0.8332 -0.1434
 8648TIP3    H125908   2.386   4.644   4.986 -0.2585 -1.6177 -0.0989
 8648TIP3    H225909   2.401   4.645   5.137 -0.4047 -2.1519 -0.0807
 8649TIP3   OH225910   3.647   6.798   4.661 -0.0411  0.0261  0.5747
 8649TIP3    H125911   3.715   6.861   4.636 -0.8251  0.4243 -0.6411
 8649TIP3    H225912   3.695   6.726   4.702  0.9435  1.0679  1.3069
 8650TIP3   OH225913   0.689   1.108   0.257  0.4058 -0.0214 -0.0341
 8650TIP3    H125914   0.757   1.112   0.189  1.0305  2.1251  0.6203
 8650TIP3    H225915   0.641   1.190   0.247 -1.3164 -0.9517  0.3331
 8651TIP3   OH225916   2.827   5.316   0.587  0.1463  0.0250  1.0100
 8651TIP3    H125917   2.915   5.340   0.615  2.0480 -3.0641 -1.6555
 8651TIP3    H225918   2.806   5.237   0.637  0.5081 -1.2942 -0.8018
 8652TIP3   OH225919   6.656   0.651   2.359  0.1813 -0.2427 -0.3465
 8652TIP3    H125920   6.700   0.713   2.301 -0.4645  0.5460 -0.0142
 8652TIP3    H225921   6.623   0.583   2.301 -0.5038  0.5644 -0.9163
 8653TIP3   OH225922   1.487   2.850   5.005  0.3000 -0.6935 -0.1061
 8653TIP3    H125923   1.424   2.902   4.955 -1.0363 -0.6328  1.5589
 8653TIP3    H225924   1.572   2.871   4.966 -0.6340 -0.4191 -2.1159
 8654TIP3   OH225925   0.698   0.416   3.294 -0.1185 -0.4262  0.0631
 8654TIP3    H125926   0.773   0.472   3.312  0.3210 -1.0863  0.3243
 8654TIP3    H225927   0.717   0.335   3.341 -0.6717 -0.8502 -0.4327
 8655TIP3   OH225928   3.589   5.911   0.910 -0.1720 -0.0998  0.1352
 8655TIP3    H125929   3.580   6.006   0.903 -1.0903 -0.2122 -0.5641
 8655TIP3    H225930   3.637   5.896   0.991 -1.9615  0.8942  1.4582
 8656TIP3   OH225931   5.972   6.655   1.987  0.1113  0.3135 -0.7078
 8656TIP3    H125932   5.890   6.668   2.034  0.1218  0.7591 -0.8033
 8656TIP3    H225933   5.949   6.595   1.915  0.1066 -0.3973 -0.1254
 8657TIP3   OH225934   6.897   3.252   2.507  0.3803 -0.0600 -0.2625
 8657TIP3    H125935   6.896   3.207   2.422  1.4986  0.1789 -0.4131
 8657TIP3    H225936   6.805   3.271   2.525  0.1884  0.6527 -1.8337
 8658TIP3   OH225937   1.959   4.501   0.041  0.1288  0.1325 -0.7188
 8658TIP3    H125938   2.008   4.510   0.122  1.7146  0.5840 -1.6693
 8658TIP3    H225939   1.951   4.590   0.007 -0.3404 -0.0633 -1.1352
 8659TIP3   OH225940   6.180   2.956   0.743 -0.3711 -0.2484 -0.5129
 8659TIP3    H125941   6.269   2.921   0.739 -0.5534 -0.8264  0.2411
 8659TIP3    H225942   6.124   2.880   0.758 -1.0181  0.0917 -1.1002
 8660TIP3   OH225943   3.295   4.563   5.607  0.0868  0.0683 -0.3803
 8660TIP3    H125944   3.341   4.631   5.657  2.1275 -0.0296 -1.9742
 8660TIP3    H225945   3.226   4.611   5.561 -0.7107  0.4367  1.1341
 8661TIP3   OH225946   6.480   3.671   3.812  1.0292  0.2490 -0.3081
 8661TIP3    H125947   6.462   3.615   3.887 -1.1761  0.2496 -0.7824
 8661TIP3    H225948   6.501   3.756   3.850 -1.6584  0.7049  0.3735
 8662TIP3   OH225949   7.008   6.088   0.788 -0.9250  0.1627  0.0871
 8662TIP3    H125950   6.967   6.002   0.780  0.9399 -0.6676 -1.3299
 8662TIP3    H225951   6.965   6.141   0.721 -0.3362 -0.4371 -0.7855
 8663TIP3   OH225952   3.277   2.750   0.335  0.2940  0.1676  0.1621
 8663TIP3    H125953   3.244   2.839   0.342  0.3810  0.5138 -2.7016
 8663TIP3    H225954   3.200   2.698   0.310  0.7805 -0.0475 -0.9172
 8664TIP3   OH225955   1.603   4.830   0.603 -0.4140 -0.0655 -0.5597
 8664TIP3    H125956   1.613   4.766   0.673  1.7110  2.0131  1.2179
 8664TIP3    H225957   1.530   4.885   0.632 -0.0271  0.3325 -0.3172
 8665TIP3   OH225958   5.651   4.006   0.874 -0.3279  0.3734  0.9392
 8665TIP3    H125959   5.680   4.037   0.788 -2.9569 -3.0681 -1.4424
 8665TIP3    H225960   5.563   4.042   0.884 -0.8159 -0.8839  1.2633
 8666TIP3   OH225961   7.113   1.580   3.663 -0.3809  0.4681 -0.0252
 8666TIP3    H125962   7.143   1.535   3.585 -1.3008 -1.1751  0.5142
 8666TIP3    H225963   7.150   1.530   3.736 -0.9784  0.9014  0.5916
 8667TIP3   OH225964   1.701   5.504   2.085 -0.1558  0.2350  0.3484
 8667TIP3    H125965   1.771   5.439   2.088 -1.2282 -1.0049 -0.6306
 8667TIP3    H225966   1.746   5.588   2.098  1.4653 -0.5533  0.0329
 8668TIP3   OH225967   2.580   5.358   2.189 -0.8636 -0.2191  0.0997
 8668TIP3    H125968   2.601   5.302   2.264  1.9771 -1.7628 -1.6586
 8668TIP3    H225969   2.644   5.428   2.192 -1.9440  0.8044  0.1145
 8669TIP3   OH225970   3.465   0.713   2.135  0.7792  0.2212  0.1840
 8669TIP3    H125971   3.386   0.759   2.163  1.6155  1.1856  1.0210
 8669TIP3    H225972   3.433   0.645   2.076 -0.5707  1.3196 -0.4077
 8670TIP3   OH225973   6.975   2.522   5.258  0.4981 -0.9856 -0.6989
 8670TIP3    H125974   7.013   2.512   5.170 -0.3512  0.8497 -1.3274
 8670TIP3    H225975   6.881   2.527   5.243  0.3056 -1.0742  0.3873
 8671TIP3   OH225976   4.052   3.137   5.618 -0.6553 -0.2787 -0.3036
 8671TIP3    H125977   3.957   3.151   5.611 -1.1244 -2.2498  1.3059
 8671TIP3    H225978   4.080   3.124   5.527 -2.0400 -0.3311 -0.7498
 8672TIP3   OH225979   4.360   0.441   1.319 -0.0843 -0.0957 -0.1623
 8672TIP3    H125980   4.439   0.450   1.265 -0.6675 -0.3667 -1.0792
 8672TIP3    H225981   4.288   0.441   1.256 -1.1868  3.8930  0.8197
 8673TIP3   OH225982   5.731   6.395   0.535 -0.4102 -0.2372  0.4950
 8673TIP3    H125983   5.712   6.486   0.558  2.5323  0.2468  1.3988
 8673TIP3    H225984   5.800   6.400   0.468  1.7324 -1.7053  2.4192
 8674TIP3   OH225985   1.654   0.222   4.320  0.0080  0.1600 -0.3477
 8674TIP3    H125986   1.666   0.134   4.356  1.2616  0.2514 -0.5329
 8674TIP3    H225987   1.623   0.207   4.231 -0.7011 -0.0736 -0.0748
 8675TIP3   OH225988   6.405   5.231   4.700  0.8979 -0.0889  0.6343
 8675TIP3    H125989   6.321   5.196   4.728  1.7864 -0.9077  2.4889
 8675TIP3    H225990   6.384   5.315   4.659 -1.2805 -2.3307 -3.5155
 8676TIP3   OH225991   6.887   2.033   2.175 -0.1674 -0.4011  0.2738
 8676TIP3    H125992   6.823   2.009   2.242  0.1185 -1.3428  0.2253
 8676TIP3    H225993   6.967   2.050   2.224 -0.4490  0.8117  0.3381
 8677TIP3   OH225994   6.789   1.907   4.663 -0.1205 -0.1762  0.3802
 8677TIP3    H125995   6.833   1.822   4.662 -0.4168 -0.3277 -0.5010
 8677TIP3    H225996   6.698   1.887   4.644 -0.6502  0.1125  2.4327
 8678TIP3   OH225997   6.503   0.065   1.232 -0.0069 -0.2768 -0.0895
 8678TIP3    H125998   6.550   0.139   1.270  1.1828 -0.9726 -0.1497
 8678TIP3    H225999   6.413   0.096   1.224  0.0479  0.4751  1.6939
 8679TIP3   OH226000   2.312   1.386   4.647  0.7355 -0.0013  0.1166
 8679TIP3    H126001   2.349   1.407   4.733  2.2667 -0.8632 -0.2859
 8679TIP3    H226002   2.358   1.306   4.620 -1.2501 -0.9755 -0.5794
 8680TIP3   OH226003   2.528   4.647   0.125  0.1778  0.0326 -0.0707
 8680TIP3    H126004   2.598   4.705   0.153  2.1160 -2.5229  0.8388
 8680TIP3    H226005   2.564   4.603   0.048 -1.6843  0.7768 -1.4369
 8681TIP3   OH226006   4.034   4.611   4.969  0.2384 -0.6168  0.3304
 8681TIP3    H126007   4.062   4.521   4.984 -0.4176 -0.7726  0.6682
 8681TIP3    H226008   3.969   4.604   4.899  0.6645 -0.3238 -0.0962
 8682TIP3   OH226009   5.354   4.521   1.205 -0.2378 -0.2489  0.9045
 8682TIP3    H126010   5.354   4.435   1.162 -0.8124 -0.4375  1.2799
 8682TIP3    H226011   5.356   4.501   1.299 -2.5772  0.0858  1.0833
 8683TIP3   OH226012   3.934   4.837   0.874  0.1000  0.3168  0.2846
 8683TIP3    H126013   4.013   4.884   0.899 -0.7107  0.9867  1.6924
 8683TIP3    H226014   3.944   4.750   0.914  0.2973  0.2550  0.1047
 8684TIP3   OH226015   4.703   2.443   2.319 -0.5658  0.1046  0.0605
 8684TIP3    H126016   4.643   2.370   2.336  0.4387 -0.5736  0.8094
 8684TIP3    H226017   4.647   2.512   2.283 -1.6758 -0.7400  0.1058
 8685TIP3   OH226018   7.094   4.789   0.781 -0.3868 -0.0520  0.1013
 8685TIP3    H126019   7.043   4.835   0.848  0.2141  0.6601  0.0875
 8685TIP3    H226020   7.041   4.797   0.701 -0.2423  0.7407  0.0693
 8686TIP3   OH226021   6.396   2.346   5.021 -0.1775 -0.1707  0.7892
 8686TIP3    H126022   6.447   2.308   4.950  0.3457  1.8369  0.0253
 8686TIP3    H226023   6.461   2.376   5.084 -0.3559  1.9215  0.0584
 8687TIP3   OH226024   2.196   2.837   4.444  0.1656 -0.4610  0.2434
 8687TIP3    H126025   2.166   2.872   4.528  0.0213  0.0832 -0.0273
 8687TIP3    H226026   2.241   2.756   4.466  0.6408 -0.0246  0.9086
 8688TIP3   OH226027   6.619   1.353   1.565 -0.8039 -0.3314 -0.3115
 8688TIP3    H126028   6.546   1.365   1.504 -1.1295  0.0541  0.1442
 8688TIP3    H226029   6.663   1.437   1.567  0.2441 -0.8294 -1.3111
 8689TIP3   OH226030   5.663   3.918   4.373  0.4305 -0.0288  0.1644
 8689TIP3    H126031   5.734   3.944   4.314  0.5384 -1.0458 -0.1726
 8689TIP3    H226032   5.586   3.963   4.338  0.4217 -0.8906 -0.9966
 8690TIP3   OH226033   2.188   0.648   1.653  0.0360 -0.1361  0.2051
 8690TIP3    H126034   2.118   0.641   1.718  0.3786 -1.9299  0.4182
 8690TIP3    H226035   2.143   0.670   1.572 -0.6406 -0.0713  0.5873
 8691TIP3   OH226036   6.263   3.153   5.111  0.1743  0.1550 -0.2773
 8691TIP3    H126037   6.260   3.073   5.058  2.1725 -0.9815  1.1696
 8691TIP3    H226038   6.199   3.137   5.181  0.6014 -0.2159  0.0344
 8692TIP3   OH226039   0.639   4.368   4.611 -0.2220  0.1415  0.3992
 8692TIP3    H126040   0.575   4.378   4.681 -1.3048 -1.8114 -0.2100
 8692TIP3    H226041   0.682   4.284   4.629 -0.2779 -0.2352 -1.0545
 8693TIP3   OH226042   3.686   4.232   1.861  0.8652 -0.7283  0.1822
 8693TIP3    H126043   3.773   4.203   1.833  1.2309  0.4224  0.0628
 8693TIP3    H226044   3.693   4.241   1.956  1.4549  1.0853  0.0065
 8694TIP3   OH226045   2.460   2.782   5.816  0.6524 -0.1480  0.3262
 8694TIP3    H126046   2.388   2.800   5.876 -0.6086 -2.4511 -0.3725
 8694TIP3    H226047   2.497   2.699   5.846  1.1167 -0.4681 -1.0255
 8695TIP3   OH226048   3.964   2.676   2.471 -0.4222  0.2790  0.6181
 8695TIP3    H126049   3.962   2.660   2.565 -0.7726  0.3284  0.6202
 8695TIP3    H226050   3.879   2.645   2.439  0.6564 -2.1698 -0.0767
 8696TIP3   OH226051   0.862   5.242   5.659  0.3505  0.2322 -0.0142
 8696TIP3    H126052   0.921   5.167   5.666  2.5783  1.8840  0.0403
 8696TIP3    H226053   0.910   5.304   5.603 -2.3949  0.7448 -1.9849
 8697TIP3   OH226054  -0.014   0.738   5.685  0.0068  0.4236 -0.3355
 8697TIP3    H126055   0.012   0.815   5.634  0.5126  0.0586 -0.6428
 8697TIP3    H226056   0.005   0.664   5.628  0.3517  0.0210  0.2918
 8698TIP3   OH226057   5.741   1.838   1.791 -0.3338  0.0108  0.8728
 8698TIP3    H126058   5.654   1.800   1.804 -0.1628 -0.6175  0.2562
 8698TIP3    H226059   5.800   1.763   1.790 -0.0689  0.1876 -1.1501
 8699TIP3   OH226060   3.782   0.075   0.050 -0.0858 -0.4019  0.4532
 8699TIP3    H126061   3.789   0.077  -0.045  1.3648 -0.9989  0.5290
 8699TIP3    H226062   3.758   0.165   0.074  2.8391  0.6617 -0.2660
 8700TIP3   OH226063   3.853   4.835   2.876 -0.3384 -0.1439  0.0589
 8700TIP3    H126064   3.913   4.761   2.865 -0.6099 -0.4565  0.6403
 8700TIP3    H226065   3.876   4.895   2.806  0.6261 -0.2815  0.2492
 8701TIP3   OH226066   2.082   1.670   3.019  0.5270 -0.0868  0.4750
 8701TIP3    H126067   2.003   1.645   3.068  0.8338 -1.2568  0.3898
 8701TIP3    H226068   2.048   1.715   2.941 -0.0596 -0.5712  0.4449
 8702TIP3   OH226069   6.481  -0.030   5.725 -0.3868  0.4637  0.2231
 8702TIP3    H126070   6.511   0.011   5.806 -0.2839 -0.3487  0.6024
 8702TIP3    H226071   6.488   0.039   5.659 -0.4353  1.1199  0.8964
 8703TIP3   OH226072   4.803   6.744   2.141  0.0959 -0.3326  0.2698
 8703TIP3    H126073   4.813   6.839   2.147 -0.9149 -0.0892 -1.3151
 8703TIP3    H226074   4.735   6.723   2.205  1.7765 -0.3296  2.1575
 8704TIP3   OH226075   5.747   0.353   2.888  0.8276 -0.1720 -0.3268
 8704TIP3    H126076   5.785   0.273   2.925 -0.5260 -0.5483  0.3313
 8704TIP3    H226077   5.756   0.418   2.956  0.1241 -0.3269 -0.0731
 8705TIP3   OH226078   4.696   0.840   0.245 -0.3983  0.0876  0.0924
 8705TIP3    H126079   4.751   0.889   0.184 -1.1531 -0.5472 -1.1615
 8705TIP3    H226080   4.686   0.754   0.203 -1.0147 -0.3378  1.0862
 8706TIP3   OH226081   1.856   3.087   5.088 -0.4454 -0.0873  0.3881
 8706TIP3    H126082   1.803   3.095   5.167 -0.4746  0.8236  0.2864
 8706TIP3    H226083   1.905   3.169   5.083  0.4016 -0.5954  0.0613
 8707TIP3   OH226084   0.811   3.019   1.172  0.2204  0.6350 -0.0142
 8707TIP3    H126085   0.792   2.977   1.255 -0.3399  0.7780 -0.0657
 8707TIP3    H226086   0.873   2.960   1.129  2.4393  1.7100  1.5027
 8708TIP3   OH226087   2.108   4.554   0.984  0.1451 -0.2530 -0.1478
 8708TIP3    H126088   2.150   4.639   0.972  2.0385 -0.9866  0.9580
 8708TIP3    H226089   2.044   4.568   1.054  1.1364  0.0598  0.7141
 8709TIP3   OH226090   0.075   6.317   3.708  0.3480  0.1084 -0.3068
 8709TIP3    H126091  -0.010   6.350   3.678  1.4432  2.5678 -0.9687
 8709TIP3    H226092   0.131   6.322   3.630  1.3385 -0.5733  0.3428
 8710TIP3   OH226093   4.318   5.744   2.456  0.1331  0.2882  0.1880
 8710TIP3    H126094   4.332   5.820   2.512  2.1021  1.8584 -2.2274
 8710TIP3    H226095   4.310   5.780   2.368  1.5157 -2.2976 -1.1069
 8711TIP3   OH226096   4.377   1.200   5.146 -0.0254  0.3671  0.4292
 8711TIP3    H126097   4.465   1.179   5.116 -0.5200 -0.3159 -0.6604
 8711TIP3    H226098   4.323   1.129   5.111 -0.9053  0.4083  1.6503
 8712TIP3   OH226099   5.085   3.488   3.838 -0.1643 -0.1922  0.1323
 8712TIP3    H126100   5.011   3.509   3.895 -0.6507 -0.3475 -0.4365
 8712TIP3    H226101   5.046   3.454   3.758  0.4357  1.3987 -0.8981
 8713TIP3   OH226102   1.829   1.898   2.530  0.4117 -0.0337  0.0461
 8713TIP3    H126103   1.783   1.932   2.606  0.4187 -1.0715  0.5348
 8713TIP3    H226104   1.794   1.948   2.456 -1.8595 -1.0914  0.3232
 8714TIP3   OH226105   4.269   4.518   4.547  0.0047 -0.1262  0.5115
 8714TIP3    H126106   4.175   4.529   4.557  0.2303  1.0441  1.6506
 8714TIP3    H226107   4.285   4.527   4.453 -1.0123 -0.4223  0.2973
 8715TIP3   OH226108   2.641   0.513   1.362 -0.3579 -0.0057  0.4154
 8715TIP3    H126109   2.567   0.484   1.416 -1.4158  0.6884 -0.6202
 8715TIP3    H226110   2.693   0.434   1.349 -0.4753 -0.3389  1.8186
 8716TIP3   OH226111   3.858   3.925   2.652  0.9442  0.2500 -0.6288
 8716TIP3    H126112   3.818   3.896   2.733  0.5048  1.7583 -0.2682
 8716TIP3    H226113   3.797   3.990   2.616  1.1441 -0.3541 -2.1596
 8717TIP3   OH226114   5.847   3.545   3.279  0.1777  0.5154  0.2380
 8717TIP3    H126115   5.897   3.499   3.346 -0.6528 -0.3443  0.2953
 8717TIP3    H226116   5.905   3.615   3.248  1.7983 -1.0668 -0.4285
 8718TIP3   OH226117   1.717   6.690   1.649 -0.1353  1.2327  0.2815
 8718TIP3    H126118   1.643   6.631   1.662 -0.0445  0.7159 -1.3254
 8718TIP3    H226119   1.684   6.757   1.590  0.7259  0.8605 -0.6442
 8719TIP3   OH226120   0.091   5.995   3.745  0.4020  0.4073  0.0065
 8719TIP3    H126121   0.108   6.089   3.742  1.5889  0.1880 -0.7877
 8719TIP3    H226122   0.161   5.956   3.692  0.9193 -1.0611  1.6600
 8720TIP3   OH226123   3.427   6.323   2.191 -0.0087 -0.6911 -0.2585
 8720TIP3    H126124   3.345   6.324   2.142 -0.3230 -1.0587  0.2434
 8720TIP3    H226125   3.460   6.412   2.185  1.6290 -1.3891 -3.8261
 8721TIP3   OH226126   1.981   6.156   3.697 -0.4498 -0.1262  0.0997
 8721TIP3    H126127   1.907   6.097   3.681  0.7530 -1.3959 -1.0299
 8721TIP3    H226128   2.058   6.103   3.679  0.7216  1.5348  0.0243
 8722TIP3   OH226129   5.585   0.756   0.499 -0.0863 -0.4239 -0.0915
 8722TIP3    H126130   5.503   0.716   0.470 -0.7375  1.8208 -1.6208
 8722TIP3    H226131   5.651   0.722   0.438 -0.2064 -0.8906  0.0370
 8723TIP3   OH226132   0.397   6.589   5.729 -0.2006  0.5726  0.0067
 8723TIP3    H126133   0.397   6.510   5.675  0.5564  0.5965 -0.0386
 8723TIP3    H226134   0.310   6.591   5.768 -1.1502  1.1354 -2.0320
 8724TIP3   OH226135   5.968   6.209   0.869  0.3440 -0.2613  0.0432
 8724TIP3    H126136   5.904   6.280   0.865 -0.1855 -0.7763 -1.0868
 8724TIP3    H226137   5.949   6.164   0.952 -2.2290 -1.6893 -1.1756
 8725TIP3   OH226138   2.982   6.237   1.191 -0.5147  0.0045 -0.0043
 8725TIP3    H126139   2.923   6.242   1.116  1.5333  3.4008 -1.6084
 8725TIP3    H226140   2.985   6.326   1.226  2.7586 -0.2290  0.6414
 8726TIP3   OH226141   1.811   2.186   2.082 -0.0528 -0.0310 -0.5055
 8726TIP3    H126142   1.876   2.256   2.082  0.1660 -0.2022  0.6406
 8726TIP3    H226143   1.789   2.173   1.990 -0.0887  1.5153 -0.7384
 8727TIP3   OH226144   1.278   3.556   1.667 -0.2341  0.4342  0.3662
 8727TIP3    H126145   1.199   3.559   1.612 -2.5587 -2.3228  3.1819
 8727TIP3    H226146   1.257   3.613   1.741  1.2529  1.0969  0.3070
 8728TIP3   OH226147   5.246   6.144   5.329 -0.3962  0.1951  0.0208
 8728TIP3    H126148   5.315   6.090   5.289  0.2121  0.5830  0.5284
 8728TIP3    H226149   5.169   6.087   5.329 -0.4575  0.2107 -1.7884
 8729TIP3   OH226150   2.490   1.631   1.723 -0.3214 -0.6501 -0.3738
 8729TIP3    H126151   2.522   1.682   1.648  0.5122  0.4556  0.6949
 8729TIP3    H226152   2.523   1.678   1.799 -2.3173 -0.9747  0.7463
 8730TIP3   OH226153   5.622   2.615   0.084 -0.5831  0.4947 -0.7323
 8730TIP3    H126154   5.663   2.614   0.170 -2.4231 -0.2910  0.1934
 8730TIP3    H226155   5.683   2.565   0.028  0.5039  0.7862  0.1499
 8731TIP3   OH226156   6.476   5.338   0.556  0.3344 -0.0085  0.0646
 8731TIP3    H126157   6.507   5.298   0.637 -0.5918  1.4416  1.1762
 8731TIP3    H226158   6.399   5.388   0.582  0.6718  1.4067 -1.5030
 8732TIP3   OH226159   5.438   0.092   5.602  0.3613  0.0052 -0.2631
 8732TIP3    H126160   5.502   0.045   5.549  0.5442 -1.9416  1.5095
 8732TIP3    H226161   5.472   0.181   5.609  1.5612 -0.3385 -1.3907
 8733TIP3   OH226162   3.332   4.466   1.143  0.0575  0.0514 -0.2745
 8733TIP3    H126163   3.379   4.495   1.065 -0.0045  0.8221 -0.0322
 8733TIP3    H226164   3.324   4.371   1.132  1.4199 -0.0568 -0.4519
 8734TIP3   OH226165   1.719   6.292   2.917  0.0395  0.5593 -0.5843
 8734TIP3    H126166   1.631   6.329   2.914  0.4451  1.7756  0.9880
 8734TIP3    H226167   1.762   6.324   2.838 -0.5272  1.0275 -0.7063
 8735TIP3   OH226168   0.167   6.071   0.915  0.7267 -0.1834  0.2417
 8735TIP3    H126169   0.084   6.118   0.923  0.9834  0.1119  1.3136
 8735TIP3    H226170   0.205   6.075   1.002  2.5097  0.8476 -0.5475
 8736TIP3   OH226171   0.521   0.911   3.672  0.4769  0.5438 -0.6752
 8736TIP3    H126172   0.548   0.920   3.764  0.0400  1.2894 -0.6181
 8736TIP3    H226173   0.447   0.851   3.676  2.1800 -1.7099 -0.8570
 8737TIP3   OH226174   5.110   6.590   4.672  0.2056 -0.1078 -0.1872
 8737TIP3    H126175   5.123   6.508   4.625  0.2709  0.2030 -0.7118
 8737TIP3    H226176   5.190   6.640   4.655 -0.4068  0.6173 -0.9993
 8738TIP3   OH226177   5.239   0.892   4.306 -0.5286  0.0307  0.0151
 8738TIP3    H126178   5.181   0.818   4.324  0.9302 -1.2318 -0.2971
 8738TIP3    H226179   5.205   0.930   4.225 -1.3152 -0.2656  0.1969
 8739TIP3   OH226180   5.738   1.139   2.532 -0.0257  0.0293  0.0786
 8739TIP3    H126181   5.803   1.163   2.598  0.2139 -1.5553  0.4383
 8739TIP3    H226182   5.785   1.145   2.449 -0.0794  1.1372  0.1108
 8740TIP3   OH226183   6.738   0.753   0.565  0.3618 -0.1095 -0.2800
 8740TIP3    H126184   6.791   0.791   0.636 -0.5034 -1.2042  0.9964
 8740TIP3    H226185   6.795   0.686   0.526  0.4828 -0.2114  0.0646
 8741TIP3   OH226186   2.644   2.465   0.348 -0.5538 -0.1426 -0.4335
 8741TIP3    H126187   2.637   2.498   0.259  0.1921 -1.6999 -1.0984
 8741TIP3    H226188   2.708   2.523   0.390 -1.4629  1.0571 -0.6463
 8742TIP3   OH226189   1.512   5.974   5.155  0.1585 -0.0750  0.3664
 8742TIP3    H126190   1.602   5.952   5.131  0.4805 -0.3534  1.7887
 8742TIP3    H226191   1.458   5.929   5.090  1.0429  0.6629 -0.9264
 8743TIP3   OH226192   1.721   5.875   0.200 -0.0906 -0.2441 -0.0268
 8743TIP3    H126193   1.814   5.897   0.196 -0.1451  0.1261  0.5942
 8743TIP3    H226194   1.677   5.957   0.177 -0.2616 -0.5273 -0.7221
 8744TIP3   OH226195   5.021   5.961   4.054  0.0985 -0.9728 -0.0772
 8744TIP3    H126196   5.116   5.960   4.051  0.1266  0.4891 -1.8561
 8744TIP3    H226197   4.999   6.045   4.094 -0.3949 -0.4491 -1.3760
 8745TIP3   OH226198   2.909   5.809   4.179  0.3521  0.1736 -0.4914
 8745TIP3    H126199   2.915   5.900   4.150  2.4011  0.4382  0.5750
 8745TIP3    H226200   2.924   5.813   4.273  0.1355 -1.2492 -0.3781
 8746TIP3   OH226201   3.191   4.677   2.389  0.0332  0.4636  0.0652
 8746TIP3    H126202   3.117   4.618   2.405  0.4270  0.0013  0.1980
 8746TIP3    H226203   3.202   4.676   2.294  0.3832 -0.1123  0.1050
 8747TIP3   OH226204   5.246   0.277   4.497 -0.5993  0.5533  0.4032
 8747TIP3    H126205   5.239   0.186   4.466  0.7432  0.2495  0.9166
 8747TIP3    H226206   5.186   0.281   4.572 -1.2090  0.3089 -0.0582
 8748TIP3   OH226207   5.985   3.540   1.160 -0.0230 -0.9977  0.6749
 8748TIP3    H126208   5.919   3.609   1.159  1.8037  0.8679  1.7109
 8748TIP3    H226209   5.990   3.510   1.069  0.5998  1.7633 -0.2985
 8749TIP3   OH226210   4.468   6.465   2.661  0.0598  0.4031  0.0731
 8749TIP3    H126211   4.390   6.479   2.714  0.3015  2.4499 -0.0309
 8749TIP3    H226212   4.469   6.371   2.644 -4.3255  0.5831 -2.8443
 8750TIP3   OH226213   0.240   0.645   2.525 -0.1062  0.2061  0.1572
 8750TIP3    H126214   0.221   0.726   2.477 -0.1552 -0.5903 -1.2094
 8750TIP3    H226215   0.335   0.648   2.538 -0.2641  1.0691  1.2311
 8751TIP3   OH226216   3.535   2.772   0.374 -0.4095  0.0100 -0.2126
 8751TIP3    H126217   3.560   2.771   0.282 -0.2866 -3.1432 -0.2624
 8751TIP3    H226218   3.439   2.774   0.374 -0.3949  0.7747 -0.3756
 8752TIP3   OH226219   6.073   3.673   3.597 -0.7104 -0.5750  0.2456
 8752TIP3    H126220   5.996   3.719   3.564 -1.3671 -0.9678  1.1940
 8752TIP3    H226221   6.066   3.585   3.558 -0.6363 -0.5472  0.1705
 8753TIP3   OH226222   4.590   2.775   3.174 -0.4277 -0.9269  0.2161
 8753TIP3    H126223   4.567   2.698   3.122  0.8071 -1.0054 -0.2527
 8753TIP3    H226224   4.544   2.762   3.257 -2.0867 -1.0079 -0.6890
 8754TIP3   OH226225   2.295   4.385   3.191  0.1716 -0.0272 -0.0301
 8754TIP3    H126226   2.315   4.303   3.146 -1.3294 -1.1275  1.2242
 8754TIP3    H226227   2.296   4.451   3.121  0.9413 -1.1526 -1.1341
 8755TIP3   OH226228   0.282   2.535   2.515  0.3010 -0.2298  0.1628
 8755TIP3    H126229   0.295   2.441   2.503  1.8131 -0.0786  0.4008
 8755TIP3    H226230   0.368   2.568   2.540 -0.3630  1.1160  0.7892
 8756TIP3   OH226231   2.036   5.829   0.571 -0.2332 -0.3791 -0.1398
 8756TIP3    H126232   2.031   5.923   0.586  0.2497 -0.7480  3.0172
 8756TIP3    H226233   1.949   5.806   0.539 -0.1487  1.1854 -1.6464
 8757TIP3   OH226234   0.145   5.123   4.445 -0.4701 -0.7986  0.0782
 8757TIP3    H126235   0.225   5.142   4.394 -1.1518 -0.6942 -0.9975
 8757TIP3    H226236   0.177   5.100   4.532  0.7133 -0.2767 -0.1861
 8758TIP3   OH226237   3.954   3.321   4.649  0.2124 -0.5282 -0.3114
 8758TIP3    H126238   3.957   3.345   4.741 -0.2386 -1.4289 -0.0617
 8758TIP3    H226239   3.904   3.392   4.608  1.4965  0.5423 -0.0985
 8759TIP3   OH226240   0.101   3.378   2.509 -0.2633 -0.0772 -0.2700
 8759TIP3    H126241   0.033   3.369   2.576 -0.7530  0.1790 -0.7241
 8759TIP3    H226242   0.056   3.416   2.434  0.5925  1.0416 -0.2483
 8760TIP3   OH226243   5.109   3.362   0.066 -0.1662 -0.3658 -0.1619
 8760TIP3    H126244   5.072   3.371   0.154 -1.0827 -3.4820 -0.0793
 8760TIP3    H226245   5.033   3.366   0.008 -0.1646 -2.4034 -0.3800
 8761TIP3   OH226246   1.546   5.283   0.506  0.0537  0.5079 -0.0913
 8761TIP3    H126247   1.617   5.225   0.480 -0.3893  0.1731 -0.5825
 8761TIP3    H226248   1.473   5.260   0.447 -0.1270  1.5688 -0.3068
 8762TIP3   OH226249   2.035   3.848   4.165 -0.0548 -0.2634  0.7114
 8762TIP3    H126250   2.122   3.811   4.180  0.4586  0.1350 -1.0922
 8762TIP3    H226251   2.030   3.922   4.226  1.9757  1.3770 -0.9579
 8763TIP3   OH226252   3.250   4.892   2.561 -0.7217  0.2035  0.0689
 8763TIP3    H126253   3.242   4.817   2.502 -2.1119  0.5927 -0.2869
 8763TIP3    H226254   3.334   4.932   2.539  0.0686 -1.2563  0.3012
 8764TIP3   OH226255   1.895   0.670   4.505 -0.8121 -0.2105  0.3877
 8764TIP3    H126256   1.871   0.595   4.450  1.3466 -0.8052  0.1292
 8764TIP3    H226257   1.936   0.630   4.582  0.6232  0.6656  0.1209
 8765TIP3   OH226258   3.058   4.870   4.029  0.4284  0.0992 -0.4722
 8765TIP3    H126259   3.055   4.940   4.094 -0.4797  0.3220 -0.7391
 8765TIP3    H226260   3.026   4.911   3.949  2.8224  0.2130 -1.4529
 8766TIP3   OH226261   2.372   6.187   0.019  0.3142 -0.4576 -0.0917
 8766TIP3    H126262   2.328   6.110  -0.017 -0.0565 -0.2222 -0.1480
 8766TIP3    H226263   2.433   6.152   0.083 -0.5163 -0.7386  0.5639
 8767TIP3   OH226264   2.844   6.491   0.501  0.2695  0.1170 -0.0466
 8767TIP3    H126265   2.871   6.546   0.574  1.6580  0.7751 -1.0155
 8767TIP3    H226266   2.888   6.528   0.425 -1.5419 -0.2226 -1.3344
 8768TIP3   OH226267   3.027   4.239   0.869 -0.1161  0.3055 -0.0571
 8768TIP3    H126268   2.935   4.240   0.842  0.2785  1.4987 -1.4520
 8768TIP3    H226269   3.072   4.191   0.800  0.3731  0.0500  0.4349
 8769TIP3   OH226270   2.747   3.741   3.865  0.1268  0.0337 -0.2145
 8769TIP3    H126271   2.839   3.759   3.844  0.4247 -0.4529  0.6459
 8769TIP3    H226272   2.718   3.818   3.915  0.1928 -0.0052 -0.1161
 8770TIP3   OH226273   2.063   4.006   3.933 -0.0784 -0.1666  0.1929
 8770TIP3    H126274   2.001   3.963   3.874  1.2361 -0.0163 -1.3600
 8770TIP3    H226275   2.056   3.956   4.015 -0.3230 -1.8181 -0.7958
 8771TIP3   OH226276   1.899   2.948   4.279  0.0098 -0.2864 -0.0523
 8771TIP3    H126277   1.873   3.015   4.342  0.7563  0.7808 -0.8595
 8771TIP3    H226278   1.819   2.926   4.232 -0.3897 -0.5255  0.7219
 8772TIP3   OH226279   6.513   1.808   3.587  0.3455 -0.0305 -0.9043
 8772TIP3    H126280   6.480   1.880   3.533 -0.4242  1.4724  1.3947
 8772TIP3    H226281   6.605   1.831   3.603  0.2725  0.1182 -0.6924
 8773TIP3   OH226282   3.750   6.365   5.090 -0.2635 -0.1521 -0.2986
 8773TIP3    H126283   3.660   6.400   5.092 -0.8496 -1.6334  0.4267
 8773TIP3    H226284   3.764   6.341   4.999 -0.6724 -0.0998 -0.3777
 8774TIP3   OH226285   2.379   2.778   3.713  0.0000  0.0204  1.2040
 8774TIP3    H126286   2.305   2.835   3.733  0.3106  1.2818 -0.9887
 8774TIP3    H226287   2.446   2.802   3.778  0.1264  2.2097  0.3318
 8775TIP3   OH226288   1.526   0.648   4.573  0.4514  0.6342 -0.9912
 8775TIP3    H126289   1.574   0.677   4.495 -0.2813  0.9238 -1.3505
 8775TIP3    H226290   1.514   0.554   4.560  0.7421  0.5975 -0.9997
 8776TIP3   OH226291   6.754   1.423   1.286  0.5848  0.5199  0.2426
 8776TIP3    H126292   6.723   1.513   1.297 -1.7570 -0.1757 -0.1769
 8776TIP3    H226293   6.719   1.395   1.201  2.7938 -0.2328 -0.4802
 8777TIP3   OH226294   2.185   2.629   1.155  0.1463 -0.2204  0.2796
 8777TIP3    H126295   2.179   2.546   1.108  0.9550 -0.0916 -0.0644
 8777TIP3    H226296   2.204   2.694   1.087  2.3480 -0.1806  0.8692
 8778TIP3   OH226297   6.877   0.545   0.409  0.3523 -0.3860 -0.2181
 8778TIP3    H126298   6.934   0.476   0.444  0.7595 -0.2015 -0.5078
 8778TIP3    H226299   6.806   0.497   0.365  1.1775 -0.6493 -1.3201
 8779TIP3   OH226300   0.913   1.152   0.103 -0.2032 -0.2881 -0.1569
 8779TIP3    H126301   0.892   1.232   0.056  0.2543  0.1617  0.3757
 8779TIP3    H226302   0.979   1.109   0.049 -0.9625 -0.6707 -0.7968
 8780TIP3   OH226303   4.231   3.752   2.305 -0.1085 -0.2353 -0.0465
 8780TIP3    H126304   4.175   3.754   2.227 -0.2272 -2.8512 -0.1258
 8780TIP3    H226305   4.172   3.772   2.378 -0.2967  0.8240 -0.4733
 8781TIP3   OH226306   6.621   4.548   2.861 -0.0143 -0.3520  0.5884
 8781TIP3    H126307   6.542   4.494   2.855  0.0694 -0.3693 -0.4902
 8781TIP3    H226308   6.641   4.551   2.955 -1.1210 -0.5935  0.8457
 8782TIP3   OH226309   4.773   5.182   2.088 -0.3130  0.2335 -0.0342
 8782TIP3    H126310   4.744   5.271   2.107 -2.4725 -0.4842  0.2783
 8782TIP3    H226311   4.745   5.166   1.998  0.6052  0.0648 -0.2961
 8783TIP3   OH226312   6.322   0.192   5.092  0.0549  0.2231  0.2565
 8783TIP3    H126313   6.392   0.136   5.125 -1.2424 -1.1079  0.8715
 8783TIP3    H226314   6.251   0.182   5.157 -1.5307 -0.2593 -1.4725
 8784TIP3   OH226315   6.933   6.042   1.909 -0.2476  0.3441 -0.0797
 8784TIP3    H126316   6.854   6.069   1.861  0.2503 -0.6136 -1.5002
 8784TIP3    H226317   6.963   5.964   1.863  0.5937 -0.2919  1.4840
 8785TIP3   OH226318   6.601   2.942   5.032  0.2335  0.0490 -0.5181
 8785TIP3    H126319   6.609   3.024   5.081 -2.1571 -0.4650  0.8584
 8785TIP3    H226320   6.508   2.935   5.010  0.3953 -2.1673 -0.7891
 8786TIP3   OH226321   6.748   6.622   0.068 -0.1363 -0.0159 -0.3418
 8786TIP3    H126322   6.807   6.673   0.013  0.1700  0.2638  0.2362
 8786TIP3    H226323   6.803   6.550   0.100  0.1748  0.7626  0.9529
 8787TIP3   OH226324   6.859   2.743   1.656 -0.2236  0.4053  0.1673
 8787TIP3    H126325   6.764   2.732   1.660  0.0923 -3.0714  3.1401
 8787TIP3    H226326   6.890   2.667   1.607  1.0872  1.0164  0.0026
 8788TIP3   OH226327   5.238   6.487   2.943 -0.3422 -0.2466  0.0439
 8788TIP3    H126328   5.157   6.441   2.918  0.3924 -2.0621  0.7822
 8788TIP3    H226329   5.307   6.436   2.902  0.4360  1.3730 -0.6908
 8789TIP3   OH226330   4.546   6.612   3.795  0.2064  0.3055 -0.7188
 8789TIP3    H126331   4.581   6.580   3.879  0.1764 -0.0418 -0.8389
 8789TIP3    H226332   4.514   6.700   3.815 -1.4604 -0.4274  0.0745
 8790TIP3   OH226333   1.566   3.261   0.659  0.1816  0.1959 -0.0281
 8790TIP3    H126334   1.622   3.274   0.736  1.0450 -0.9328 -0.4250
 8790TIP3    H226335   1.624   3.220   0.595 -0.7843  0.2126 -0.9328
 8791TIP3   OH226336   4.533   2.623   5.415  0.3036  0.0514 -0.0812
 8791TIP3    H126337   4.491   2.641   5.331 -2.8200 -1.2472  1.0487
 8791TIP3    H226338   4.524   2.705   5.464  0.8128  0.3508 -0.4731
 8792TIP3   OH226339   0.408   6.360   1.184  0.2318 -0.3495 -0.3859
 8792TIP3    H126340   0.385   6.444   1.224  0.3459 -0.1776 -0.6793
 8792TIP3    H226341   0.503   6.362   1.176  0.5360 -1.5145  1.8521
 8793TIP3   OH226342   4.173   5.213   2.982 -0.8448 -0.2697 -0.5966
 8793TIP3    H126343   4.248   5.165   2.948  0.5036  1.9925 -0.9843
 8793TIP3    H226344   4.207   5.264   3.055 -1.7145  1.7000 -1.5133
 8794TIP3   OH226345   0.125   5.522   3.187  0.4730 -0.2960 -0.2279
 8794TIP3    H126346   0.157   5.507   3.276 -1.1940  0.6566  0.5755
 8794TIP3    H226347   0.145   5.614   3.169  0.5018 -0.3929 -0.7142
 8795TIP3   OH226348   1.490   0.175   1.943  0.0640  0.2319 -0.7538
 8795TIP3    H126349   1.403   0.208   1.921 -1.1169 -1.7476  0.7312
 8795TIP3    H226350   1.483   0.080   1.936  1.9658 -0.0105 -0.0604
 8796TIP3   OH226351   0.095   6.156   0.106 -0.0689 -0.1492  0.2299
 8796TIP3    H126352   0.127   6.121   0.023  0.4381  1.5552 -0.3344
 8796TIP3    H226353   0.120   6.090   0.171 -1.1251 -1.8847 -1.0111
 8797TIP3   OH226354   6.519   3.149   1.128 -0.5234  0.3598 -0.0242
 8797TIP3    H126355   6.442   3.107   1.168  0.8518 -2.4659 -0.1188
 8797TIP3    H226356   6.487   3.181   1.044 -1.8809  0.3031  0.4365
 8798TIP3   OH226357   3.132   5.585   0.039 -0.1573 -0.6105 -0.2758
 8798TIP3    H126358   3.043   5.550   0.049 -0.1255 -0.2966  1.4062
 8798TIP3    H226359   3.177   5.520  -0.016 -1.2741 -1.0374 -0.7165
 8799TIP3   OH226360   1.813   3.221   3.481 -0.4240 -0.5560 -0.4177
 8799TIP3    H126361   1.825   3.256   3.569  1.0545  2.4068 -1.6389
 8799TIP3    H226362   1.876   3.149   3.475 -0.4839 -0.7425  0.9058
 8800TIP3   OH226363   5.748   6.493   2.919 -0.1511 -0.4550 -0.3530
 8800TIP3    H126364   5.746   6.435   2.842  0.7113 -0.8095 -0.1235
 8800TIP3    H226365   5.809   6.563   2.895  1.6457 -1.5915  0.6811
 8801TIP3   OH226366   6.815   6.176   5.617  0.3211 -0.0883  0.8199
 8801TIP3    H126367   6.805   6.111   5.687 -0.1454  1.0489  1.8539
 8801TIP3    H226368   6.749   6.152   5.552  0.5083 -0.9487  0.9346
 8802TIP3   OH226369   2.728   2.757   2.519 -0.1949  0.3255  0.8581
 8802TIP3    H126370   2.767   2.691   2.461 -0.8974 -0.1549  0.9191
 8802TIP3    H226371   2.664   2.802   2.464  0.5819  1.2713  0.6915
 8803TIP3   OH226372   2.361   0.294   3.551 -0.4110  0.8257  0.5572
 8803TIP3    H126373   2.414   0.320   3.626 -2.2570  2.5187  1.3310
 8803TIP3    H226374   2.405   0.335   3.476  2.3018 -2.0658  0.3196
 8804TIP3   OH226375   0.929   1.606   3.560  0.3035 -0.0110  0.4967
 8804TIP3    H126376   0.937   1.647   3.646  1.9805 -0.0018  0.3750
 8804TIP3    H226377   0.957   1.674   3.499 -0.8786 -0.0170 -0.0711
 8805TIP3   OH226378   5.949   3.723   0.807  0.0575  0.1563 -0.0845
 8805TIP3    H126379   5.890   3.651   0.829  0.3969 -0.0741  0.0722
 8805TIP3    H226380   6.024   3.681   0.765  0.7378  0.3085  0.9484
 8806TIP3   OH226381   5.934   0.807   0.782  0.2153 -0.2284  0.3377
 8806TIP3    H126382   5.992   0.850   0.845  0.7864 -0.2440 -0.1678
 8806TIP3    H226383   5.882   0.879   0.744  0.8851 -0.0145 -0.2114
 8807TIP3   OH226384   1.716   6.513   1.208  0.1535  0.6018 -0.2793
 8807TIP3    H126385   1.690   6.428   1.244  0.4569  0.2005 -0.9932
 8807TIP3    H226386   1.710   6.573   1.283 -0.3916  0.0259  0.1519
 8808TIP3   OH226387   5.782   0.319   3.426  0.0836  0.0525  0.4457
 8808TIP3    H126388   5.841   0.380   3.471  1.1622 -0.0680 -0.7447
 8808TIP3    H226389   5.742   0.370   3.356 -0.5974 -0.0907  0.7202
 8809TIP3   OH226390   5.267   4.187   3.087 -0.5275  0.3623 -0.2794
 8809TIP3    H126391   5.286   4.257   3.025 -4.1027  0.3436 -1.6000
 8809TIP3    H226392   5.237   4.231   3.166  2.0451  0.3168  0.8368
 8810TIP3   OH226393   3.156   6.482   5.470 -0.2723 -0.2700 -0.1628
 8810TIP3    H126394   3.065   6.497   5.496  0.2404  0.7524  1.1573
 8810TIP3    H226395   3.184   6.565   5.432  0.1687 -0.5188 -0.3881
 8811TIP3   OH226396   2.397   2.001   4.095  0.5735 -0.1936 -0.2912
 8811TIP3    H126397   2.365   2.080   4.053 -0.1624 -0.7133 -0.7317
 8811TIP3    H226398   2.422   2.029   4.183 -0.7639  0.3112 -0.0550
 8812TIP3   OH226399   1.626   3.198   4.691  0.0632 -0.2374  0.3142
 8812TIP3    H126400   1.581   3.239   4.765 -0.5361  3.6235 -1.8782
 8812TIP3    H226401   1.716   3.230   4.698  0.3093 -0.8548  0.0216
 8813TIP3   OH226402   3.855   6.724   5.320 -0.4505  0.0718  0.2205
 8813TIP3    H126403   3.848   6.755   5.411 -0.8368 -1.3550  0.7040
 8813TIP3    H226404   3.803   6.785   5.269 -0.9129  0.4114  1.0873
 8814TIP3   OH226405   3.222   0.678   5.724  0.7448  0.0886 -0.0655
 8814TIP3    H126406   3.129   0.673   5.706  0.2957  2.5382  1.1240
 8814TIP3    H226407   3.233   0.635   5.808  0.7311 -0.4352 -0.3323
 8815TIP3   OH226408   3.479   3.071   5.323  0.1200 -0.7460 -0.0976
 8815TIP3    H126409   3.490   3.149   5.269  0.8520 -0.8108 -0.0627
 8815TIP3    H226410   3.539   3.085   5.397  0.6185 -1.5433 -0.3347
 8816TIP3   OH226411   3.745   5.608   4.134 -0.3120 -0.2352  0.0731
 8816TIP3    H126412   3.713   5.552   4.064  0.3967  1.4180 -1.6556
 8816TIP3    H226413   3.838   5.585   4.143  0.6648  2.2441 -2.4131
 8817TIP3   OH226414   1.042   6.683   4.230 -0.1583 -0.3997 -0.4573
 8817TIP3    H126415   1.120   6.681   4.286  0.3834  0.1975 -1.1833
 8817TIP3    H226416   0.979   6.737   4.278  0.5345  0.6501 -0.7115
 8818TIP3   OH226417   0.726   5.576   1.431  0.7024 -0.0559  0.2762
 8818TIP3    H126418   0.684   5.643   1.485  1.6362  0.8328 -0.0779
 8818TIP3    H226419   0.704   5.600   1.341  2.5681  0.8880  0.0325
 8819TIP3   OH226420   6.613   3.586   0.552 -0.1327  0.5427 -0.3239
 8819TIP3    H126421   6.671   3.623   0.618 -1.1095 -0.9152  1.4508
 8819TIP3    H226422   6.672   3.549   0.486  0.8539  3.0646 -0.9466
 8820TIP3   OH226423   2.108   0.908   5.295  0.2785 -0.2245 -0.0415
 8820TIP3    H126424   2.159   0.832   5.264 -0.0103 -0.3206 -0.2882
 8820TIP3    H226425   2.018   0.888   5.270  0.1809  0.1409  0.0128
 8821TIP3   OH226426   2.881   2.736   1.126 -0.3233 -0.0181 -0.7939
 8821TIP3    H126427   2.961   2.715   1.079  0.9421  2.3687  0.1729
 8821TIP3    H226428   2.910   2.778   1.207 -2.4970 -1.4973  0.9070
 8822TIP3   OH226429   1.793   3.640   2.100 -0.0101  0.2207 -0.7345
 8822TIP3    H126430   1.858   3.687   2.049 -0.1275  0.3302 -0.7828
 8822TIP3    H226431   1.823   3.549   2.100  0.5818  0.4066 -0.0725
 8823TIP3   OH226432   4.863   4.858   2.058 -0.0549 -0.4197  0.6421
 8823TIP3    H126433   4.782   4.886   2.016 -0.1398  1.4511  1.9611
 8823TIP3    H226434   4.839   4.779   2.107 -0.5871 -1.0125 -0.5406
 8824TIP3   OH226435   5.530   1.185   3.432 -0.1359  0.0490 -0.3658
 8824TIP3    H126436   5.463   1.212   3.369 -1.8909  0.1715  1.4345
 8824TIP3    H226437   5.598   1.251   3.426 -1.4240  1.4107 -0.4477
 8825TIP3   OH226438   1.170   3.844   3.287 -0.1809  0.4767 -0.4411
 8825TIP3    H126439   1.255   3.853   3.244  0.6436  0.2954  1.0694
 8825TIP3    H226440   1.129   3.930   3.277  0.5504  0.8366 -0.4567
 8826TIP3   OH226441   1.092   2.615   4.977  0.2646  0.4148 -0.3983
 8826TIP3    H126442   1.076   2.709   4.972 -0.1028  0.3423 -0.6022
 8826TIP3    H226443   1.148   2.605   5.055 -1.7994  0.5518  1.1957
 8827TIP3   OH226444   2.703   4.030   0.224 -0.0627 -0.1819 -0.5016
 8827TIP3    H126445   2.659   4.064   0.303 -1.3897  0.3750 -1.4447
 8827TIP3    H226446   2.796   4.038   0.244 -0.3631  0.5312  0.7775
 8828TIP3   OH226447   0.372   5.724   2.030 -0.5127 -0.9537 -0.2536
 8828TIP3    H126448   0.369   5.661   1.958  1.8719  0.0814 -1.3633
 8828TIP3    H226449   0.458   5.710   2.071 -0.5764  0.4976  0.4630
 8829TIP3   OH226450   1.391   3.937   0.150 -0.0174  0.1388  0.2196
 8829TIP3    H126451   1.388   3.872   0.221  2.0615  0.6557  0.8605
 8829TIP3    H226452   1.396   4.021   0.195 -1.8495  0.7524 -0.6041
 8830TIP3   OH226453   6.983   1.783   3.043  0.2958 -0.6771 -0.2248
 8830TIP3    H126454   7.030   1.867   3.046 -1.0687  0.1823 -1.4345
 8830TIP3    H226455   6.925   1.786   3.119 -0.5904  0.0272 -0.9073
 8831TIP3   OH226456   4.413   2.714   2.439 -0.0677  0.4449  0.1069
 8831TIP3    H126457   4.369   2.785   2.486 -2.0156 -0.7737  0.2425
 8831TIP3    H226458   4.424   2.645   2.504 -1.2796 -0.6260 -0.7642
 8832TIP3   OH226459   6.364   1.926   4.410 -0.0004 -0.7153  0.6193
 8832TIP3    H126460   6.317   1.869   4.348  2.2846 -0.4826 -1.5069
 8832TIP3    H226461   6.333   2.014   4.389  0.2266 -0.7125  0.2731
 8833TIP3   OH226462   4.635   3.531   0.767 -0.0953 -0.0828  0.0394
 8833TIP3    H126463   4.563   3.594   0.760  0.3737  0.4654  0.0672
 8833TIP3    H226464   4.599   3.450   0.732 -0.0873  0.7207 -1.9709
 8834TIP3   OH226465   5.241   2.997   3.919 -0.4793  0.0297  0.3141
 8834TIP3    H126466   5.315   2.936   3.917 -0.6760 -0.2039  0.0444
 8834TIP3    H226467   5.167   2.943   3.947 -0.5338  0.2797  0.6611
 8835TIP3   OH226468   5.441   3.283   5.395  0.0750  0.1661  0.0160
 8835TIP3    H126469   5.369   3.245   5.344  0.5260 -0.1561 -0.3989
 8835TIP3    H226470   5.520   3.245   5.356  0.4016 -1.0088  1.6802
 8836TIP3   OH226471   2.249   3.080   5.204 -0.0839 -0.4811  0.2987
 8836TIP3    H126472   2.185   3.059   5.272 -0.9712 -0.0223 -0.3842
 8836TIP3    H226473   2.290   2.995   5.184  0.5866 -0.5462  1.7586
 8837TIP3   OH226474   3.613   0.985   3.325  0.3401 -0.3150  0.6636
 8837TIP3    H126475   3.699   1.024   3.338  0.3055 -0.1731  0.4821
 8837TIP3    H226476   3.607   0.916   3.390  0.0797  0.5311  1.5663
 8838TIP3   OH226477   6.259   5.585   2.465  0.0243  0.0600 -0.4456
 8838TIP3    H126478   6.224   5.674   2.464 -1.2550 -0.4263 -0.7083
 8838TIP3    H226479   6.295   5.574   2.553  0.7445  1.0242 -0.5980
 8839TIP3   OH226480   1.265   4.972   1.204 -0.0604  0.3445  0.3005
 8839TIP3    H126481   1.218   4.909   1.259 -0.1822 -0.6211 -0.8518
 8839TIP3    H226482   1.357   4.963   1.230 -0.0983 -0.2010  0.2528
 8840TIP3   OH226483   1.029   1.361   2.860  0.2835 -0.2052 -0.6882
 8840TIP3    H126484   0.936   1.339   2.855  0.0209 -0.2457  2.3475
 8840TIP3    H226485   1.052   1.391   2.772 -2.6778  0.1814 -1.4236
 8841TIP3   OH226486   0.963   0.849   1.439  0.0993  0.2611 -0.0662
 8841TIP3    H126487   1.009   0.930   1.460  0.6908 -0.1951  0.4051
 8841TIP3    H226488   1.017   0.780   1.476 -0.6159 -0.3289 -0.1042
 8842TIP3   OH226489   3.969   0.714   3.471  0.0333 -0.1999  0.1971
 8842TIP3    H126490   3.951   0.789   3.527 -2.3587  0.8396 -1.7878
 8842TIP3    H226491   3.883   0.677   3.450  0.9497 -1.7176 -1.2362
 8843TIP3   OH226492   3.846   3.834   2.309  0.1798 -0.0418  0.5280
 8843TIP3    H126493   3.914   3.895   2.339 -0.2332  0.4238  0.5230
 8843TIP3    H226494   3.775   3.844   2.372  0.5482 -1.3423  1.1687
 8844TIP3   OH226495   2.458   0.160   2.731  0.3679  0.1388  0.1167
 8844TIP3    H126496   2.490   0.147   2.821 -0.6245  1.9083  0.7738
 8844TIP3    H226497   2.481   0.251   2.711  1.1896 -0.4308 -1.7210
 8845TIP3   OH226498   6.870   3.811   5.710  0.1228 -0.1479  0.0560
 8845TIP3    H126499   6.799   3.856   5.756 -0.7313 -1.6918  0.3135
 8845TIP3    H226500   6.887   3.866   5.633  1.2441  2.2222  1.8365
 8846TIP3   OH226501   1.810   0.022   1.674  0.3946  0.0987 -0.2102
 8846TIP3    H126502   1.886   0.051   1.624 -0.1320 -0.6029 -1.4726
 8846TIP3    H226503   1.749   0.096   1.672  0.1223 -0.1391 -1.1669
 8847TIP3   OH226504   5.061   2.936   5.759  0.2849  0.8456  0.4190
 8847TIP3    H126505   4.997   2.881   5.714  1.9756 -0.5800 -0.3670
 8847TIP3    H226506   5.117   2.874   5.804  0.8291  2.0900  1.4951
 8848TIP3   OH226507   6.538   5.477   4.190 -0.0075  0.6586  0.5193
 8848TIP3    H126508   6.628   5.444   4.199  0.2610  1.1837 -0.0860
 8848TIP3    H226509   6.485   5.419   4.245  0.8472  0.9896  1.7359
 8849TIP3   OH226510   6.163   0.740   2.785 -0.2286 -0.7690 -0.0610
 8849TIP3    H126511   6.067   0.736   2.781 -0.2721 -1.4932  1.1842
 8849TIP3    H226512   6.192   0.701   2.703 -0.9896  0.2640 -0.8504
 8850TIP3   OH226513   5.371   5.290   2.298 -0.5054 -0.7865  0.5366
 8850TIP3    H126514   5.447   5.248   2.259  0.8154  1.6838  0.3016
 8850TIP3    H226515   5.377   5.269   2.391  0.1772 -1.0128  0.4429
 8851TIP3   OH226516   0.114   2.148   0.243  0.1621  0.0343 -0.0657
 8851TIP3    H126517   0.054   2.203   0.293 -0.8083  0.7143 -1.8798
 8851TIP3    H226518   0.198   2.195   0.247 -0.8385  2.2522 -2.2975
 8852TIP3   OH226519   2.549   5.777   5.524  0.0587  0.0911  0.0371
 8852TIP3    H126520   2.498   5.757   5.603  0.6570 -0.9821  0.1621
 8852TIP3    H226521   2.613   5.842   5.554  1.8319 -2.0157  1.0625
 8853TIP3   OH226522   0.024   0.015   2.911  0.1551 -0.0707 -0.0480
 8853TIP3    H126523  -0.024   0.001   2.829 -1.1633  0.3283  0.6329
 8853TIP3    H226524   0.032   0.110   2.919  1.1808 -0.1344 -0.2084
 8854TIP3   OH226525   5.851   3.528   3.735  0.5049 -0.4500  0.0531
 8854TIP3    H126526   5.934   3.535   3.783 -0.0258 -0.0505  0.9503
 8854TIP3    H226527   5.842   3.612   3.690  0.4263 -0.3622  0.2319
 8855TIP3   OH226528   6.577   0.617   0.012 -0.3792 -0.0772 -0.5832
 8855TIP3    H126529   6.663   0.659   0.021 -0.6644  0.4839 -0.4371
 8855TIP3    H226530   6.518   0.688  -0.014 -0.8530 -0.4071 -0.4240
 8856TIP3   OH226531   1.631   6.014   4.725  0.4002 -0.7187  0.0956
 8856TIP3    H126532   1.649   5.933   4.772 -1.1313 -0.8022  0.5835
 8856TIP3    H226533   1.654   5.994   4.634  0.2342 -1.6366  0.2459
 8857TIP3   OH226534   1.206   0.812   2.204 -0.2187 -0.4231  0.2178
 8857TIP3    H126535   1.248   0.765   2.131  1.1012 -1.4494  1.5898
 8857TIP3    H226536   1.204   0.748   2.275 -0.6714  0.8454  1.3763
 8858TIP3   OH226537   0.765   5.244   4.315 -0.6842 -0.3923  0.2705
 8858TIP3    H126538   0.807   5.306   4.254 -2.0351 -1.1603 -1.5410
 8858TIP3    H226539   0.746   5.297   4.393  1.5428  0.5171  0.2899
 8859TIP3   OH226540   0.655   0.008   3.059  0.5055 -0.0628  0.2630
 8859TIP3    H126541   0.719   0.072   3.028 -0.1099 -0.1777 -1.3086
 8859TIP3    H226542   0.582   0.060   3.091  1.1457  0.0546  1.6387
 8860TIP3   OH226543   3.241   0.646   0.909 -0.0763 -0.4502  0.0272
 8860TIP3    H126544   3.230   0.619   0.818 -2.2959 -1.4259  0.5332
 8860TIP3    H226545   3.185   0.723   0.919 -2.0681 -1.9484  1.1832
 8861TIP3   OH226546   5.939   3.657   5.853 -0.4150 -0.5775 -0.5696
 8861TIP3    H126547   5.848   3.629   5.852 -0.3506 -0.7847 -0.6806
 8861TIP3    H226548   5.952   3.701   5.769 -1.2023  2.0316  0.5696
 8862TIP3   OH226549   6.739   2.315   0.991 -0.3975  0.1964 -0.0957
 8862TIP3    H126550   6.771   2.399   1.024 -0.9046 -0.6670  2.8991
 8862TIP3    H226551   6.818   2.264   0.974 -0.0919  0.3855  0.7084
 8863TIP3   OH226552   4.686   1.950   2.710 -0.2313 -0.3755 -0.3411
 8863TIP3    H126553   4.762   2.007   2.723 -0.0958 -0.6689  0.2091
 8863TIP3    H226554   4.721   1.875   2.661 -0.3587 -0.1052 -0.8544
 8864TIP3   OH226555   6.515   3.343   2.366  0.1839  0.9435  0.1353
 8864TIP3    H126556   6.529   3.434   2.339  1.4688  0.4950 -0.8384
 8864TIP3    H226557   6.545   3.340   2.457  0.4382  1.4154  0.0690
 8865TIP3   OH226558   1.897   3.706   3.960  0.1661  0.0062 -0.0214
 8865TIP3    H126559   1.900   3.787   3.908 -1.2948  0.4269  0.5188
 8865TIP3    H226560   1.925   3.733   4.047  0.7068 -0.3117 -0.0859
 8866TIP3   OH226561   2.040   2.078   5.432 -0.5926  0.0435 -0.3936
 8866TIP3    H126562   2.012   2.169   5.443  0.9370  0.6035 -0.7410
 8866TIP3    H226563   1.965   2.026   5.458 -1.0003  1.3905  1.3020
 8867TIP3   OH226564   5.496   2.621   4.325 -0.2420  0.3951  0.0706
 8867TIP3    H126565   5.564   2.668   4.373  0.6036 -0.9665  0.2817
 8867TIP3    H226566   5.469   2.680   4.255  0.6795  1.2192  0.3955
 8868TIP3   OH226567   4.728   4.145   3.233 -0.7136  0.2230 -0.0534
 8868TIP3    H126568   4.717   4.050   3.227  2.0222 -0.1527 -0.9513
 8868TIP3    H226569   4.702   4.177   3.146 -1.8622  0.3374  0.3272
 8869TIP3   OH226570   2.713   1.503   1.791  0.0904 -0.0188 -0.4807
 8869TIP3    H126571   2.634   1.548   1.761 -0.3192  0.4509  1.2417
 8869TIP3    H226572   2.761   1.568   1.842  0.5074 -0.9334  0.3259
 8870TIP3   OH226573   2.995   0.588   3.932  0.8685 -0.0657  0.4705
 8870TIP3    H126574   3.027   0.654   3.870  0.0038 -1.8652 -2.0310
 8870TIP3    H226575   2.959   0.640   4.005  2.3120  2.1285 -0.2617
 8871TIP3   OH226576   3.640   2.539   1.817  0.4433  0.3333 -0.2677
 8871TIP3    H126577   3.644   2.627   1.856  0.4946 -0.0639  0.6376
 8871TIP3    H226578   3.715   2.493   1.854  1.8943  0.6436 -2.6473
 8872TIP3   OH226579   4.706   4.797   0.387  0.2166  0.3797  0.0262
 8872TIP3    H126580   4.722   4.717   0.438 -1.3229 -0.3961 -0.6669
 8872TIP3    H226581   4.741   4.777   0.300  0.8280  0.8813  0.1519
 8873TIP3   OH226582   1.232   4.881   4.741 -0.6718  0.1455  0.2133
 8873TIP3    H126583   1.235   4.976   4.729  0.2298  0.0955 -0.0767
 8873TIP3    H226584   1.144   4.856   4.714 -1.2549  1.0153  1.2602
 8874TIP3   OH226585   2.670   0.457   2.779 -0.7562  0.1107 -0.0322
 8874TIP3    H126586   2.710   0.544   2.776  0.3265 -0.2882  1.5161
 8874TIP3    H226587   2.713   0.408   2.709 -1.2194  0.7326 -0.7722
 8875TIP3   OH226588   6.005   0.632   0.142  0.5635  0.2463 -0.2487
 8875TIP3    H126589   5.965   0.571   0.080  0.2182  0.8954 -0.6710
 8875TIP3    H226590   5.984   0.595   0.228 -1.1012  0.6538 -0.4567
 8876TIP3   OH226591   5.926   0.565   0.648 -0.2370 -0.4148 -0.0509
 8876TIP3    H126592   5.840   0.528   0.670 -1.3102  0.7397 -2.0331
 8876TIP3    H226593   5.933   0.644   0.701  0.4166 -1.4032  1.4029
 8877TIP3   OH226594   3.162   5.633   5.376  0.2903  0.3088  0.0702
 8877TIP3    H126595   3.145   5.700   5.310  1.8365 -1.3187 -2.1723
 8877TIP3    H226596   3.080   5.625   5.424 -2.0291 -0.3456 -3.5942
 8878TIP3   OH226597   6.517   2.955   0.815  0.0998  0.1050  0.0097
 8878TIP3    H126598   6.490   2.931   0.904 -1.6008 -1.6237 -0.8996
 8878TIP3    H226599   6.568   2.880   0.784 -1.7679 -0.6569 -1.4291
 8879TIP3   OH226600   4.343   2.434   2.069 -0.3656 -0.2053  0.0460
 8879TIP3    H126601   4.281   2.495   2.031  0.4341 -0.6044 -2.0130
 8879TIP3    H226602   4.357   2.368   2.002  2.2397 -0.1416  0.4048
 8880TIP3   OH226603   0.509   6.640   3.604 -0.0413 -0.0679 -0.0005
 8880TIP3    H126604   0.604   6.648   3.608 -0.1626  1.3230  0.3367
 8880TIP3    H226605   0.493   6.575   3.534  1.1301 -0.0674 -0.2782
 8881TIP3   OH226606   7.147   2.032   2.343  0.0722  0.2462  0.0817
 8881TIP3    H126607   7.164   1.938   2.350  0.7957  0.3254 -0.4223
 8881TIP3    H226608   7.107   2.056   2.426  0.1036 -0.4617  0.3062
 8882TIP3   OH226609   4.247   5.898   4.410 -0.4812 -0.7731 -0.1819
 8882TIP3    H126610   4.213   5.825   4.462  0.6005 -0.0454  1.6323
 8882TIP3    H226611   4.185   5.969   4.427 -0.1643 -0.5535  0.0536
 8883TIP3   OH226612   7.057   6.284   2.931  0.8596  0.4291  0.0121
 8883TIP3    H126613   7.035   6.191   2.932  0.1764  0.4671 -2.4667
 8883TIP3    H226614   7.144   6.288   2.890  1.0821  0.8542  0.5201
 8884TIP3   OH226615   6.607   4.135   2.068 -0.3329 -0.7857  0.2235
 8884TIP3    H126616   6.539   4.084   2.113 -0.3249 -1.0691 -0.0761
 8884TIP3    H226617   6.689   4.091   2.092 -0.3924 -1.4002 -0.6635
 8885TIP3   OH226618   0.836   0.674   5.544  0.2357  0.3923 -0.1177
 8885TIP3    H126619   0.890   0.657   5.621 -1.0260  2.2645  1.2813
 8885TIP3    H226620   0.887   0.640   5.471  1.0919 -2.2835  1.5719
 8886TIP3   OH226621   0.930   5.238   2.522  0.1301 -0.0551  0.8208
 8886TIP3    H126622   1.018   5.275   2.531  1.2772 -2.5398  0.6099
 8886TIP3    H226623   0.930   5.198   2.435 -1.7161  1.0404  0.2625
 8887TIP3   OH226624   5.375   5.752   4.333 -0.1678  0.4793  0.0375
 8887TIP3    H126625   5.387   5.730   4.240  0.0484  1.2779 -0.1328
 8887TIP3    H226626   5.283   5.776   4.340 -0.8681 -2.1107  0.5892
 8888TIP3   OH226627   3.383   0.345   3.615 -0.2017 -0.4305  0.8822
 8888TIP3    H126628   3.346   0.327   3.701 -2.1737  1.4161  0.5128
 8888TIP3    H226629   3.322   0.407   3.575 -0.9681 -3.2719 -2.9960
 8889TIP3   OH226630   0.155   4.861   0.149  0.4162  0.3548 -0.0853
 8889TIP3    H126631   0.062   4.863   0.127  0.0892  0.3138  1.1845
 8889TIP3    H226632   0.197   4.824   0.072 -0.6619  0.0296 -0.5449
 8890TIP3   OH226633   4.895   2.581   3.132 -0.5776  0.2719  0.2687
 8890TIP3    H126634   4.861   2.657   3.179  0.1631  0.1077  1.0970
 8890TIP3    H226635   4.877   2.599   3.040 -3.2992 -0.0209  0.6771
 8891TIP3   OH226636   0.690   5.480   1.771  0.2892  0.1618 -0.5252
 8891TIP3    H126637   0.713   5.434   1.691 -0.7686 -0.9285 -0.2294
 8891TIP3    H226638   0.649   5.562   1.741 -0.6357 -0.4981 -1.1336
 8892TIP3   OH226639   6.735   0.798   2.155 -0.2944  0.1669  0.2261
 8892TIP3    H126640   6.812   0.835   2.112 -0.6347  0.0942 -0.4650
 8892TIP3    H226641   6.668   0.797   2.086 -1.1673  0.9980  1.0413
 8893TIP3   OH226642   2.480   3.847   1.861  0.2760  0.1754  0.4026
 8893TIP3    H126643   2.493   3.878   1.771 -3.6988  2.1406  0.2833
 8893TIP3    H226644   2.498   3.923   1.916  1.8365 -0.7677  1.2681
 8894TIP3   OH226645   4.800   1.340   5.661  0.0655 -0.3842  0.2863
 8894TIP3    H126646   4.874   1.298   5.706 -0.1471 -1.0372  0.0458
 8894TIP3    H226647   4.831   1.351   5.571  0.0617 -0.1756  0.3117
 8895TIP3   OH226648   4.802   5.797   3.286  0.3324  0.2712  0.2912
 8895TIP3    H126649   4.811   5.827   3.376  0.0926  1.1732  0.0269
 8895TIP3    H226650   4.720   5.835   3.256 -2.0326 -3.6884  1.0592
 8896TIP3   OH226651   3.353   3.474   2.025  0.2576 -0.0281  0.6275
 8896TIP3    H126652   3.372   3.528   1.949  0.6153  0.3296  0.9645
 8896TIP3    H226653   3.404   3.394   2.012  1.1390  0.4664  0.9926
 8897TIP3   OH226654   5.073   3.669   5.834  0.0810 -0.4496  0.5163
 8897TIP3    H126655   5.014   3.696   5.764  0.9475 -1.8377 -0.7858
 8897TIP3    H226656   5.101   3.752   5.873 -0.6845  0.3416 -0.5351
 8898TIP3   OH226657   3.626   4.986   5.296 -0.6519 -0.0239  0.7251
 8898TIP3    H126658   3.578   5.043   5.236  1.0903  0.0877 -0.6366
 8898TIP3    H226659   3.630   5.035   5.378 -0.2875  1.2556 -0.0368
 8899TIP3   OH226660   0.342   2.620   3.108  0.1826  0.3416  0.2661
 8899TIP3    H126661   0.370   2.634   3.199  1.9742 -1.5529  0.0761
 8899TIP3    H226662   0.420   2.638   3.055 -0.5124  0.2894 -0.8067
 8900TIP3   OH226663   6.153   3.192   1.272  0.1652 -0.3242 -0.0743
 8900TIP3    H126664   6.058   3.199   1.272  0.1317 -0.2526  1.8389
 8900TIP3    H226665   6.170   3.098   1.269  0.0242 -0.3388 -0.3844
 8901TIP3   OH226666   5.312   3.902   3.627 -0.0590  0.0030 -0.2580
 8901TIP3    H126667   5.282   3.814   3.604  0.7695 -0.3596  0.0112
 8901TIP3    H226668   5.314   3.949   3.544  1.3948 -0.8330 -0.7298
 8902TIP3   OH226669   4.703   1.847   1.577 -0.3607  0.3911 -0.1926
 8902TIP3    H126670   4.706   1.839   1.482 -1.5634  1.2038 -0.3124
 8902TIP3    H226671   4.753   1.771   1.609  1.0023  0.7112 -1.4600
 8903TIP3   OH226672   1.122   5.802   3.567 -0.3719  0.3768 -0.1702
 8903TIP3    H126673   1.034   5.779   3.596 -0.0939  0.8075  1.1064
 8903TIP3    H226674   1.180   5.766   3.635  0.6334 -1.6267 -1.9348
 8904TIP3   OH226675   5.943   5.961   0.440 -0.1457 -0.1314  0.3343
 8904TIP3    H126676   5.916   5.947   0.350 -0.3413 -2.6466  0.7233
 8904TIP3    H226677   6.036   5.981   0.434 -0.4055  0.9148 -0.4787
 8905TIP3   OH226678   3.480   0.049   5.007 -0.2756  0.0728 -0.0062
 8905TIP3    H126679   3.458   0.104   5.082  3.3012 -1.0029  2.1045
 8905TIP3    H226680   3.469  -0.040   5.039  3.8677 -0.4898  0.4213
 8906TIP3   OH226681   0.764   3.074   3.322 -0.1608 -0.4205  0.4236
 8906TIP3    H126682   0.767   3.134   3.248  0.5555 -0.3466  0.5012
 8906TIP3    H226683   0.734   3.128   3.396  0.9698 -0.0113  0.6101
 8907TIP3   OH226684   4.717   3.453   1.729 -0.1068  0.1360  0.3847
 8907TIP3    H126685   4.796   3.502   1.752  0.6677 -0.8653 -0.0665
 8907TIP3    H226686   4.698   3.479   1.639 -0.1291  0.1632  0.3973
 8908TIP3   OH226687   1.198   0.587   3.056 -0.3505  0.0588  0.2380
 8908TIP3    H126688   1.149   0.658   3.098 -0.7576  0.3291 -0.6679
 8908TIP3    H226689   1.274   0.631   3.016  1.3961 -0.5137  2.6894
 8909TIP3   OH226690   2.454   3.585   4.969 -0.3301  0.1432  0.6322
 8909TIP3    H126691   2.504   3.504   4.961 -0.6534  0.0074 -0.1168
 8909TIP3    H226692   2.375   3.560   5.017  0.0888  0.2615  1.4039
 8910TIP3   OH226693   5.120   1.063   2.944  0.3484  0.2795 -0.4460
 8910TIP3    H126694   5.069   1.082   2.866  0.1831  1.5317 -0.0622
 8910TIP3    H226695   5.065   1.005   2.996  0.2996 -0.2441 -1.0703
 8911TIP3   OH226696   6.914   5.695   3.640  0.5420  0.2959  0.6072
 8911TIP3    H126697   6.986   5.757   3.622  1.2087 -0.5186  0.4114
 8911TIP3    H226698   6.866   5.736   3.712 -0.8020  2.4732 -1.4074
 8912TIP3   OH226699   5.173   2.625   4.228  0.0674 -0.1363  0.0198
 8912TIP3    H126700   5.120   2.608   4.306  0.4756 -4.0408 -0.3474
 8912TIP3    H226701   5.152   2.553   4.168  1.7973  1.1939 -2.3853
 8913TIP3   OH226702   3.329   2.874   1.190  0.8365  0.3993  0.3332
 8913TIP3    H126703   3.405   2.836   1.145  1.0924 -1.1329  1.9738
 8913TIP3    H226704   3.367   2.938   1.251  0.5704  1.6140 -0.7250
 8914TIP3   OH226705   3.485   5.151   5.118  0.0498  0.1922  0.3889
 8914TIP3    H126706   3.529   5.201   5.188  0.1568 -0.0770  0.5142
 8914TIP3    H226707   3.445   5.218   5.063  0.0639  0.4121  0.6445
 8915TIP3   OH226708   6.154   6.095   4.292  0.1502 -0.0315  0.5599
 8915TIP3    H126709   6.152   6.149   4.212  2.6309  0.5091  0.7680
 8915TIP3    H226710   6.074   6.043   4.288 -0.5307  1.0478 -1.5212
 8916TIP3   OH226711   0.726   3.653   2.163  0.0856 -0.2808 -0.1641
 8916TIP3    H126712   0.779   3.575   2.181  2.1810  1.0447 -0.2760
 8916TIP3    H226713   0.723   3.658   2.067 -0.1351 -0.2762 -0.1569
 8917TIP3   OH226714   4.918   0.508   4.547 -0.4217  0.3133 -0.4291
 8917TIP3    H126715   4.872   0.540   4.624  0.3762 -1.1516  0.6912
 8917TIP3    H226716   4.886   0.418   4.535  1.2125 -0.3133 -0.3464
 8918TIP3   OH226717   6.170   2.736   2.888  0.0967  0.0396 -0.0176
 8918TIP3    H126718   6.104   2.727   2.957 -0.7598 -0.0941 -0.8268
 8918TIP3    H226719   6.136   2.805   2.831  1.3477  0.9337  0.2830
 8919TIP3   OH226720   2.232   5.222   2.299 -0.6528 -0.0627 -0.1747
 8919TIP3    H126721   2.258   5.287   2.234 -0.7265  0.8194  0.6494
 8919TIP3    H226722   2.197   5.274   2.371  0.0739 -0.9720  0.8639
 8920TIP3   OH226723   5.588   4.604   1.898 -0.1998  0.5634 -0.0739
 8920TIP3    H126724   5.637   4.523   1.885 -0.4575  0.2335  0.9400
 8920TIP3    H226725   5.497   4.577   1.903 -0.3979  1.0543 -0.8932
 8921TIP3   OH226726   6.269   6.162   3.684 -0.4654 -0.2921 -0.1450
 8921TIP3    H126727   6.348   6.119   3.652 -0.9283  0.1290 -1.9433
 8921TIP3    H226728   6.222   6.094   3.732  1.5938 -0.2091  2.2272
 8922TIP3   OH226729   0.689   3.217   3.526 -0.3728 -0.1591  0.3047
 8922TIP3    H126730   0.752   3.190   3.593  0.1136 -1.3807 -0.6081
 8922TIP3    H226731   0.617   3.256   3.575  0.8915  0.8973  1.4032
 8923TIP3   OH226732   3.975   1.026   0.215 -0.6886 -0.4957 -0.0184
 8923TIP3    H126733   4.029   1.040   0.137 -0.8345  0.7675  0.0822
 8923TIP3    H226734   4.036   0.991   0.280 -0.1141  0.2852 -0.1119
 8924TIP3   OH226735   3.196   1.604   1.448 -0.6523  1.0008 -0.5255
 8924TIP3    H126736   3.132   1.625   1.516 -1.8823 -0.6438 -1.1220
 8924TIP3    H226737   3.146   1.606   1.366  0.4371  1.3232 -1.1997
 8925TIP3   OH226738   1.676   5.946   1.523  0.4207 -0.1725  0.1141
 8925TIP3    H126739   1.582   5.926   1.515  0.2777  0.6465 -0.4233
 8925TIP3    H226740   1.708   5.946   1.433  1.0175 -0.7573  0.3172
 8926TIP3   OH226741   3.959   3.815   4.219  0.3446  0.3944 -0.0616
 8926TIP3    H126742   3.916   3.870   4.154 -0.9545 -0.5543 -0.0372
 8926TIP3    H226743   4.029   3.771   4.170  1.2692  1.8577 -0.1243
 8927TIP3   OH226744   4.117   6.682   2.679  0.6539 -0.7324  0.7194
 8927TIP3    H126745   4.060   6.759   2.680  0.2003 -1.0488 -0.1904
 8927TIP3    H226746   4.070   6.618   2.627  1.0221 -1.6409  1.4793
 8928TIP3   OH226747   2.845   1.202   4.967 -0.1334  0.1225 -0.4372
 8928TIP3    H126748   2.771   1.216   4.908 -0.9145 -1.5177  0.1152
 8928TIP3    H226749   2.821   1.125   5.019  0.5640  1.3925  1.9578
 8929TIP3   OH226750   6.790   5.248   2.750 -0.0190  0.2313  0.2737
 8929TIP3    H126751   6.718   5.188   2.729  0.9809 -0.1622 -2.5066
 8929TIP3    H226752   6.747   5.323   2.791 -1.7000 -0.9786  0.8585
 8930TIP3   OH226753   0.046   2.404   0.045 -0.2046  0.4384  0.4753
 8930TIP3    H126754   0.018   2.430  -0.043 -0.4411  1.2787  0.7971
 8930TIP3    H226755  -0.025   2.349   0.077 -0.9957  1.6641  0.8609
 8931TIP3   OH226756   5.085   4.285   3.894  0.3614  0.8335  0.1611
 8931TIP3    H126757   5.170   4.329   3.886  0.8422 -0.0898  0.1669
 8931TIP3    H226758   5.041   4.332   3.964  0.8853  1.2818  0.2016
 8932TIP3   OH226759   5.501   2.995   4.655  0.2770 -0.3008 -0.9306
 8932TIP3    H126760   5.523   3.073   4.706  1.6938 -0.2557 -1.5809
 8932TIP3    H226761   5.461   2.935   4.719  1.3025  0.0540  0.0733
 8933TIP3   OH226762   2.504   0.069   4.462 -0.5499  0.4274 -0.1277
 8933TIP3    H126763   2.487  -0.009   4.515  0.5200  0.8452  0.8588
 8933TIP3    H226764   2.596   0.089   4.477 -0.3140  0.7887 -1.8689
 8934TIP3   OH226765   4.568   1.370   2.574  0.2186  0.1548  0.3155
 8934TIP3    H126766   4.651   1.416   2.565  0.2571  0.0566  0.1531
 8934TIP3    H226767   4.592   1.282   2.602  0.3249 -0.5111 -1.7350
 8935TIP3   OH226768   6.555   4.874   1.365  0.0329 -0.4547 -0.1824
 8935TIP3    H126769   6.475   4.854   1.316 -0.6444 -0.6586  0.9747
 8935TIP3    H226770   6.530   4.865   1.456  1.3788 -0.4825  0.2056
 8936TIP3   OH226771   2.090   2.932   0.121 -0.5977  0.1556 -1.0435
 8936TIP3    H126772   2.057   2.847   0.095 -1.0701 -0.6713  1.8870
 8936TIP3    H226773   2.014   2.990   0.116 -0.6524  0.0433 -1.5309
 8937TIP3   OH226774   0.439   3.278   1.499 -0.2859  0.0046  0.0805
 8937TIP3    H126775   0.518   3.232   1.473 -0.1919  0.1659  0.0793
 8937TIP3    H226776   0.378   3.209   1.527  0.6256 -0.0032  2.2443
 8938TIP3   OH226777   0.212   0.715   4.419  0.1107 -0.4215  0.5936
 8938TIP3    H126778   0.152   0.744   4.351 -0.0472  0.6961  1.2023
 8938TIP3    H226779   0.284   0.778   4.417  0.1577 -0.4382  1.3969
 8939TIP3   OH226780   0.021   0.753   4.209  0.3774  0.1667 -0.3251
 8939TIP3    H126781   0.056   0.665   4.196  0.9790  0.3940 -0.2705
 8939TIP3    H226782  -0.047   0.763   4.142 -0.6650 -0.8480  0.5562
 8940TIP3   OH226783   5.718   4.685   2.435 -0.3996  0.3738  0.4024
 8940TIP3    H126784   5.628   4.686   2.401 -0.3670  0.7060  0.3166
 8940TIP3    H226785   5.761   4.614   2.388 -0.1996  1.1841 -0.6863
 8941TIP3   OH226786   5.107   0.312   0.572 -0.1509  0.1275 -0.0915
 8941TIP3    H126787   5.011   0.313   0.580 -0.1720  0.1735 -0.3392
 8941TIP3    H226788   5.123   0.302   0.478  0.0887 -0.0478 -0.0324
 8942TIP3   OH226789   5.200   0.953   1.887 -0.0993 -0.3881  0.0166
 8942TIP3    H126790   5.257   0.876   1.888  1.5355  0.7494 -1.0965
 8942TIP3    H226791   5.222   1.000   1.967  1.6564  0.7787 -1.0892
 8943TIP3   OH226792   0.628   4.639   5.276 -0.3773 -0.2498  0.2663
 8943TIP3    H126793   0.558   4.704   5.283  0.7532  0.8332  2.5304
 8943TIP3    H226794   0.659   4.628   5.366  2.2295 -0.8336 -0.6312
 8944TIP3   OH226795   3.685   0.348   0.980 -0.1438 -0.6471  0.4356
 8944TIP3    H126796   3.752   0.324   0.916 -0.2861 -0.3079  0.1575
 8944TIP3    H226797   3.671   0.268   1.031  0.4180 -0.7410  0.4498
 8945TIP3   OH226798   1.646   5.637   0.686 -0.3182  0.0498 -0.1475
 8945TIP3    H126799   1.705   5.664   0.757  1.5488 -1.8763 -0.8648
 8945TIP3    H226800   1.567   5.689   0.700  0.4929  0.7291  2.5128
 8946TIP3   OH226801   2.845   6.755   1.350  0.4280 -0.7216 -0.2940
 8946TIP3    H126802   2.851   6.663   1.325 -0.4709 -0.6039 -1.0061
 8946TIP3    H226803   2.846   6.755   1.445 -1.3756 -1.6212 -0.2416
 8947TIP3   OH226804   7.113   4.104   2.034  0.5158  0.0285  0.6071
 8947TIP3    H126805   7.125   4.150   2.116  3.0657 -0.1347  0.4138
 8947TIP3    H226806   7.099   4.013   2.059  1.1747 -0.0006  0.8889
 8948TIP3   OH226807   3.007   3.536   4.200  0.0714 -0.1125 -0.1995
 8948TIP3    H126808   2.962   3.590   4.266 -0.2281 -1.9535  1.1847
 8948TIP3    H226809   3.065   3.597   4.155 -0.6034  1.4597  0.9473
 8949TIP3   OH226810   6.101   2.952   1.611  0.4608 -0.4308 -0.3409
 8949TIP3    H126811   6.016   2.985   1.579  0.6549  1.6198  1.1063
 8949TIP3    H226812   6.084   2.927   1.702  0.8945 -2.2830 -0.7300
 8950TIP3   OH226813   5.900   3.664   2.914 -0.3966 -0.2373  0.7568
 8950TIP3    H126814   5.806   3.678   2.904 -0.5793  0.7206  3.1715
 8950TIP3    H226815   5.912   3.652   3.009  2.0525  0.9005  0.6596
 8951TIP3   OH226816   6.651   3.337   3.448 -0.0507  0.8650 -0.0880
 8951TIP3    H126817   6.680   3.421   3.483 -0.0060  2.3423 -3.2922
 8951TIP3    H226818   6.725   3.278   3.464  0.5725  1.8399  0.7941
 8952TIP3   OH226819   0.182   2.252   5.794 -0.2795  0.1928  0.1484
 8952TIP3    H126820   0.261   2.303   5.776 -0.9195  0.8712 -0.8158
 8952TIP3    H226821   0.141   2.296   5.869 -0.7021  0.9603 -0.5275
 8953TIP3   OH226822   3.759   6.321   1.552  0.0852  0.1713  0.2787
 8953TIP3    H126823   3.786   6.257   1.617 -1.3446 -0.4239  0.3105
 8953TIP3    H226824   3.672   6.350   1.580 -1.6771 -1.8528 -2.5424
 8954TIP3   OH226825   6.886   2.079   2.911 -0.0225  0.5098 -0.2999
 8954TIP3    H126826   6.885   2.167   2.949  0.6203  0.1223  0.6799
 8954TIP3    H226827   6.954   2.033   2.960  0.4816 -0.1919 -1.6039
 8955TIP3   OH226828   3.392   3.363   3.445  0.3312  0.0910 -0.2059
 8955TIP3    H126829   3.333   3.429   3.480 -1.5471 -1.6752  0.1401
 8955TIP3    H226830   3.479   3.390   3.475 -0.6618  1.1051  1.9317
 8956TIP3   OH226831   4.010   4.889   5.000  0.1855  0.3018  0.0524
 8956TIP3    H126832   3.965   4.806   4.983 -0.4492  0.6494 -0.0003
 8956TIP3    H226833   4.067   4.870   5.074 -2.5199  0.6567  2.4367
 8957TIP3   OH226834   3.320   4.956   2.101 -0.3032 -0.2698 -0.5085
 8957TIP3    H126835   3.232   4.965   2.137  0.2309 -0.4038  0.9063
 8957TIP3    H226836   3.376   5.002   2.163  0.4741  1.1491 -2.1891
 8958TIP3   OH226837   2.641   2.041   3.800 -0.3950  0.2097  0.4290
 8958TIP3    H126838   2.736   2.040   3.791 -0.3405 -1.3569  0.8286
 8958TIP3    H226839   2.625   2.007   3.888 -1.3340 -0.0847  0.1541
 8959TIP3   OH226840   1.283   0.326   5.715 -0.3038  0.3759 -0.0850
 8959TIP3    H126841   1.346   0.393   5.692  0.5162 -0.6238 -0.8218
 8959TIP3    H226842   1.323   0.280   5.789  0.3156 -0.8775 -1.1659
 8960TIP3   OH226843   6.212   2.994   4.534 -0.0227 -0.3284 -0.0727
 8960TIP3    H126844   6.154   2.940   4.587  0.3231 -1.7373 -1.0655
 8960TIP3    H226845   6.170   3.080   4.531 -0.9721 -0.7357  0.9410
 8961TIP3   OH226846   2.038   5.241   0.524  0.1153  0.6349  0.1211
 8961TIP3    H126847   2.121   5.258   0.480 -1.0801  1.8450 -1.8403
 8961TIP3    H226848   2.052   5.269   0.615  2.0549  0.0536  0.0438
 8962TIP3   OH226849   3.862   2.370   2.256  0.1743 -0.0582 -0.2869
 8962TIP3    H126850   3.863   2.275   2.250 -0.1084 -0.3198  2.2851
 8962TIP3    H226851   3.939   2.392   2.309 -1.6374  0.6959  2.2865
 8963TIP3   OH226852   1.021   5.874   3.247  0.0477  0.2689 -0.4187
 8963TIP3    H126853   0.991   5.834   3.329 -0.4173  1.6126  0.0981
 8963TIP3    H226854   1.033   5.966   3.269  0.0326  0.6266 -1.8503
 8964TIP3   OH226855   5.182   1.141   2.091 -0.0755  0.4626  0.0138
 8964TIP3    H126856   5.245   1.080   2.132  0.8780  1.2130 -0.3066
 8964TIP3    H226857   5.223   1.227   2.099 -0.3232  0.7600 -1.6418
 8965TIP3   OH226858   2.305   1.764   4.455  0.3923  0.5625  0.5520
 8965TIP3    H126859   2.358   1.701   4.406  0.7022  0.1011  1.4540
 8965TIP3    H226860   2.215   1.747   4.426  0.3452 -1.0052  1.4987
 8966TIP3   OH226861   3.034   2.140   3.791 -0.1240  0.1697 -0.2756
 8966TIP3    H126862   3.084   2.214   3.825 -1.5213  0.9343  0.1784
 8966TIP3    H226863   3.073   2.122   3.705  2.1824 -0.5482  0.8317
 8967TIP3   OH226864   2.266   0.164   2.000  0.6364  0.2769 -0.0549
 8967TIP3    H126865   2.293   0.222   2.071  0.2863  0.1273  0.2061
 8967TIP3    H226866   2.229   0.087   2.045 -0.5377  0.6286 -0.3927
 8968TIP3   OH226867   4.108   3.719   2.034  1.1046 -0.1129 -0.5322
 8968TIP3    H126868   4.014   3.702   2.036  1.1870 -0.6857 -1.2432
 8968TIP3    H226869   4.120   3.781   1.962  1.2211  0.3386 -0.1326
 8969TIP3   OH226870   4.595   4.492   2.628 -0.2099 -0.2491 -0.1243
 8969TIP3    H126871   4.558   4.483   2.716  0.7951  0.0694  0.3493
 8969TIP3    H226872   4.625   4.403   2.606  0.8323 -0.0717  0.4744
 8970TIP3   OH226873   6.319   6.669   3.439 -0.6953 -0.6865  0.1242
 8970TIP3    H126874   6.252   6.708   3.384  0.3662  1.4676  0.2536
 8970TIP3    H226875   6.282   6.586   3.467 -2.2321 -0.7384 -1.8718
 8971TIP3   OH226876   1.480   1.526   5.604 -0.1198 -0.4815  0.0377
 8971TIP3    H126877   1.475   1.622   5.607 -0.1109 -0.4737  2.9758
 8971TIP3    H226878   1.573   1.507   5.606 -0.1283 -0.4987  1.1638
 8972TIP3   OH226879   2.500   0.228   2.420 -0.2610 -0.0820 -0.2239
 8972TIP3    H126880   2.494   0.279   2.501  1.0096 -1.0947  0.5446
 8972TIP3    H226881   2.431   0.163   2.427 -1.6290  1.2149 -1.0269
 8973TIP3   OH226882   2.445   0.438   4.646 -0.0041  0.0854 -0.1341
 8973TIP3    H126883   2.522   0.450   4.591 -0.6411 -0.0627 -1.0777
 8973TIP3    H226884   2.458   0.353   4.688 -0.2636 -0.5581 -1.3214
 8974TIP3   OH226885   6.034   3.922   0.964  0.3693 -0.3934  0.3761
 8974TIP3    H126886   6.006   3.842   0.920 -1.3662 -0.0734  0.8228
 8974TIP3    H226887   6.004   3.911   1.054  0.2461  0.6858  0.4786
 8975TIP3   OH226888   2.641   4.570   5.688 -0.1785 -0.3139  0.2284
 8975TIP3    H126889   2.737   4.576   5.688 -0.2219  0.4716 -0.3043
 8975TIP3    H226890   2.623   4.477   5.670  0.4757 -0.7980  1.8577
 8976TIP3   OH226891   0.509   0.497   2.399 -0.6195  0.1489  0.0556
 8976TIP3    H126892   0.495   0.546   2.480 -0.5059 -0.6519  0.5765
 8976TIP3    H226893   0.592   0.531   2.365 -1.5049  1.7155 -0.6690
 8977TIP3   OH226894   1.764   3.101   3.197  0.1421  0.1543 -0.1409
 8977TIP3    H126895   1.750   3.179   3.251  1.3087  0.5350 -0.3742
 8977TIP3    H226896   1.851   3.112   3.160 -0.1076 -0.7476 -1.0461
 8978TIP3   OH226897   4.195   3.404   3.466  0.7433  0.8365 -0.8574
 8978TIP3    H126898   4.124   3.451   3.423  1.1703 -0.0093 -2.5673
 8978TIP3    H226899   4.262   3.470   3.482  0.4868  1.2065 -1.2999
 8979TIP3   OH226900   5.576   5.562   1.234  0.0948  0.6881 -0.3999
 8979TIP3    H126901   5.558   5.469   1.246  0.4963  0.3505 -2.1500
 8979TIP3    H226902   5.516   5.590   1.164  1.0786  1.3357 -1.0206
 8980TIP3   OH226903   5.172   1.809   0.396 -0.0271  0.0301 -0.3928
 8980TIP3    H126904   5.141   1.769   0.477  1.9591  2.0115  1.5022
 8980TIP3    H226905   5.170   1.738   0.332 -0.3473 -2.0091  1.7403
 8981TIP3   OH226906   3.855   1.384   5.724 -0.0283  0.1119  0.2556
 8981TIP3    H126907   3.918   1.374   5.796 -1.0128  2.6065  1.5909
 8981TIP3    H226908   3.905   1.427   5.654  0.3932 -0.3512  0.2632
 8982TIP3   OH226909   1.574   6.389   3.604  0.2460 -0.3495  0.0966
 8982TIP3    H126910   1.604   6.438   3.681  1.7643 -0.5530 -0.3430
 8982TIP3    H226911   1.647   6.394   3.543 -0.4278 -1.3465 -0.8051
 8983TIP3   OH226912   0.639   3.896   2.049  0.2517 -0.0616  0.2854
 8983TIP3    H126913   0.708   3.938   1.998  1.2870 -1.3577  0.5614
 8983TIP3    H226914   0.682   3.822   2.092 -1.3579 -1.0694  0.2619
 8984TIP3   OH226915   3.228   3.011   0.252  0.4352  0.8557  0.2460
 8984TIP3    H126916   3.158   3.048   0.199 -1.4739 -0.3404  1.8005
 8984TIP3    H226917   3.232   3.066   0.329 -0.5679 -0.4826  1.3126
 8985TIP3   OH226918   4.299   3.988   5.837 -0.4450 -0.5475 -0.4252
 8985TIP3    H126919   4.214   4.014   5.801  0.1486  0.5642 -1.0693
 8985TIP3    H226920   4.277   3.941   5.917 -1.6546  0.1750 -0.3068
 8986TIP3   OH226921   2.957   5.516   4.366 -0.0751 -0.6485  0.3924
 8986TIP3    H126922   3.021   5.500   4.296  0.9734 -1.3992  1.4783
 8986TIP3    H226923   2.887   5.453   4.348  1.1175 -2.2440  1.0936
 8987TIP3   OH226924   5.899   5.673   4.390  0.4160  0.1005  0.1170
 8987TIP3    H126925   5.911   5.735   4.462  1.3887  0.5581 -0.4252
 8987TIP3    H226926   5.986   5.663   4.352 -0.1995  0.4222 -1.4525
 8988TIP3   OH226927   1.201   2.892   1.590 -0.2408  0.3303  0.0768
 8988TIP3    H126928   1.109   2.881   1.610 -1.1833  2.9073 -2.1698
 8988TIP3    H226929   1.211   2.857   1.501 -0.0258  3.2849 -1.1922
 8989TIP3   OH226930   0.616   5.527   0.926  0.1024 -0.4530  0.7186
 8989TIP3    H126931   0.564   5.449   0.942  1.7597 -1.6898  0.3094
 8989TIP3    H226932   0.555   5.590   0.888 -0.9891 -1.9934 -0.1529
 8990TIP3   OH226933   2.253   2.181   0.095 -0.5589 -0.8590 -0.1273
 8990TIP3    H126934   2.161   2.203   0.080 -0.3416  0.7691  0.6486
 8990TIP3    H226935   2.252   2.132   0.178 -0.5512  1.2644  1.2099
 8991TIP3   OH226936   3.477   0.664   1.041 -0.2341  0.0972  0.2844
 8991TIP3    H126937   3.399   0.636   0.993 -0.7449  1.3515  0.3559
 8991TIP3    H226938   3.448   0.669   1.133  0.0219  0.2500  0.3572
 8992TIP3   OH226939   2.241   1.351   4.119  0.2541 -0.3437  0.0336
 8992TIP3    H126940   2.309   1.284   4.126 -0.4327 -1.1854 -1.0974
 8992TIP3    H226941   2.183   1.320   4.051  0.0224  1.5285 -0.6942
 8993TIP3   OH226942   5.330   6.353   3.428  0.3466 -0.0855 -0.0995
 8993TIP3    H126943   5.387   6.353   3.351  0.8956 -1.8324  0.2528
 8993TIP3    H226944   5.250   6.310   3.398  0.0960  0.3250 -0.0142
 8994TIP3   OH226945   5.275   1.165   1.140 -0.0065 -0.2112 -0.3766
 8994TIP3    H126946   5.230   1.248   1.124  1.0507  0.5653  0.4850
 8994TIP3    H226947   5.256   1.146   1.232  0.8151 -0.2399 -0.2067
 8995TIP3   OH226948   5.839   5.700   5.420 -0.5108  0.3815 -0.2741
 8995TIP3    H126949   5.840   5.768   5.353  2.2474  1.9861  1.2097
 8995TIP3    H226950   5.901   5.634   5.388 -1.1316 -0.1197 -0.4593
 8996TIP3   OH226951   5.904   1.299   1.034 -0.0224  0.4585 -0.2064
 8996TIP3    H126952   5.933   1.292   0.943  1.0601 -0.0182  0.1586
 8996TIP3    H226953   5.929   1.388   1.060  0.6619  0.2264 -0.0527
 8997TIP3   OH226954   4.633   3.732   4.341  0.1933 -0.0778 -0.0498
 8997TIP3    H126955   4.547   3.736   4.299 -0.8910 -0.3647  2.0258
 8997TIP3    H226956   4.673   3.817   4.321 -0.5123  0.0311 -1.0959
 8998TIP3   OH226957   0.675   4.356   5.463  0.1428 -0.3678 -0.8892
 8998TIP3    H126958   0.745   4.418   5.446 -1.3790  1.7241  0.0874
 8998TIP3    H226959   0.695   4.322   5.550 -0.3072  0.6152 -0.3917
 8999TIP3   OH226960   5.504   1.059   1.719 -0.4833 -0.2801 -0.0071
 8999TIP3    H126961   5.575   1.103   1.767  0.4400 -1.1370 -0.5644
 8999TIP3    H226962   5.446   1.131   1.691  0.6683  0.5336 -0.3708
 9000TIP3   OH226963   5.728   4.021   3.675  0.0417  0.6025 -0.1754
 9000TIP3    H126964   5.672   4.062   3.608 -1.1999  1.5731  1.3833
 9000TIP3    H226965   5.678   4.029   3.756  2.5084  1.6437  1.3559
 9001TIP3   OH226966   1.601   1.760   3.166 -0.1619 -0.1373 -0.3722
 9001TIP3    H126967   1.541   1.690   3.140 -0.6216  0.3938 -0.7739
 9001TIP3    H226968   1.549   1.816   3.223  0.3210 -0.3335  0.2709
 9002TIP3   OH226969   1.020   3.823   4.549  0.0360 -0.1312  0.6000
 9002TIP3    H126970   0.982   3.792   4.466 -0.5827  0.8603  0.4947
 9002TIP3    H226971   1.034   3.917   4.535 -0.3510  0.1067  1.7284
 9003TIP3   OH226972   1.250   2.200   0.223  0.2164  0.4422 -0.2344
 9003TIP3    H126973   1.211   2.146   0.291  1.9362  0.2946  0.6930
 9003TIP3    H226974   1.253   2.288   0.260 -0.5074  0.7385 -0.8535
 9004TIP3   OH226975   1.638   3.372   5.593  0.4230 -0.1638 -0.0088
 9004TIP3    H126976   1.694   3.433   5.641 -1.7250  1.8302  0.1212
 9004TIP3    H226977   1.621   3.301   5.655 -1.3902  1.8001  1.8884
 9005TIP3   OH226978   4.655   1.414   3.619 -0.0305 -0.2514 -0.3650
 9005TIP3    H126979   4.703   1.331   3.616  1.3624  0.5180  0.0916
 9005TIP3    H226980   4.689   1.459   3.696 -1.7960  0.1610  0.2232
 9006TIP3   OH226981   4.355   0.902   2.416  0.1874 -0.2752  0.2890
 9006TIP3    H126982   4.386   0.993   2.413  0.3261 -0.3496 -1.0457
 9006TIP3    H226983   4.306   0.896   2.499  2.0057  0.3928  1.4714
 9007TIP3   OH226984   3.555   5.281   2.941 -0.0796 -0.1577  0.0587
 9007TIP3    H126985   3.600   5.197   2.946 -0.8946 -0.5755  0.6835
 9007TIP3    H226986   3.624   5.345   2.925  0.2936 -1.2285 -3.3670
 9008TIP3   OH226987   3.776   3.492   3.312 -0.1375  0.6122 -0.0599
 9008TIP3    H126988   3.698   3.471   3.363  0.7736 -0.9740  0.7534
 9008TIP3    H226989   3.767   3.439   3.233 -0.1555  0.8895 -0.2468
 9009TIP3   OH226990   6.664   6.379   4.956 -0.3021  0.5175 -0.3301
 9009TIP3    H126991   6.731   6.338   4.901 -0.4476  0.9915 -0.8645
 9009TIP3    H226992   6.593   6.401   4.896 -0.2100  1.5905 -0.0662
 9010TIP3   OH226993   3.023   5.533   1.919  0.0483 -0.6072 -0.3178
 9010TIP3    H126994   3.117   5.537   1.901 -0.0848 -2.3740 -1.6834
 9010TIP3    H226995   2.988   5.479   1.849 -1.8068 -1.1400  0.9557
 9011TIP3   OH226996   5.745   0.918   1.647  0.5900 -0.0895  0.2598
 9011TIP3    H126997   5.657   0.906   1.684  0.5113  0.5665  0.2976
 9011TIP3    H226998   5.738   0.997   1.593  0.8732 -0.6709 -0.6506
 9012TIP3   OH226999   5.869   1.126   2.290  0.0052 -0.2412 -0.4741
 9012TIP3    H127000   5.962   1.118   2.270  0.1378 -0.2493  0.1335
 9012TIP3    H227001   5.835   1.183   2.222  0.0619 -1.8047 -1.8706
 9013TIP3   OH227002   0.693   3.446   4.181 -0.0753 -0.8656 -0.6637
 9013TIP3    H127003   0.782   3.442   4.215 -0.2382 -0.8337 -0.2237
 9013TIP3    H227004   0.649   3.371   4.220 -0.5916 -0.1408  0.1599
 9014TIP3   OH227005   1.325   6.169   0.587 -0.2653  0.0120  0.3004
 9014TIP3    H127006   1.284   6.237   0.534 -0.8874 -0.9545 -0.4830
 9014TIP3    H227007   1.363   6.108   0.523 -1.7127 -1.6014  0.8861
 9015TIP3   OH227008   3.143   1.812   5.825 -0.1352  0.0146 -0.3888
 9015TIP3    H127009   3.084   1.748   5.866  0.8992  0.0330  1.1987
 9015TIP3    H227010   3.214   1.760   5.789  0.2374  0.1827  0.0892
 9016TIP3   OH227011   6.285   5.649   1.051  0.0675  0.2486  0.2467
 9016TIP3    H127012   6.323   5.597   0.980 -1.6320 -0.2881 -0.3240
 9016TIP3    H227013   6.263   5.584   1.118 -1.2660  0.3040 -0.1055
 9017TIP3   OH227014   0.741   5.833   0.273 -0.3011 -0.1215 -0.8232
 9017TIP3    H127015   0.814   5.894   0.281  0.8187 -1.4425 -0.5294
 9017TIP3    H227016   0.781   5.750   0.248 -1.8188 -0.6642 -1.6447
 9018TIP3   OH227017   0.388   2.760   2.086  0.2403 -0.1784 -0.2169
 9018TIP3    H127018   0.438   2.686   2.120 -0.4752 -0.3001  0.6446
 9018TIP3    H227019   0.449   2.833   2.086  0.1358  0.0007  2.0711
 9019TIP3   OH227020   5.825   4.407   4.226 -0.8251  0.5203  0.1581
 9019TIP3    H127021   5.852   4.353   4.152 -1.7046  1.0771 -0.5888
 9019TIP3    H227022   5.892   4.392   4.293 -0.6356 -0.8823 -0.3122
 9020TIP3   OH227023   4.456   0.149   0.311  0.5573  0.1290  0.0131
 9020TIP3    H127024   4.452   0.191   0.225 -0.3672 -0.1218 -0.0774
 9020TIP3    H227025   4.371   0.104   0.320  1.3204 -1.3409  0.2779
 9021TIP3   OH227026   3.000   1.319   0.093 -0.1819  0.4157 -0.2276
 9021TIP3    H127027   3.081   1.275   0.068 -0.9443 -1.0404 -0.2123
 9021TIP3    H227028   3.005   1.325   0.189 -0.5258 -0.5493 -0.1470
 9022TIP3   OH227029   5.879   5.171   1.688  0.0158  0.3241 -0.7579
 9022TIP3    H127030   5.785   5.185   1.676  0.1647  0.2435 -2.1593
 9022TIP3    H227031   5.892   5.078   1.670  0.1519 -0.0574  1.0671
 9023TIP3   OH227032   5.453   4.932   0.010 -0.5979 -0.0526  0.6291
 9023TIP3    H127033   5.546   4.925  -0.009 -0.5764  1.7906 -0.2156
 9023TIP3    H227034   5.449   4.968   0.099 -0.2656  3.9041 -0.7309
 9024TIP3   OH227035   1.496   3.292   3.081  0.1509  0.4335 -0.7545
 9024TIP3    H127036   1.536   3.378   3.064  0.3782  0.8880  1.6760
 9024TIP3    H227037   1.531   3.266   3.166 -3.1751 -0.0664  0.6036
 9025TIP3   OH227038   5.075   1.709   2.004 -0.0926  0.3775 -0.3377
 9025TIP3    H127039   5.086   1.719   1.909 -1.5947 -3.5375 -1.1413
 9025TIP3    H227040   4.999   1.763   2.025  1.3116  2.6926 -0.9489
 9026TIP3   OH227041   0.654   2.274   1.862 -0.5617 -0.2292  0.0954
 9026TIP3    H127042   0.558   2.273   1.858 -0.7268  1.9309  1.4481
 9026TIP3    H227043   0.678   2.186   1.890 -2.4179 -0.0944  2.5419
 9027TIP3   OH227044   0.273   5.127   2.736 -0.8742 -0.1314  0.0013
 9027TIP3    H127045   0.328   5.145   2.812 -1.3985  0.9218  0.1471
 9027TIP3    H227046   0.279   5.205   2.682  0.1428 -1.1710 -1.4831
 9028TIP3   OH227047   5.879   4.555   4.619  0.3180 -0.5029 -0.1387
 9028TIP3    H127048   5.886   4.467   4.655 -0.2738 -1.1668 -1.5580
 9028TIP3    H227049   5.788   4.563   4.592  0.5580  0.2357 -0.7771
 9029TIP3   OH227050   4.554   5.640   4.218  0.3348 -0.2195  1.1275
 9029TIP3    H127051   4.543   5.719   4.164 -1.2044 -1.4065 -0.4192
 9029TIP3    H227052   4.586   5.673   4.302  1.1422  1.8938  0.0716
 9030TIP3   OH227053   6.226   5.553   2.999  0.1320 -0.0506  0.0828
 9030TIP3    H127054   6.268   5.614   3.059 -0.0806  0.4318 -0.2546
 9030TIP3    H227055   6.181   5.608   2.935  0.6876 -0.5454 -0.7598
 9031TIP3   OH227056   1.451   4.121   5.051 -0.2935 -0.6501  0.1698
 9031TIP3    H127057   1.530   4.086   5.010 -0.0341  1.7215 -1.5587
 9031TIP3    H227058   1.481   4.158   5.134  0.6508  0.8896 -0.7977
 9032TIP3   OH227059   0.715   5.912   1.826 -0.1986 -0.2077  0.2156
 9032TIP3    H127060   0.628   5.929   1.863  0.4987  1.1959  1.3140
 9032TIP3    H227061   0.762   5.866   1.894  0.1868 -0.2077 -0.0497
 9033TIP3   OH227062   2.760   0.584   1.855  0.3148  0.3489 -0.1849
 9033TIP3    H127063   2.762   0.677   1.833  0.9967  0.1953 -0.8407
 9033TIP3    H227064   2.826   0.573   1.923  0.1621  0.3592 -0.0340
 9034TIP3   OH227065   2.444   0.626   5.230 -0.5063  0.2487 -0.0686
 9034TIP3    H127066   2.533   0.661   5.223 -0.4758  0.2842  0.4274
 9034TIP3    H227067   2.446   0.544   5.181  0.0110 -0.1363  0.5854
 9035TIP3   OH227068   0.621   3.038   0.302  0.2804 -0.2604  0.0876
 9035TIP3    H127069   0.533   3.005   0.319 -0.8626  2.1860 -0.5659
 9035TIP3    H227070   0.613   3.085   0.219  1.5011  2.1787  1.2362
 9036TIP3   OH227071   2.538   5.918   3.831  0.2201  0.4722  0.0875
 9036TIP3    H127072   2.449   5.923   3.796  0.2942 -1.9441 -0.6444
 9036TIP3    H227073   2.528   5.931   3.925 -0.7749  1.1440 -0.0980
 9037TIP3   OH227074   0.397   2.133   0.736 -0.0150  0.0730 -0.1945
 9037TIP3    H127075   0.459   2.087   0.678  1.8074  0.5926  1.2323
 9037TIP3    H227076   0.336   2.176   0.676  2.9392  2.2419 -1.9525
 9038TIP3   OH227077   3.356   6.167   0.796 -0.4094  0.7246 -0.1448
 9038TIP3    H127078   3.304   6.089   0.817  0.5458 -0.1644 -0.9200
 9038TIP3    H227079   3.344   6.225   0.870 -1.0884 -0.2019  0.4967
 9039TIP3   OH227080   1.722   3.494   0.400  0.0317  0.5879 -0.3655
 9039TIP3    H127081   1.794   3.481   0.461 -0.9455 -2.4700  0.2825
 9039TIP3    H227082   1.672   3.567   0.437  0.4823  0.0178  1.4685
 9040TIP3   OH227083   2.714   0.046   5.639  0.0697  0.2865  0.1583
 9040TIP3    H127084   2.635   0.023   5.591 -0.3527  0.0523  0.9437
 9040TIP3    H227085   2.749  -0.038   5.670  0.4409  0.4154  0.0944
 9041TIP3   OH227086   1.247   3.077   3.189  0.0239  0.2792 -0.1420
 9041TIP3    H127087   1.280   3.158   3.228  1.4988 -0.0532 -0.6055
 9041TIP3    H227088   1.155   3.073   3.215 -0.0598  2.0475 -0.0342
 9042TIP3   OH227089   4.836   6.170   3.055  0.0502  0.8919  0.0131
 9042TIP3    H127090   4.777   6.244   3.067 -0.0643  0.8791 -0.4813
 9042TIP3    H227091   4.895   6.175   3.131 -2.1766 -0.6240  1.9735
 9043TIP3   OH227092   2.504   2.940   1.004 -0.5130  0.3907 -0.0183
 9043TIP3    H127093   2.458   3.020   1.030 -0.8669  0.3960 -0.6505
 9043TIP3    H227094   2.544   2.908   1.085 -0.2419  1.2886  0.2037
 9044TIP3   OH227095   3.225   1.839   3.720  0.7950 -0.2015  0.1584
 9044TIP3    H127096   3.205   1.919   3.671 -0.0531 -0.9590 -0.7612
 9044TIP3    H227097   3.302   1.802   3.675  0.0962 -0.8277 -0.5444
 9045TIP3   OH227098   6.408   3.118   3.534  0.4663  0.4443 -0.0818
 9045TIP3    H127099   6.390   3.028   3.559 -2.6505  0.8538 -0.4738
 9045TIP3    H227100   6.473   3.111   3.465  0.5242 -1.4795  0.1280
 9046TIP3   OH227101   2.983   2.062   2.827 -0.2833  0.3381  0.8314
 9046TIP3    H127102   3.036   2.130   2.868  0.7040  0.0032  0.1367
 9046TIP3    H227103   2.966   2.094   2.738  0.6969 -0.5776  0.3001
 9047TIP3   OH227104   1.500   5.206   5.005  0.2401  0.1140 -0.0679
 9047TIP3    H127105   1.592   5.207   5.031  0.5528 -0.5687 -1.0868
 9047TIP3    H227106   1.481   5.114   4.987 -1.5425 -0.3044  3.1058
 9048TIP3   OH227107   0.429   5.123   1.329 -0.5011 -0.1393  0.1662
 9048TIP3    H127108   0.382   5.050   1.287  0.3061 -0.5682 -0.0340
 9048TIP3    H227109   0.442   5.094   1.419  0.8747 -0.8075 -0.2116
 9049TIP3   OH227110   0.508   4.825   0.631  0.5787  0.3480 -0.5244
 9049TIP3    H127111   0.544   4.768   0.699  0.2594  1.5121  0.6640
 9049TIP3    H227112   0.417   4.798   0.623  0.3381  0.8990  0.2790
 9050TIP3   OH227113   1.855   0.482   1.518 -0.1468 -0.6555  0.0338
 9050TIP3    H127114   1.768   0.522   1.514 -0.6798 -1.8709 -0.7511
 9050TIP3    H227115   1.914   0.550   1.485 -0.7937  0.1231  0.4274
 9051TIP3   OH227116   4.447   5.133   1.628  0.1551 -0.0495  0.0622
 9051TIP3    H127117   4.403   5.108   1.547 -0.5791  0.8721  0.1579
 9051TIP3    H227118   4.379   5.131   1.694  1.3454 -3.8770  1.3896
 9052TIP3   OH227119   6.121   0.929   0.244  0.1555 -0.0101  0.1616
 9052TIP3    H127120   6.088   0.932   0.334 -0.7236  0.7417 -0.1597
 9052TIP3    H227121   6.215   0.938   0.252  0.1960 -1.0514  1.0640
 9053TIP3   OH227122   5.697   5.408   0.595 -0.2157 -0.7085  0.0076
 9053TIP3    H127123   5.654   5.329   0.562 -0.7895 -0.1041 -0.7129
 9053TIP3    H227124   5.709   5.391   0.689 -2.0219 -0.9115  0.2338
 9054TIP3   OH227125   1.406   6.748   3.476 -0.2414  0.7994  0.4337
 9054TIP3    H127126   1.413   6.840   3.502  0.5973  0.2660  2.2322
 9054TIP3    H227127   1.368   6.704   3.553 -0.0695 -0.4574 -0.1756
 9055TIP3   OH227128   2.082   4.079   5.251  0.2481 -0.0916  0.0525
 9055TIP3    H127129   2.086   4.043   5.340  0.1616 -0.0739  0.0649
 9055TIP3    H227130   2.160   4.046   5.207 -0.7935 -1.8911 -0.5295
 9056TIP3   OH227131   3.688   5.634   2.845  0.0235 -0.1723 -0.5345
 9056TIP3    H127132   3.686   5.681   2.762  1.3680  0.0815 -0.4488
 9056TIP3    H227133   3.751   5.564   2.831  0.7327  0.2459  0.4388
 9057TIP3   OH227134   2.835   0.182   3.556  0.8778 -0.1837 -0.1336
 9057TIP3    H127135   2.787   0.165   3.475 -0.0519 -1.1852  0.5988
 9057TIP3    H227136   2.768   0.198   3.622  1.5847 -0.1882  0.6096
 9058TIP3   OH227137   0.140   0.527   3.284  0.4187  0.1624  0.2324
 9058TIP3    H127138   0.107   0.570   3.206 -0.1149  1.1886  1.0027
 9058TIP3    H227139   0.082   0.452   3.297  0.9103 -0.3943 -0.7098
 9059TIP3   OH227140   4.306   0.430   2.413 -0.1959 -0.2245  0.7048
 9059TIP3    H127141   4.272   0.484   2.484 -0.3989  0.3105  0.2102
 9059TIP3    H227142   4.386   0.475   2.385 -0.8471  0.3565 -0.3158
 9060TIP3   OH227143   5.500   0.668   2.690  0.4012 -0.0748 -0.4881
 9060TIP3    H127144   5.563   0.599   2.669  1.2654  0.6509 -0.3269
 9060TIP3    H227145   5.550   0.749   2.686  0.0383  0.3405  1.8471
 9061TIP3   OH227146   6.839   4.530   5.250 -0.1496 -0.1432  0.2536
 9061TIP3    H127147   6.752   4.493   5.268 -0.5122  0.2573 -0.6293
 9061TIP3    H227148   6.842   4.539   5.155  0.5826  0.5175  0.3332
 9062TIP3   OH227149   5.805   2.419   3.046 -0.3613 -0.2389  0.1112
 9062TIP3    H127150   5.735   2.400   2.983  2.6481  0.4045 -3.7765
 9062TIP3    H227151   5.878   2.364   3.017  1.6091  1.0692  2.3016
 9063TIP3   OH227152   4.314   6.166   3.326  0.2933  0.6174 -0.6498
 9063TIP3    H127153   4.308   6.174   3.231 -0.3733 -0.1054 -0.6705
 9063TIP3    H227154   4.346   6.252   3.355  1.0893  0.6422 -1.5692
 9064TIP3   OH227155   5.471   1.695   1.865 -0.3562  0.4625 -0.0191
 9064TIP3    H127156   5.466   1.740   1.949 -2.6464  1.5069 -0.6572
 9064TIP3    H227157   5.383   1.662   1.849  0.8131 -2.9079 -0.3871
 9065TIP3   OH227158   3.371   6.808   2.378  0.0403 -0.5045 -0.1207
 9065TIP3    H127159   3.461   6.804   2.408  0.3978 -1.7271 -1.2731
 9065TIP3    H227160   3.332   6.725   2.405 -0.9412  0.2266  0.8564
 9066TIP3   OH227161   3.483   2.726   4.173 -0.0927 -0.3225 -0.5251
 9066TIP3    H127162   3.453   2.766   4.092  1.0642  0.2843 -0.6690
 9066TIP3    H227163   3.525   2.797   4.221 -0.0114 -0.8619  0.2278
 9067TIP3   OH227164   3.042   1.651   1.224 -0.1385  0.2925 -0.4772
 9067TIP3    H127165   3.018   1.606   1.143 -0.3067 -1.8078  0.6908
 9067TIP3    H227166   2.960   1.685   1.258 -0.0912  1.0288 -1.0481
 9068TIP3   OH227167   1.908   2.416   3.367 -0.9659 -0.7224  0.1209
 9068TIP3    H127168   1.898   2.501   3.324  0.3788 -0.3757  0.4531
 9068TIP3    H227169   1.844   2.418   3.438  0.0021  0.6007  0.9983
 9069TIP3   OH227170   6.805   3.820   4.830 -0.4923  0.9183 -0.1861
 9069TIP3    H127171   6.840   3.832   4.918 -3.3085 -0.1582  1.1805
 9069TIP3    H227172   6.794   3.909   4.796  0.3658  1.3531  0.6476
 9070TIP3   OH227173   5.918   2.462   3.575  0.0141 -0.0951  0.3218
 9070TIP3    H127174   5.891   2.377   3.610 -1.5896 -0.1484 -0.9118
 9070TIP3    H227175   5.896   2.457   3.482 -0.2166  1.6959  0.2429
 9071TIP3   OH227176   4.939   5.782   1.059 -0.3418  0.3296  0.0720
 9071TIP3    H127177   4.850   5.748   1.048 -0.3160  0.0197  0.7683
 9071TIP3    H227178   4.996   5.709   1.035 -0.2617  0.6004 -0.5995
 9072TIP3   OH227179   5.891   6.468   1.143  0.4407 -0.4237 -0.4622
 9072TIP3    H127180   5.986   6.459   1.134  0.6575  0.1917  0.9982
 9072TIP3    H227181   5.875   6.561   1.127  0.3240 -0.1656  1.0126
 9073TIP3   OH227182   5.940   5.556   3.525  0.1500 -0.2594 -0.3736
 9073TIP3    H127183   5.948   5.504   3.444 -0.4229 -1.5268  0.3612
 9073TIP3    H227184   5.888   5.632   3.499  0.7939 -0.1626 -1.4233
 9074TIP3   OH227185   0.541   2.022   3.762 -0.1953  0.6408 -0.0614
 9074TIP3    H127186   0.589   1.967   3.700 -0.5104 -0.7097  0.8418
 9074TIP3    H227187   0.449   2.008   3.741 -0.3490 -0.6535  1.3371
 9075TIP3   OH227188   1.103   1.624   2.120  0.5036 -0.5222 -0.0856
 9075TIP3    H127189   1.120   1.688   2.051  0.5054 -0.4315  0.0001
 9075TIP3    H227190   1.185   1.620   2.169  0.5844 -0.7689 -0.2396
 9076TIP3   OH227191   6.270   3.565   2.915  0.1636  0.4862 -0.4254
 9076TIP3    H127192   6.331   3.540   2.845  0.7156 -1.4544  0.6807
 9076TIP3    H227193   6.202   3.497   2.913  0.0700  0.5224  0.7586
 9077TIP3   OH227194   3.287   1.713   5.076 -0.7112  0.0552 -0.4543
 9077TIP3    H127195   3.218   1.662   5.118 -0.2050  0.0958  0.4607
 9077TIP3    H227196   3.345   1.646   5.038  0.0183 -0.1035  0.8513
 9078TIP3   OH227197   3.914   5.227   4.030 -0.5357  0.3810  0.1298
 9078TIP3    H127198   3.951   5.260   4.112  1.4795  1.1058 -0.9906
 9078TIP3    H227199   3.959   5.144   4.015 -0.9003  0.2474 -0.2323
 9079TIP3   OH227200   6.504   1.751   4.023  0.4591  0.7849  0.1949
 9079TIP3    H127201   6.516   1.709   4.108 -0.4359  0.3081  0.0912
 9079TIP3    H227202   6.565   1.706   3.965  0.2502  0.3358  0.3243
 9080TIP3   OH227203   0.230   3.880   1.876 -0.5444  0.2678  0.1858
 9080TIP3    H127204   0.163   3.884   1.808 -0.8720 -1.4899  0.3527
 9080TIP3    H227205   0.184   3.847   1.953  0.0606  1.1925  0.9688
 9081TIP3   OH227206   5.364   5.904   0.097  0.0695 -0.4555  0.0298
 9081TIP3    H127207   5.305   5.871   0.164 -2.1725  0.4052 -1.4054
 9081TIP3    H227208   5.375   5.830   0.037 -0.9195 -0.1526 -0.5523
 9082TIP3   OH227209   1.765   1.286   1.198 -0.2699 -0.2576 -0.3150
 9082TIP3    H127210   1.849   1.277   1.154 -1.2913  2.1670 -3.0591
 9082TIP3    H227211   1.729   1.197   1.200  2.1405 -1.2822  0.6403
 9083TIP3   OH227212   3.859   4.005   0.180 -0.4806  0.5386 -0.0524
 9083TIP3    H127213   3.832   3.932   0.237 -0.9453  0.8019  0.0667
 9083TIP3    H227214   3.955   4.004   0.185 -0.4693 -0.2570 -0.2953
 9084TIP3   OH227215   2.940   1.008   3.042  0.1533  0.2409  0.3766
 9084TIP3    H127216   2.870   0.972   3.097 -2.0413  1.7413 -1.2283
 9084TIP3    H227217   2.975   1.081   3.093  1.2756 -1.0824  1.5889
 9085TIP3   OH227218   6.030   6.265   0.014 -0.2312  0.2508 -0.6685
 9085TIP3    H127219   6.019   6.347  -0.035  2.0672 -0.1713 -2.0068
 9085TIP3    H227220   6.082   6.290   0.091  0.7003  0.0294 -1.2150
 9086TIP3   OH227221   0.562   0.336   3.757  0.2055  0.3315 -0.9001
 9086TIP3    H127222   0.605   0.316   3.840 -2.1555  0.1029  0.3568
 9086TIP3    H227223   0.517   0.419   3.772 -0.6280  0.0668 -1.8050
 9087TIP3   OH227224   5.933   3.472   4.553 -0.1211  0.3384 -0.2277
 9087TIP3    H127225   5.929   3.564   4.527 -0.3679  0.5714  0.6215
 9087TIP3    H227226   6.025   3.458   4.577  0.4566 -0.2599 -2.5201
 9088TIP3   OH227227   1.219   1.497   3.673  0.4100 -0.1539 -0.2197
 9088TIP3    H127228   1.291   1.531   3.726  0.1751 -0.9952  0.6733
 9088TIP3    H227229   1.142   1.546   3.701  0.4935  0.2120 -0.6248
 9089TIP3   OH227230   5.673   2.003   2.020  0.1554 -0.1248 -0.0935
 9089TIP3    H127231   5.717   1.957   1.949  0.0984  0.3937 -0.4712
 9089TIP3    H227232   5.736   2.003   2.092  0.8002  0.6357 -0.6353
 9090TIP3   OH227233   5.102   0.821   4.007 -0.0234 -0.2463 -0.9697
 9090TIP3    H127234   5.166   0.781   3.947  0.9546 -0.6186  0.2747
 9090TIP3    H227235   5.153   0.885   4.057 -1.0772  0.8771 -1.3082
 9091TIP3   OH227236   3.036   2.500   4.513 -0.3026  0.5335  0.4442
 9091TIP3    H127237   3.000   2.514   4.425  1.5903  0.6642 -0.3424
 9091TIP3    H227238   2.964   2.526   4.572 -1.4773  0.8026 -1.0397
 9092TIP3   OH227239   0.417   1.225   0.431 -0.3818 -0.0772 -0.5156
 9092TIP3    H127240   0.366   1.190   0.505 -0.2822  0.7266 -0.0614
 9092TIP3    H227241   0.356   1.221   0.357 -0.8359  0.1118 -0.1596
 9093TIP3   OH227242   5.608   6.523   5.540 -0.2110 -0.3061  0.1473
 9093TIP3    H127243   5.525   6.518   5.492 -1.9757  0.1193  2.9448
 9093TIP3    H227244   5.626   6.433   5.567  0.1094 -0.3461 -0.1796
 9094TIP3   OH227245   6.884   6.079   2.596 -0.2905  0.0993 -0.4288
 9094TIP3    H127246   6.809   6.069   2.537 -0.3579  0.3147 -0.3823
 9094TIP3    H227247   6.882   6.172   2.621 -0.3684 -0.0285  0.0502
 9095TIP3   OH227248   3.865   2.488   2.004 -0.5733 -0.8923 -0.2643
 9095TIP3    H127249   3.882   2.474   2.097 -0.9355 -1.8517 -0.3357
 9095TIP3    H227250   3.895   2.578   1.987 -0.3079 -0.7895  0.7235
 9096TIP3   OH227251   5.397   3.140   1.155 -0.1970 -0.2223 -0.0129
 9096TIP3    H127252   5.431   3.195   1.226 -0.3518  0.4869 -0.4732
 9096TIP3    H227253   5.325   3.191   1.118  1.5013  0.6367 -2.3590
 9097TIP3   OH227254   5.675   3.546   0.319  0.3493 -0.2010 -0.0637
 9097TIP3    H127255   5.744   3.590   0.268  0.5621 -0.8005 -0.2975
 9097TIP3    H227256   5.613   3.515   0.253  0.0986 -0.0854  0.1164
 9098TIP3   OH227257   1.094   5.052   5.272  0.3207 -0.1066 -0.2718
 9098TIP3    H127258   1.089   5.104   5.352 -0.7939  1.9169 -1.5779
 9098TIP3    H227259   1.006   5.017   5.260  0.8360 -1.6347  0.1063
 9099TIP3   OH227260   3.629   5.636   5.842  0.3578  0.6034 -0.0899
 9099TIP3    H127261   3.638   5.556   5.790 -0.4685  1.5145 -1.7399
 9099TIP3    H227262   3.657   5.612   5.929  1.2413 -1.1810 -0.8248
 9100TIP3   OH227263   7.056   4.025   1.606 -0.4511  0.1441  0.2086
 9100TIP3    H127264   7.011   4.092   1.554  1.0809  0.3552 -0.9156
 9100TIP3    H227265   7.126   3.994   1.548  0.3314 -0.7438  1.5973
 9101TIP3   OH227266  -0.019   5.049   2.320 -0.3115  0.4157  0.0102
 9101TIP3    H127267  -0.011   5.119   2.255 -2.0122  1.4974  0.8892
 9101TIP3    H227268   0.062   5.055   2.371  1.7305 -1.3632 -2.7357
 9102TIP3   OH227269   1.149   4.709   2.254  0.5384  0.4120  0.5301
 9102TIP3    H127270   1.221   4.761   2.216  0.1269 -0.4876 -1.6699
 9102TIP3    H227271   1.185   4.675   2.336  2.1958  0.9561  0.0822
 9103TIP3   OH227272   6.289   3.870   0.640 -0.2135 -0.1910 -0.0574
 9103TIP3    H127273   6.271   3.783   0.604  2.8325 -1.5854  1.4592
 9103TIP3    H227274   6.333   3.916   0.569 -0.0846 -0.6091 -0.2552
 9104TIP3   OH227275   5.389   0.990   2.196  0.4867 -0.3849  0.0061
 9104TIP3    H127276   5.461   1.048   2.170  0.6148 -1.0177 -1.1515
 9104TIP3    H227277   5.410   0.906   2.155 -1.2836 -0.3848 -1.0191
 9105TIP3   OH227278   4.085   4.026   5.689  0.0668  0.3244  0.4679
 9105TIP3    H127279   4.158   4.061   5.639  1.1224 -0.1435  1.6283
 9105TIP3    H227280   4.017   4.094   5.682 -0.1129 -0.0395 -2.1199
 9106TIP3   OH227281   0.988   0.837   1.977 -0.4107  0.5326 -0.5437
 9106TIP3    H127282   1.032   0.779   2.039 -1.8609  1.4697  1.4724
 9106TIP3    H227283   1.054   0.903   1.955 -0.5908  1.6835  2.0855
 9107TIP3   OH227284   1.713   0.303   0.515  0.0662 -0.3402  0.2976
 9107TIP3    H127285   1.723   0.280   0.423  0.3806 -0.1730  0.2861
 9107TIP3    H227286   1.668   0.388   0.513  0.9677  0.1485  0.2592
 9108TIP3   OH227287   2.778   0.275   5.747  0.2012  0.2110  0.1381
 9108TIP3    H127288   2.746   0.197   5.700 -1.3121  1.3932 -0.8930
 9108TIP3    H227289   2.840   0.240   5.811  2.6975 -1.4813 -2.9314
 9109TIP3   OH227290   5.630   0.776   0.821 -0.1744 -0.4877 -0.0703
 9109TIP3    H127291   5.621   0.869   0.802  0.0846 -0.2632  0.8218
 9109TIP3    H227292   5.637   0.733   0.736 -1.2293  0.2064 -0.5196
 9110TIP3   OH227293   3.718   6.498   1.014  0.6918 -0.4301  0.4562
 9110TIP3    H127294   3.637   6.452   0.993  1.7906 -2.5895  0.7235
 9110TIP3    H227295   3.760   6.444   1.080  2.9360 -0.0125 -0.5556
 9111TIP3   OH227296   4.173   4.442   1.025 -0.2084 -0.6966 -0.0746
 9111TIP3    H127297   4.207   4.360   0.989 -0.6182 -2.1565  2.5670
 9111TIP3    H227298   4.222   4.511   0.979  0.5759 -2.4062 -1.9666
 9112TIP3   OH227299   6.915   1.098   0.089  0.2778 -0.5693  0.3355
 9112TIP3    H127300   6.884   1.180   0.129  0.4369 -0.1317 -0.4165
 9112TIP3    H227301   7.000   1.083   0.129 -0.4921 -1.3001  1.7518
 9113TIP3   OH227302   1.875   1.418   3.760 -0.5006 -0.6048 -0.0559
 9113TIP3    H127303   1.868   1.512   3.742  1.2241 -0.8953 -3.1003
 9113TIP3    H227304   1.818   1.377   3.695  1.3987 -1.6682 -1.1682
 9114TIP3   OH227305   2.345   4.236   5.780  0.2498  1.0322 -0.2956
 9114TIP3    H127306   2.267   4.237   5.724 -0.2913 -0.3916  0.3891
 9114TIP3    H227307   2.310   4.224   5.869  1.2180  1.0236  0.0977
 9115TIP3   OH227308   0.479   4.818   3.647 -0.2062 -0.1410  0.2961
 9115TIP3    H127309   0.504   4.901   3.606 -0.7005  0.0427  0.3620
 9115TIP3    H227310   0.386   4.809   3.628 -0.6102  0.2713  1.9295
 9116TIP3   OH227311   1.578   3.086   3.981 -0.3313 -0.0043  0.4020
 9116TIP3    H127312   1.574   3.087   3.885 -3.3946  0.7457  0.4447
 9116TIP3    H227313   1.613   3.172   4.004  2.8531 -1.0764  0.0191
 9117TIP3   OH227314   4.878   0.289   2.070 -0.0370  0.2237 -0.2691
 9117TIP3    H127315   4.921   0.207   2.046 -0.8662 -0.1833 -0.3838
 9117TIP3    H227316   4.814   0.304   2.001 -0.7323  0.3275  0.3823
 9118TIP3   OH227317   1.348   5.117   4.605  0.3186  0.6163 -0.0394
 9118TIP3    H127318   1.316   5.088   4.519  0.4155  1.7559 -0.4788
 9118TIP3    H227319   1.439   5.087   4.607  0.6726  1.5830 -0.8356
 9119TIP3   OH227320   5.969   4.417   0.329  0.3545  0.0492 -0.0048
 9119TIP3    H127321   5.879   4.437   0.353  0.1411  0.1617 -0.8589
 9119TIP3    H227322   5.986   4.331   0.367  0.1429  0.3536  0.7948
 9120TIP3   OH227323   6.716   5.817   5.125 -1.0419 -0.2414  0.4107
 9120TIP3    H127324   6.659   5.871   5.180  0.2855 -0.4222  2.0459
 9120TIP3    H227325   6.802   5.857   5.133 -0.2181 -1.9996  0.8944
 9121TIP3   OH227326   2.285   1.486   3.115  0.2750 -0.3779  0.1362
 9121TIP3    H127327   2.238   1.565   3.087 -0.0204 -0.4130  0.5224
 9121TIP3    H227328   2.377   1.511   3.111  0.2223 -0.2700 -0.5149
 9122TIP3   OH227329   1.139   3.911   2.491 -0.5087 -0.1495 -0.4633
 9122TIP3    H127330   1.215   3.863   2.523  0.5816  1.1143 -1.0661
 9122TIP3    H227331   1.138   3.895   2.396 -0.0996  1.0295 -0.6790
 9123TIP3   OH227332   2.944   0.908   5.687 -0.4386  0.4177  0.2492
 9123TIP3    H127333   2.979   0.960   5.759  0.1422 -0.4320  0.6093
 9123TIP3    H227334   2.885   0.967   5.640  1.5745  1.9951 -0.4699
 9124TIP3   OH227335   1.160   3.244   1.142 -0.1476 -0.3530 -0.6242
 9124TIP3    H127336   1.243   3.202   1.165 -0.3576 -0.2510  0.3614
 9124TIP3    H227337   1.162   3.251   1.047  1.9040  1.5244 -0.4999
 9125TIP3   OH227338   0.213   5.088   4.716 -0.3609 -0.6452  0.0574
 9125TIP3    H127339   0.304   5.099   4.745 -0.7458  0.0994  1.0383
 9125TIP3    H227340   0.162   5.144   4.774 -1.5449 -1.6573  0.0459
 9126TIP3   OH227341   2.842   0.607   1.506 -0.0530 -0.6692 -0.5817
 9126TIP3    H127342   2.771   0.587   1.445 -1.6513  0.9941  0.6218
 9126TIP3    H227343   2.816   0.565   1.588 -0.0873  0.5959  0.0877
 9127TIP3   OH227344   1.005   3.841   3.716 -0.3089 -0.1670 -0.2803
 9127TIP3    H127345   0.958   3.861   3.797  0.1662  0.0259 -0.0436
 9127TIP3    H227346   1.094   3.875   3.731  0.1021 -1.1198 -0.4535
 9128TIP3   OH227347   0.893   0.024   5.219 -0.2274 -0.5027  0.2315
 9128TIP3    H127348   0.986   0.005   5.232 -0.1434 -0.0568  0.2952
 9128TIP3    H227349   0.876   0.004   5.127  0.1782  0.4032 -0.0533
 9129TIP3   OH227350   6.445   0.647   5.015  0.1818 -0.0832 -0.7601
 9129TIP3    H127351   6.540   0.638   5.019  0.1986  0.3807 -0.0190
 9129TIP3    H227352   6.412   0.578   5.073  0.1371  0.9744  0.5088
 9130TIP3   OH227353   0.166   0.651   0.363 -0.1215 -0.1443  0.1911
 9130TIP3    H127354   0.245   0.704   0.372  0.6490 -1.4113  1.2876
 9130TIP3    H227355   0.160   0.631   0.270 -0.6727  2.1615 -0.3342
 9131TIP3   OH227356   5.858   4.341   5.382  0.1436  0.2431  0.6456
 9131TIP3    H127357   5.833   4.432   5.369  0.0484  0.3614  1.5946
 9131TIP3    H227358   5.794   4.307   5.445  0.9124 -0.1309  1.2370
 9132TIP3   OH227359   6.046   6.207   2.439 -0.3743  0.2507  0.0638
 9132TIP3    H127360   6.128   6.255   2.454 -0.4778 -0.0811  1.8709
 9132TIP3    H227361   5.989   6.270   2.396  0.8824  0.4231 -1.4513
 9133TIP3   OH227362   2.642   6.319   0.596  0.1444  0.2294  0.0202
 9133TIP3    H127363   2.699   6.383   0.555 -0.4918  0.0065 -1.2716
 9133TIP3    H227364   2.701   6.249   0.625  0.6630  0.6143 -0.0949
 9134TIP3   OH227365   3.867   6.101   4.273  0.0591 -0.0683  0.1772
 9134TIP3    H127366   3.834   6.039   4.339 -0.8989 -1.8550 -1.8517
 9134TIP3    H227367   3.940   6.055   4.232  0.9065  1.1900  0.2203
 9135TIP3   OH227368   6.535   2.204   4.184  0.2294 -0.3160 -0.5025
 9135TIP3    H127369   6.553   2.289   4.225 -1.1138 -1.0052  1.6818
 9135TIP3    H227370   6.573   2.212   4.097  1.8570  1.8279  0.2909
 9136TIP3   OH227371   0.637   3.648   0.642 -0.1425 -0.9751 -0.4210
 9136TIP3    H127372   0.623   3.689   0.728  0.9513 -0.1177 -0.6250
 9136TIP3    H227373   0.629   3.554   0.658  1.5985 -0.9386  0.9691
 9137TIP3   OH227374   4.409   5.327   5.302 -0.2802  0.1943  0.1023
 9137TIP3    H127375   4.404   5.326   5.206  1.1152 -3.1980 -0.0959
 9137TIP3    H227376   4.481   5.387   5.321  1.6515 -1.5225 -1.2916
 9138TIP3   OH227377   5.168   0.771   5.358 -0.3627 -0.1381 -0.6185
 9138TIP3    H127378   5.225   0.698   5.335 -0.4505 -0.3294 -0.2278
 9138TIP3    H227379   5.223   0.849   5.345  0.2013 -0.3525  0.3843
 9139TIP3   OH227380   6.565   1.570   4.260 -0.2385  0.4154 -0.2616
 9139TIP3    H127381   6.516   1.579   4.342  0.7860  1.5702  0.2442
 9139TIP3    H227382   6.656   1.588   4.283  0.6332 -2.4998 -1.0322
 9140TIP3   OH227383   2.107   3.175   3.629 -0.5813  0.2034  0.0567
 9140TIP3    H127384   2.085   3.129   3.548 -0.4673  0.9941 -0.4355
 9140TIP3    H227385   2.179   3.124   3.667 -1.6102 -1.0173  0.4362
 9141TIP3   OH227386   5.997   2.413   1.454  0.1840 -0.3856 -0.4023
 9141TIP3    H127387   6.049   2.342   1.415 -0.5973 -1.0550 -0.2383
 9141TIP3    H227388   5.999   2.482   1.388 -1.8177 -1.8133 -2.1026
 9142TIP3   OH227389   1.355   0.109   3.869 -0.0291  0.0167 -0.0509
 9142TIP3    H127390   1.376   0.125   3.777  1.0343  3.3690  0.6115
 9142TIP3    H227391   1.271   0.153   3.882 -0.7168 -1.3760  0.4017
 9143TIP3   OH227392   5.575   2.700   2.418  0.3659 -0.4051  0.1129
 9143TIP3    H127393   5.578   2.630   2.483 -0.9001 -0.2785  0.3369
 9143TIP3    H227394   5.655   2.688   2.367  0.9301 -1.0703  1.1065
 9144TIP3   OH227395   6.006   0.963   5.494  0.2162  0.3559 -0.2868
 9144TIP3    H127396   6.044   0.926   5.573 -0.8895  0.6469  0.4055
 9144TIP3    H227397   5.996   1.056   5.514 -2.5118  0.0222  0.2964
 9145TIP3   OH227398   4.763   4.678   3.591  0.2900  0.5439 -0.0702
 9145TIP3    H127399   4.671   4.653   3.580 -0.1656  1.4790  1.4054
 9145TIP3    H227400   4.791   4.705   3.503 -0.3685 -1.2089 -0.8596
 9146TIP3   OH227401   1.157   2.031   1.681  0.1132  0.0999  0.2843
 9146TIP3    H127402   1.081   1.976   1.666 -0.3315  0.8246 -0.1633
 9146TIP3    H227403   1.224   1.996   1.622 -0.3177  0.3285 -0.3521
 9147TIP3   OH227404   0.135   4.850   2.117 -0.2795 -0.8965  0.0852
 9147TIP3    H127405   0.056   4.865   2.169 -0.3661 -0.0232 -0.2822
 9147TIP3    H227406   0.203   4.902   2.160 -0.1064 -0.9856 -0.0775
 9148TIP3   OH227407   0.414   0.147   2.663 -0.1390 -0.1139 -0.2746
 9148TIP3    H127408   0.395   0.196   2.583  1.5642 -0.0517 -0.6832
 9148TIP3    H227409   0.328   0.122   2.697 -1.0333  2.3561 -0.5349
 9149TIP3   OH227410   1.661   2.039   2.745  0.3590 -0.3479 -0.1664
 9149TIP3    H127411   1.610   2.106   2.790 -0.2005  0.4804 -1.9171
 9149TIP3    H227412   1.642   1.958   2.792  0.0504  0.5008  1.2261
 9150TIP3   OH227413   3.334   1.871   2.626  1.0546  0.4958  0.0407
 9150TIP3    H127414   3.294   1.878   2.713  1.8517 -1.5939  0.6163
 9150TIP3    H227415   3.259   1.858   2.567  0.7038 -1.9706  0.9329
 9151TIP3   OH227416   2.405   6.203   0.721 -0.0810 -0.3983  0.0219
 9151TIP3    H127417   2.492   6.236   0.698 -0.4725 -0.1974 -1.2386
 9151TIP3    H227418   2.366   6.272   0.774 -0.3901  0.6226 -1.4762
 9152TIP3   OH227419   4.937   5.255   0.067  0.7967  0.2806 -0.1605
 9152TIP3    H127420   4.846   5.278   0.086  0.6079 -0.3141 -0.3397
 9152TIP3    H227421   4.956   5.298  -0.016  0.0687 -1.1472 -1.1017
 9153TIP3   OH227422   1.236   3.765   4.358  0.2978 -0.6035 -0.6710
 9153TIP3    H127423   1.251   3.837   4.420 -0.0978 -0.5816 -0.5997
 9153TIP3    H227424   1.149   3.782   4.322  0.7443 -0.3049 -1.6495
 9154TIP3   OH227425   5.157   1.089   4.123 -0.2303  0.3659 -0.3489
 9154TIP3    H127426   5.089   1.122   4.182 -1.1415  0.2980 -1.3342
 9154TIP3    H227427   5.239   1.106   4.169 -0.7978  2.1142  0.0886
 9155TIP3   OH227428   1.126   5.620   4.878  0.0319  0.7260  0.1622
 9155TIP3    H127429   1.141   5.552   4.943 -0.8450 -0.9798 -1.3099
 9155TIP3    H227430   1.055   5.673   4.913  0.6892  0.8561  1.3166
 9156TIP3   OH227431   2.958   4.914   5.066  0.2455 -0.4393  0.0165
 9156TIP3    H127432   2.935   4.885   5.154 -1.3635  0.4727 -0.0515
 9156TIP3    H227433   3.004   4.840   5.026  1.0219 -0.8494  1.6139
 9157TIP3   OH227434   5.933   1.683   5.060 -0.3846 -0.6018 -0.0693
 9157TIP3    H127435   5.944   1.681   4.965 -2.2348  1.2002 -0.3829
 9157TIP3    H227436   5.851   1.635   5.075  1.2796 -3.3483  0.9673
 9158TIP3   OH227437   6.300   6.501   5.607  0.5749 -0.1996  0.5783
 9158TIP3    H127438   6.255   6.439   5.663  1.4367 -0.5466  0.9113
 9158TIP3    H227439   6.237   6.571   5.592 -0.5755 -1.3349 -0.1517
 9159TIP3   OH227440   0.305   0.741   3.728 -0.0362  0.3029  0.0451
 9159TIP3    H127441   0.302   0.687   3.649 -0.3097  0.9368 -0.3830
 9159TIP3    H227442   0.341   0.683   3.795  1.2313  0.0876 -0.7969
 9160TIP3   OH227443   2.572   1.581   5.859 -0.0836 -0.5864 -0.8183
 9160TIP3    H127444   2.545   1.672   5.870 -0.5888 -0.8507  0.2901
 9160TIP3    H227445   2.642   1.584   5.794  1.1361  0.8194  0.5072
 9161TIP3   OH227446   1.624   3.740   2.622 -0.1066 -0.1307  0.1849
 9161TIP3    H127447   1.683   3.807   2.588 -1.4850  1.0653  0.0409
 9161TIP3    H227448   1.636   3.743   2.717 -0.3650  0.5430  0.2008
 9162TIP3   OH227449   1.575   4.760   0.315 -0.1448 -0.0662  0.3914
 9162TIP3    H127450   1.547   4.816   0.387 -0.7100 -0.5575  0.5630
 9162TIP3    H227451   1.530   4.677   0.331  0.2475 -0.3878 -0.1623
 9163TIP3   OH227452   6.538   1.722   4.758  0.5645  0.0275  0.3272
 9163TIP3    H127453   6.474   1.764   4.815  0.9653  0.2168  0.6397
 9163TIP3    H227454   6.593   1.670   4.816 -1.1142 -2.5611 -0.2342
 9164TIP3   OH227455   3.007   1.108   3.765  0.6565  0.0306 -0.3448
 9164TIP3    H127456   2.955   1.175   3.808  0.3349  0.1570 -0.9130
 9164TIP3    H227457   2.949   1.032   3.761  0.5243  0.1555 -0.9335
 9165TIP3   OH227458   5.192   5.055   5.408  0.2702 -0.0393  0.5804
 9165TIP3    H127459   5.169   5.049   5.315  2.2589 -1.9606  0.1333
 9165TIP3    H227460   5.217   4.965   5.432 -0.7136  0.2886  3.1415
 9166TIP3   OH227461   0.621   5.736   4.232  0.0910 -0.0764 -0.0810
 9166TIP3    H127462   0.669   5.717   4.152  0.1086  0.0968 -0.1128
 9166TIP3    H227463   0.532   5.753   4.204  0.2034  0.4771 -0.1231
 9167TIP3   OH227464   5.695   5.837   4.720 -0.1164 -0.8276  0.5558
 9167TIP3    H127465   5.645   5.918   4.710 -1.6234 -1.5792  1.5884
 9167TIP3    H227466   5.767   5.845   4.657 -0.9449  0.7555 -0.2508
 9168TIP3   OH227467   2.019   6.637   0.245  0.1280  0.0792 -0.3075
 9168TIP3    H127468   1.976   6.707   0.195  1.7455  1.0255 -0.4508
 9168TIP3    H227469   2.050   6.576   0.178 -1.0698 -0.6675 -0.1970
 9169TIP3   OH227470   2.362   0.050   1.750 -0.3483  0.0452  0.6290
 9169TIP3    H127471   2.324   0.096   1.676  0.1022  0.7201  0.8070
 9169TIP3    H227472   2.329   0.097   1.827  2.8657  2.4130  0.7707
 9170TIP3   OH227473   0.234   4.687   3.602 -0.4383 -0.2750 -0.3806
 9170TIP3    H127474   0.211   4.595   3.609 -0.6381 -0.1133  1.2765
 9170TIP3    H227475   0.164   4.733   3.648  0.9529  0.5154  1.0390
 9171TIP3   OH227476   6.221   0.665   4.272  0.3391 -0.2156  0.2284
 9171TIP3    H127477   6.260   0.719   4.341  0.4031  0.6990 -0.4934
 9171TIP3    H227478   6.135   0.640   4.306  0.3668  0.2348  0.6335
 9172TIP3   OH227479   2.783   3.441   3.167 -0.3635 -0.3757 -0.2673
 9172TIP3    H127480   2.800   3.511   3.104 -3.0768  0.0577 -0.6164
 9172TIP3    H227481   2.827   3.470   3.247 -2.1447  2.2831 -0.1185
 9173TIP3   OH227482   4.050   0.575   0.336 -0.0474 -0.2745  0.3840
 9173TIP3    H127483   4.051   0.630   0.414 -1.4662  1.2570 -0.6212
 9173TIP3    H227484   4.092   0.494   0.364  0.1319  0.4870  2.5277
 9174TIP3   OH227485   6.253   0.592   0.437 -0.2571 -0.5368 -0.0143
 9174TIP3    H127486   6.243   0.595   0.342 -1.1855 -0.9199  0.0594
 9174TIP3    H227487   6.269   0.500   0.457 -1.1843 -0.6532  0.2803
 9175TIP3   OH227488   4.504   5.391   3.543 -0.8688 -0.4071  0.3349
 9175TIP3    H127489   4.448   5.392   3.621 -0.8545  0.8764  0.3547
 9175TIP3    H227490   4.480   5.471   3.495  0.4286 -0.1995 -0.0219
 9176TIP3   OH227491   1.646   6.389   5.726  0.1736  0.2880 -1.1876
 9176TIP3    H127492   1.688   6.306   5.707 -0.3916  0.1534 -1.8855
 9176TIP3    H227493   1.556   6.379   5.694 -0.5816  0.3673  0.7722
 9177TIP3   OH227494   3.773   6.160   4.001 -0.3174 -0.3033 -0.2610
 9177TIP3    H127495   3.692   6.205   4.025 -0.9387 -1.6775  0.3320
 9177TIP3    H227496   3.815   6.140   4.084  0.3319 -0.1447 -0.5432
 9178TIP3   OH227497   4.183   1.187   4.155  0.1956  0.2781  0.5561
 9178TIP3    H127498   4.262   1.201   4.103 -0.7543  2.2990 -0.4648
 9178TIP3    H227499   4.138   1.114   4.111 -0.1185  1.3247 -0.9464
 9179TIP3   OH227500   1.241   3.784   1.217  0.4852 -0.2584  0.4193
 9179TIP3    H127501   1.211   3.694   1.225  1.4482 -0.5445  0.9994
 9179TIP3    H227502   1.180   3.835   1.270 -0.2087 -0.5198 -0.1080
 9180TIP3   OH227503   4.035   3.444   2.640 -0.4766  0.1048  0.2202
 9180TIP3    H127504   4.102   3.458   2.572  0.4999 -1.9063  0.6997
 9180TIP3    H227505   3.959   3.412   2.592 -0.6571  1.1014 -0.1830
 9181TIP3   OH227506   2.826   2.425   5.522  0.3574  0.3298 -0.5537
 9181TIP3    H127507   2.762   2.495   5.527 -0.3687 -0.1856 -1.9630
 9181TIP3    H227508   2.909   2.466   5.544 -0.5543  0.7843  2.4333
 9182TIP3   OH227509   2.956   2.168   2.574  0.2380  0.1332 -0.1597
 9182TIP3    H127510   2.987   2.252   2.540  0.0811  0.5362  0.6639
 9182TIP3    H227511   2.989   2.103   2.512 -0.0677  0.8421 -1.0823
 9183TIP3   OH227512   4.233   5.641   1.601  0.1646 -0.1369  0.5031
 9183TIP3    H127513   4.265   5.575   1.663  0.6142 -0.6265 -0.2446
 9183TIP3    H227514   4.180   5.591   1.539  1.5976 -0.0391 -0.8603
 9184TIP3   OH227515   2.687   6.399   1.779 -0.1064  0.1761 -0.4986
 9184TIP3    H127516   2.646   6.328   1.731 -0.4774 -0.1973  0.3526
 9184TIP3    H227517   2.653   6.391   1.868  1.0872  0.4289  0.0045
 9185TIP3   OH227518   3.483   3.095   5.814 -1.0082 -0.1696 -0.0924
 9185TIP3    H127519   3.561   3.143   5.842 -0.5919 -0.5680 -0.5586
 9185TIP3    H227520   3.428   3.090   5.893  0.2625 -1.5198  0.7454
 9186TIP3   OH227521   0.275   3.976   3.525  0.3099  0.5884  0.1721
 9186TIP3    H127522   0.262   4.051   3.584 -0.9052 -0.1144  0.8412
 9186TIP3    H227523   0.228   3.904   3.567 -0.7460  0.0910 -1.7316
 9187TIP3   OH227524   6.381   2.721   3.071 -1.1123  0.0019  0.2339
 9187TIP3    H127525   6.349   2.682   3.153 -2.1589  1.8795  0.7848
 9187TIP3    H227526   6.302   2.731   3.017 -0.5756 -0.3618 -0.6425
 9188TIP3   OH227527   7.099   4.506   4.195 -0.4080  0.4286  0.1294
 9188TIP3    H127528   7.045   4.466   4.127  0.7384 -2.6302  0.8527
 9188TIP3    H227529   7.087   4.600   4.184 -1.7529 -0.0182 -3.0266
 9189TIP3   OH227530   3.221   1.502   4.732  0.0575  0.3689 -0.2469
 9189TIP3    H127531   3.138   1.467   4.764 -0.1051 -0.3638 -1.4294
 9189TIP3    H227532   3.226   1.590   4.770 -1.7121  0.7997 -0.8909
 9190TIP3   OH227533   0.014   6.014   5.032 -0.3244  0.3680 -0.3165
 9190TIP3    H127534   0.100   6.004   4.992  0.5583 -0.8294  1.7587
 9190TIP3    H227535  -0.047   6.008   4.959  1.2167 -1.3143 -1.5462
 9191TIP3   OH227536   6.621   4.941   2.403  0.2136 -0.1679  0.6313
 9191TIP3    H127537   6.532   4.918   2.430  0.1013  0.2194  0.6015
 9191TIP3    H227538   6.610   5.016   2.344  0.6593  0.9101  1.8718
 9192TIP3   OH227539   3.802   5.721   3.794 -0.3735  0.0509 -0.1986
 9192TIP3    H127540   3.722   5.764   3.763  0.3866  1.2209 -0.6129
 9192TIP3    H227541   3.784   5.628   3.786 -1.9242  0.2759  0.3102
 9193TIP3   OH227542   3.062   1.584   2.237 -0.1241  0.3247  0.3955
 9193TIP3    H127543   3.090   1.620   2.321 -0.7026 -2.0033  1.6845
 9193TIP3    H227544   2.971   1.560   2.250 -0.2564 -0.0204 -0.9422
 9194TIP3   OH227545   5.247   4.908   4.415 -0.2368  0.2881 -0.0400
 9194TIP3    H127546   5.248   4.868   4.503  0.0352  0.2927 -0.0409
 9194TIP3    H227547   5.320   4.867   4.370 -1.1767 -0.7067 -0.7147
 9195TIP3   OH227548   0.949   2.425   3.664  1.4994  0.1882 -0.1861
 9195TIP3    H127549   0.870   2.463   3.624  0.5753  0.0979  1.4774
 9195TIP3    H227550   0.982   2.365   3.597 -0.9177 -1.1799 -0.2783
 9196TIP3   OH227551   4.924   2.168   2.531  0.1314  0.1577 -0.1958
 9196TIP3    H127552   4.981   2.153   2.455 -1.0688  0.8410 -1.2548
 9196TIP3    H227553   4.965   2.117   2.601  1.9883  0.5449 -0.9433
 9197TIP3   OH227554   0.838   4.969   5.231  0.7092  0.3916 -0.1521
 9197TIP3    H127555   0.804   5.054   5.258  0.2695  0.4733 -0.9512
 9197TIP3    H227556   0.786   4.906   5.281 -1.5157  0.4573 -2.2289
 9198TIP3   OH227557   3.645   1.233   1.345 -0.2140  0.3042  0.2211
 9198TIP3    H127558   3.601   1.313   1.373  1.5155  0.8388  1.5638
 9198TIP3    H227559   3.725   1.263   1.302  0.8944 -0.6645  1.5088
 9199TIP3   OH227560   2.568   6.763   1.175  0.1291  0.1763 -0.7826
 9199TIP3    H127561   2.503   6.705   1.138 -0.6243  1.1715 -1.0517
 9199TIP3    H227562   2.590   6.824   1.104 -0.6208  1.4957  0.0777
 9200TIP3   OH227563   3.641   0.487   4.729 -0.2733  0.0313  0.1693
 9200TIP3    H127564   3.582   0.427   4.683  0.2514 -0.5864  0.2948
 9200TIP3    H227565   3.635   0.460   4.820 -0.3383  0.4305  0.2818
 9201TIP3   OH227566   5.734   5.834   2.420  0.4705  0.7260 -0.2454
 9201TIP3    H127567   5.734   5.740   2.434 -0.0394  0.6366 -0.7873
 9201TIP3    H227568   5.754   5.845   2.327 -0.9676  1.0749 -0.5355
 9202TIP3   OH227569   4.956   3.402   5.520  0.1250  0.3405  0.5465
 9202TIP3    H127570   5.034   3.458   5.520  1.3775 -1.3298  1.0207
 9202TIP3    H227571   4.975   3.335   5.585 -1.6413 -0.2298  0.5095
 9203TIP3   OH227572   0.970   1.140   0.661 -0.2075 -0.6729 -0.2750
 9203TIP3    H127573   1.018   1.088   0.726 -1.4861 -0.8378  0.5814
 9203TIP3    H227574   1.021   1.220   0.652 -0.7872  0.0475  2.1383
 9204TIP3   OH227575   4.869   4.896   0.874  0.5306 -0.0815 -0.2984
 9204TIP3    H127576   4.951   4.892   0.923  0.7557 -1.0863 -0.7213
 9204TIP3    H227577   4.818   4.822   0.907  1.0359 -1.3127 -2.1488
 9205TIP3   OH227578   4.106   4.266   1.717  0.2234 -0.2341 -0.2970
 9205TIP3    H127579   4.155   4.234   1.641  2.9634 -0.2054  1.3670
 9205TIP3    H227580   4.146   4.351   1.737 -0.3425 -0.3259  1.2924
 9206TIP3   OH227581   6.305   5.816   0.143  0.1996 -0.6999  0.4269
 9206TIP3    H127582   6.212   5.793   0.135  0.2638 -0.5881 -0.9514
 9206TIP3    H227583   6.349   5.752   0.086  0.6251  1.1944 -1.4935
 9207TIP3   OH227584   6.963   6.688   0.838  0.2839 -0.0449  0.2319
 9207TIP3    H127585   7.044   6.739   0.837  0.1143  0.2145 -0.5276
 9207TIP3    H227586   6.960   6.646   0.752  0.1125 -0.8614  0.6199
 9208TIP3   OH227587   5.180   0.003   2.293 -0.2918  1.0389  0.1574
 9208TIP3    H127588   5.262   0.050   2.285 -1.5057  3.2094 -0.4883
 9208TIP3    H227589   5.115   0.071   2.312 -1.7187 -0.7647  2.2343
 9209TIP3   OH227590   5.831   5.307   0.907  0.2814 -0.5597 -0.1837
 9209TIP3    H127591   5.881   5.228   0.927  0.1392 -0.8258 -0.8460
 9209TIP3    H227592   5.853   5.368   0.977  3.0107  0.0248 -1.4474
 9210TIP3   OH227593   7.198   1.836   3.729  0.3124 -0.5475  0.2175
 9210TIP3    H127594   7.210   1.875   3.643 -1.0638  0.9277  0.6404
 9210TIP3    H227595   7.184   1.743   3.711  1.8187 -0.5808 -0.9712
 9211TIP3   OH227596   6.769   3.132   5.437  0.5024 -0.5088  0.3400
 9211TIP3    H127597   6.779   3.045   5.476 -1.7710 -0.5757  0.9002
 9211TIP3    H227598   6.844   3.182   5.471  1.3355 -1.9719  0.7485
 9212TIP3   OH227599   1.575   4.955   1.538  0.3033  0.0802 -0.1468
 9212TIP3    H127600   1.564   4.872   1.491  0.5425 -0.1950  0.2820
 9212TIP3    H227601   1.498   4.961   1.594  0.6452 -0.2045  0.3565
 9213TIP3   OH227602   0.590   6.113   2.943  0.0292  0.1127 -0.6190
 9213TIP3    H127603   0.609   6.147   2.856  0.0337  0.8287 -0.3476
 9213TIP3    H227604   0.495   6.110   2.948  0.0333 -0.2541 -0.7717
 9214TIP3   OH227605   6.048   4.282   1.834 -0.4999  0.3698 -0.0886
 9214TIP3    H127606   5.986   4.306   1.766  0.8649  3.3582 -0.4029
 9214TIP3    H227607   6.131   4.272   1.789 -0.2913 -1.6584  0.6264
 9215TIP3   OH227608   3.218   0.468   4.023 -0.5412 -0.8117  0.0286
 9215TIP3    H127609   3.149   0.506   3.969 -0.9940 -0.8361  0.5817
 9215TIP3    H227610   3.255   0.399   3.969  1.0428  1.0635 -1.4588
 9216TIP3   OH227611   1.562   4.084   1.668 -0.1888  0.7550 -0.7810
 9216TIP3    H127612   1.549   4.064   1.576  2.4929 -0.2779 -1.0219
 9216TIP3    H227613   1.585   4.177   1.669 -2.0544  1.2471 -0.8976
 9217TIP3   OH227614   3.037   5.901   5.484  0.3400  0.2729 -0.6246
 9217TIP3    H127615   3.038   5.889   5.389 -0.4684 -1.6918 -0.4421
 9217TIP3    H227616   3.119   5.946   5.504 -0.0988  1.9684 -2.3640
 9218TIP3   OH227617   6.476   3.130   0.088 -0.0575 -0.3713 -0.7607
 9218TIP3    H127618   6.475   3.080   0.007  1.2707 -0.2707 -0.8513
 9218TIP3    H227619   6.565   3.164   0.095 -0.2771  0.0042  0.5022
 9219TIP3   OH227620   2.652   3.408   0.483  0.2227 -0.3453  0.0022
 9219TIP3    H127621   2.642   3.347   0.557  2.9057 -1.4543 -0.4122
 9219TIP3    H227622   2.651   3.495   0.523 -0.3293 -0.8263  1.0768
 9220TIP3   OH227623   5.471   3.242   1.990 -0.1249 -0.0172 -0.4586
 9220TIP3    H127624   5.494   3.272   2.078  1.5845  1.3644 -1.3021
 9220TIP3    H227625   5.549   3.261   1.937 -0.4999 -2.2792 -1.9597
 9221TIP3   OH227626   3.421   5.026   2.393 -0.0615 -0.4901  0.2077
 9221TIP3    H127627   3.409   5.116   2.424 -2.9692 -0.9643  0.7506
 9221TIP3    H227628   3.495   5.031   2.333 -0.1507  2.2670  0.2020
 9222TIP3   OH227629   2.362   3.591   4.661 -0.9057  0.6971 -0.3238
 9222TIP3    H127630   2.413   3.660   4.619  1.5667  0.0520  1.3446
 9222TIP3    H227631   2.397   3.587   4.750 -2.5599 -1.1759  0.3201
 9223TIP3   OH227632   6.553   3.958   2.519  0.3280  0.2080 -0.0616
 9223TIP3    H127633   6.489   4.028   2.507 -0.1308  0.1299  1.6435
 9223TIP3    H227634   6.531   3.920   2.604  2.1019 -0.4012  0.1626
 9224TIP3   OH227635   1.049   3.554   5.262  0.3744 -0.4353  0.0140
 9224TIP3    H127636   1.098   3.472   5.271  0.1230 -0.5740  0.1707
 9224TIP3    H227637   1.085   3.596   5.185  0.4716 -0.7234 -0.0982
 9225TIP3   OH227638   0.554   2.710   4.689 -0.2336  0.4647 -0.3900
 9225TIP3    H127639   0.646   2.713   4.715 -0.9269 -1.1400  2.9141
 9225TIP3    H227640   0.554   2.663   4.606  1.9049 -0.3006 -0.0294
 9226TIP3   OH227641   1.599   6.579   4.884  0.4187 -0.3394  0.1592
 9226TIP3    H127642   1.570   6.670   4.878  1.2553 -0.0681  0.0684
 9226TIP3    H227643   1.538   6.538   4.946 -0.1161  0.2179  0.0016
 9227TIP3   OH227644   6.356   1.799   0.854  0.0732  0.4314 -0.6631
 9227TIP3    H127645   6.376   1.882   0.812 -0.6968  0.1711 -1.5976
 9227TIP3    H227646   6.274   1.814   0.900  1.0293  0.7779  0.9920
 9228TIP3   OH227647   4.688   6.410   3.122  0.1939  0.0810  0.0505
 9228TIP3    H127648   4.764   6.462   3.097  0.2832  0.2042  0.5746
 9228TIP3    H227649   4.634   6.406   3.043 -0.0900  1.4497  0.1495
 9229TIP3   OH227650   0.882   0.996   5.749  0.2217 -0.6598  0.1829
 9229TIP3    H127651   0.816   0.985   5.817  0.3968 -0.4703  0.3842
 9229TIP3    H227652   0.958   1.033   5.795  0.5357 -1.0554 -0.0053
 9230TIP3   OH227653   5.178   2.285   3.436  0.6498  0.4932  0.0710
 9230TIP3    H127654   5.182   2.190   3.438  0.6363  0.4064 -1.8260
 9230TIP3    H227655   5.255   2.311   3.385 -0.2280  1.3710 -0.8541
 9231TIP3   OH227656   3.202   5.774   2.886  0.2214  0.0708 -0.4383
 9231TIP3    H127657   3.275   5.826   2.920  0.0956  0.4488 -0.7313
 9231TIP3    H227658   3.205   5.692   2.935  1.5340 -0.3723 -1.2008
 9232TIP3   OH227659   5.613   2.963   1.019  0.0232  0.1778 -0.0586
 9232TIP3    H127660   5.524   2.988   0.995  0.0504 -1.7448 -2.5726
 9232TIP3    H227661   5.640   2.901   0.951  2.7970 -0.3647  1.3797
 9233TIP3   OH227662   0.118   5.171   1.503  0.0603 -0.2794  0.0626
 9233TIP3    H127663   0.122   5.088   1.550  0.6626  0.9136  2.2144
 9233TIP3    H227664   0.024   5.188   1.492 -0.0714 -1.3494 -0.6719
 9234TIP3   OH227665   5.014   2.171   4.166 -0.1515  0.1267  0.3355
 9234TIP3    H127666   5.078   2.101   4.155  0.9257  1.1501 -0.2517
 9234TIP3    H227667   4.930   2.126   4.179  0.4813 -1.2514 -0.1458
 9235TIP3   OH227668   2.015   6.365   0.711 -0.0319  0.3919  0.0901
 9235TIP3    H127669   1.969   6.445   0.685  0.2740  0.0731 -1.5507
 9235TIP3    H227670   1.976   6.341   0.795 -3.1296 -0.0227 -1.3152
 9236TIP3   OH227671   1.777   5.182   0.876 -0.2248 -0.1713 -0.0471
 9236TIP3    H127672   1.742   5.260   0.832  0.0288 -1.1177 -2.0424
 9236TIP3    H227673   1.715   5.165   0.948 -1.2253  0.8805 -0.6288
 9237TIP3   OH227674   5.938   0.050   1.979  0.0833  0.0320 -0.2887
 9237TIP3    H127675   6.013  -0.008   1.971  0.1472  0.0205  0.3823
 9237TIP3    H227676   5.965   0.118   2.041  0.1251  0.9807 -1.3076
 9238TIP3   OH227677   1.351   5.670   2.307 -0.1731  0.0319 -0.1269
 9238TIP3    H127678   1.259   5.654   2.287  0.2117 -2.2398 -0.3029
 9238TIP3    H227679   1.360   5.650   2.400  0.2902 -0.5715 -0.2946
 9239TIP3   OH227680   4.818   6.076   1.056  0.3057 -0.0888 -0.1408
 9239TIP3    H127681   4.859   5.990   1.058 -1.4618 -0.9578  2.1105
 9239TIP3    H227682   4.821   6.107   1.146  1.3187  2.4664 -0.9699
 9240TIP3   OH227683   5.581   5.156   2.216  0.4067  0.0749 -0.2704
 9240TIP3    H127684   5.557   5.082   2.272  0.1457 -2.9654 -3.9270
 9240TIP3    H227685   5.675   5.146   2.202  0.3814  0.4359 -0.7269
 9241TIP3   OH227686   0.973   6.314   5.198 -0.7001  0.1018  0.8302
 9241TIP3    H127687   1.001   6.275   5.281 -0.9426 -0.1315  0.8034
 9241TIP3    H227688   1.051   6.361   5.167  0.7571 -3.0806 -0.7737
 9242TIP3   OH227689   1.138   6.501   1.918  0.2691 -0.3885  0.1775
 9242TIP3    H127690   1.077   6.452   1.862 -0.1553 -1.5518  1.6082
 9242TIP3    H227691   1.222   6.494   1.872 -0.3062 -0.2371 -0.9508
 9243TIP3   OH227692   6.469   5.459   5.620  0.6960  0.1894 -0.7963
 9243TIP3    H127693   6.534   5.391   5.637  2.0135  1.2353 -1.4601
 9243TIP3    H227694   6.396   5.412   5.579  1.4698 -0.8700 -1.0093
 9244TIP3   OH227695   2.390   2.143   5.547  0.0468 -0.2684 -0.4412
 9244TIP3    H127696   2.386   2.169   5.639 -3.0686  0.3474 -0.6200
 9244TIP3    H227697   2.412   2.223   5.500 -1.2264  0.1236 -0.3995
 9245TIP3   OH227698   4.006   3.228   0.446 -0.0047  0.7874 -0.0902
 9245TIP3    H127699   4.100   3.245   0.449  0.5529 -1.6141 -1.2161
 9245TIP3    H227700   3.995   3.147   0.495 -1.1415 -0.0802 -1.6793
 9246TIP3   OH227701   2.607  -0.009   0.539  0.4108 -0.2260 -0.3713
 9246TIP3    H127702   2.571  -0.062   0.610 -4.4785  0.0801 -2.2107
 9246TIP3    H227703   2.607   0.080   0.575 -1.2656 -0.1814 -0.3779
 9247TIP3   OH227704   0.485   4.985   4.079 -0.3933 -0.1150 -0.0765
 9247TIP3    H127705   0.496   5.044   4.154 -0.5442  0.4419 -0.4922
 9247TIP3    H227706   0.412   4.928   4.105 -2.0976  1.6205 -0.7375
 9248TIP3   OH227707   2.491   1.337   0.940  0.5767  0.2633  0.2168
 9248TIP3    H127708   2.468   1.409   0.999  0.2155 -1.1332  1.8423
 9248TIP3    H227709   2.425   1.340   0.871 -0.0048  0.8946  0.7924
 9249TIP3   OH227710   4.447   5.493   0.720  0.0035  0.2075  0.0482
 9249TIP3    H127711   4.486   5.549   0.653 -0.1766  0.6477  0.3037
 9249TIP3    H227712   4.520   5.471   0.778  0.3247 -0.8131 -0.7068
 9250TIP3   OH227713   2.905   4.740   4.247 -0.0668  0.1906 -0.1896
 9250TIP3    H127714   2.907   4.646   4.263 -0.9943  0.2088  0.1047
 9250TIP3    H227715   2.944   4.751   4.161  1.4788 -0.3017  0.4180
 9251TIP3   OH227716   5.958   5.220   1.352 -0.4299 -0.2300  0.5809
 9251TIP3    H127717   6.007   5.270   1.418  1.5402  0.8803 -1.5629
 9251TIP3    H227718   6.022   5.159   1.316 -1.4100 -0.7456 -0.3526
 9252TIP3   OH227719   0.285   2.938   4.242  0.1284  0.0855 -0.1970
 9252TIP3    H127720   0.198   2.977   4.250  0.3335  0.5842 -0.3522
 9252TIP3    H227721   0.337   3.005   4.197  0.3722 -0.5568 -0.8697
 9253TIP3   OH227722   0.611   6.095   0.245  0.6145 -0.5207 -0.3625
 9253TIP3    H127723   0.653   6.010   0.230  0.0578 -0.5716 -1.7594
 9253TIP3    H227724   0.517   6.076   0.241  0.4788  0.0602 -0.0472
 9254TIP3   OH227725   6.903   1.332   0.247 -0.4068 -0.2510  0.2466
 9254TIP3    H127726   6.874   1.423   0.233 -0.4517 -0.3978 -0.6728
 9254TIP3    H227727   6.957   1.337   0.326 -0.5732  0.5470  0.3256
 9255TIP3   OH227728   6.364   3.895   0.013  0.1915 -0.0500  0.4351
 9255TIP3    H127729   6.385   3.971  -0.042  0.9453 -1.9343 -2.0842
 9255TIP3    H227730   6.412   3.909   0.094  1.8569  1.2536 -0.7232
 9256TIP3   OH227731   2.271   0.232   0.115 -0.2421  0.3963  0.2635
 9256TIP3    H127732   2.294   0.148   0.157 -0.6890 -0.1086 -0.4799
 9256TIP3    H227733   2.320   0.232   0.033  0.6686  1.4062  0.7842
 9257TIP3   OH227734   6.336   4.857   2.477  0.0091  0.3129  0.2140
 9257TIP3    H127735   6.361   4.850   2.384  0.5445 -0.0379  0.3781
 9257TIP3    H227736   6.285   4.938   2.481 -0.5037  0.0351 -0.4891
 9258TIP3   OH227737   0.501   2.681   2.842 -0.2663  0.0999 -0.1345
 9258TIP3    H127738   0.552   2.756   2.811  1.0242 -0.4602  0.5293
 9258TIP3    H227739   0.411   2.703   2.821  0.2149  1.2485 -1.1404
 9259TIP3   OH227740   0.352   1.394   3.421 -0.1264 -0.2316  0.0489
 9259TIP3    H127741   0.431   1.430   3.381 -0.7639  1.4766  0.2431
 9259TIP3    H227742   0.380   1.312   3.461  1.6000  0.4532  0.3122
 9260TIP3   OH227743   2.277   6.077   0.951  0.2999 -0.8165 -0.1754
 9260TIP3    H127744   2.217   6.136   0.996 -0.3057 -1.5566  0.0073
 9260TIP3    H227745   2.310   6.128   0.877 -0.6578 -0.4349 -0.3532
 9261TIP3   OH227746   2.417   5.750   1.381 -0.2624 -0.2031 -0.2259
 9261TIP3    H127747   2.497   5.786   1.342 -0.2276 -0.4721 -0.4047
 9261TIP3    H227748   2.377   5.700   1.310 -0.5694 -0.1024 -0.1234
 9262TIP3   OH227749   0.655   4.729   4.192  0.1770  0.4231 -0.2391
 9262TIP3    H127750   0.611   4.797   4.243  0.5933 -0.1029  0.8394
 9262TIP3    H227751   0.629   4.747   4.102 -2.0039  0.3303  0.3128
 9263TIP3   OH227752   0.939   2.443   5.332 -0.3167  0.2086  0.5866
 9263TIP3    H127753   0.994   2.405   5.401 -0.7539 -0.4206  0.5936
 9263TIP3    H227754   0.905   2.524   5.371 -0.5075 -0.1097  1.0960
 9264TIP3   OH227755   3.520   4.903   4.551  0.6796  0.3582  0.7986
 9264TIP3    H127756   3.485   4.963   4.485 -2.3160 -0.3247  1.5951
 9264TIP3    H227757   3.565   4.960   4.614  1.9366  1.2000 -0.7723
 9265TIP3   OH227758   2.637   3.075   4.460 -0.2688 -0.3632  0.5345
 9265TIP3    H127759   2.663   2.994   4.504 -1.8943 -1.2416 -0.0693
 9265TIP3    H227760   2.675   3.068   4.372  0.8915  0.2718  0.9566
 9266TIP3   OH227761   5.290   4.940   2.225  0.0930 -0.2801  0.2609
 9266TIP3    H127762   5.354   4.976   2.287 -1.7810  1.1647  1.4757
 9266TIP3    H227763   5.342   4.889   2.163  2.3207  0.2590  1.5892
 9267TIP3   OH227764   4.581   0.135   2.213 -0.6512 -0.4656 -0.1434
 9267TIP3    H127765   4.546   0.202   2.155 -2.3551  0.4027  1.7758
 9267TIP3    H227766   4.505   0.097   2.256  0.5310  0.6937  3.3471
 9268TIP3   OH227767   1.866   4.549   2.838 -0.2078 -0.1502 -0.0115
 9268TIP3    H127768   1.863   4.612   2.910  1.0399 -0.4482  0.3250
 9268TIP3    H227769   1.940   4.578   2.785 -1.4784  0.4291 -1.5459
 9269TIP3   OH227770   5.089   0.804   1.642 -0.2056  0.1281 -0.4655
 9269TIP3    H127771   5.117   0.870   1.705 -0.0849  0.2084 -0.6019
 9269TIP3    H227772   4.997   0.824   1.625 -0.8465 -1.1254  1.2300
 9270TIP3   OH227773   6.074   1.854   2.782 -0.7030  0.3604 -0.1037
 9270TIP3    H127774   6.115   1.843   2.696  0.4846 -0.2458  0.5054
 9270TIP3    H227775   6.140   1.821   2.843 -0.9510  2.0884  1.1606
 9271TIP3   OH227776   6.342   0.458   5.309 -0.3477  0.0342  0.4885
 9271TIP3    H127777   6.251   0.471   5.282 -0.2076  2.4709  0.8937
 9271TIP3    H227778   6.346   0.496   5.397  0.9925 -0.2926  0.5898
 9272TIP3   OH227779   0.372   6.319   1.797  0.0362  0.0460 -0.1204
 9272TIP3    H127780   0.439   6.293   1.734  1.5613 -0.0522  1.4821
 9272TIP3    H227781   0.336   6.401   1.761 -1.0590 -1.3607 -2.4482
 9273TIP3   OH227782   2.356   0.894   0.549  0.3200  0.2540  0.6254
 9273TIP3    H127783   2.264   0.918   0.546  0.5581  1.2693  0.8729
 9273TIP3    H227784   2.397   0.963   0.602  0.8937 -1.2647  2.2563
 9274TIP3   OH227785   4.024   5.954   2.135  0.0937 -0.4784  0.2789
 9274TIP3    H127786   4.113   5.925   2.154  0.2785 -0.5485 -0.6257
 9274TIP3    H227787   3.968   5.895   2.185  0.5599 -0.1735  1.1757
 9275TIP3   OH227788   4.993   4.055   5.619  0.3049 -0.3286  0.1998
 9275TIP3    H127789   4.978   4.011   5.703  0.5354  0.3935  0.6282
 9275TIP3    H227790   4.906   4.067   5.582  0.1628 -0.1839  0.5783
 9276TIP3   OH227791   0.012   2.307   2.858 -0.4868 -0.4382  0.0059
 9276TIP3    H127792   0.004   2.292   2.952 -1.5010 -0.4185 -0.0677
 9276TIP3    H227793   0.031   2.220   2.822  2.4744 -0.0818  0.4464
 9277TIP3   OH227794   0.624   4.860   4.649  0.4727  0.3448 -0.0648
 9277TIP3    H127795   0.588   4.802   4.715  0.4710  1.0290  0.5381
 9277TIP3    H227796   0.688   4.914   4.696 -2.1327  3.4242  0.2639
 9278TIP3   OH227797   0.158   1.671   5.124 -0.1862  0.2741 -0.1704
 9278TIP3    H127798   0.199   1.756   5.105 -0.7296  0.3926 -0.8487
 9278TIP3    H227799   0.068   1.680   5.093 -0.6115 -0.1336  0.8972
 9279TIP3   OH227800   6.618   2.574   0.257 -0.1704 -0.5919 -0.5802
 9279TIP3    H127801   6.582   2.607   0.174 -0.5590  1.1321  0.2165
 9279TIP3    H227802   6.710   2.557   0.238 -0.5793 -1.6762 -1.7361
 9280TIP3   OH227803   2.559   6.359   2.554 -0.4305  0.4073 -0.5994
 9280TIP3    H127804   2.600   6.278   2.527 -0.0823 -0.2089  1.5654
 9280TIP3    H227805   2.612   6.428   2.515  1.5789 -0.3908  0.5571
 9281TIP3   OH227806   2.023   3.967   5.486  0.0595 -0.2620 -0.2993
 9281TIP3    H127807   2.040   3.877   5.461 -2.4180 -0.1015 -3.1759
 9281TIP3    H227808   1.945   3.963   5.541  0.3567  0.0765  0.1511
 9282TIP3   OH227809   1.747   2.055   2.319  0.0189  0.2586 -0.6165
 9282TIP3    H127810   1.682   2.117   2.351 -1.7939 -1.2529 -1.1552
 9282TIP3    H227811   1.792   2.101   2.248 -0.1764  1.4712  0.0257
 9283TIP3   OH227812   1.340   5.421   3.865 -0.2726  0.2611 -0.1744
 9283TIP3    H127813   1.425   5.451   3.898 -0.5341  1.6343 -0.6689
 9283TIP3    H227814   1.276   5.451   3.930 -0.6959  2.2394 -1.4011
 9284TIP3   OH227815   5.923   0.106   3.333  0.3587  0.2113 -0.0373
 9284TIP3    H127816   5.880   0.079   3.252  0.1339 -0.6163  0.3514
 9284TIP3    H227817   5.875   0.184   3.361 -1.1599 -0.8910  0.5755
 9285TIP3   OH227818   4.701   4.420   3.339 -0.5244  0.1160  0.5481
 9285TIP3    H127819   4.718   4.489   3.274  0.2606  0.4520  1.0875
 9285TIP3    H227820   4.725   4.339   3.293  1.5661  0.4772  0.8815
 9286TIP3   OH227821   4.861   6.535   4.802  0.0338 -0.1914  0.0098
 9286TIP3    H127822   4.944   6.556   4.758 -0.5880  1.2320 -0.5644
 9286TIP3    H227823   4.826   6.620   4.827 -1.6838 -0.6973 -0.5734
 9287TIP3   OH227824   6.421   4.772   2.243 -0.0097  0.1478 -0.2472
 9287TIP3    H127825   6.395   4.796   2.153  1.4498 -0.2180 -0.7891
 9287TIP3    H227826   6.509   4.737   2.234 -0.0329 -0.3728  1.2837
 9288TIP3   OH227827   0.378   1.071   0.159 -0.0054  0.1138  0.2520
 9288TIP3    H127828   0.425   1.029   0.087 -0.3095  2.0978 -1.1732
 9288TIP3    H227829   0.409   1.161   0.159  0.8168 -0.0411  3.3658
 9289TIP3   OH227830   0.499   4.835   1.281 -0.1182  0.0813 -0.8810
 9289TIP3    H127831   0.562   4.907   1.275 -0.4140  0.4023 -0.1483
 9289TIP3    H227832   0.510   4.788   1.198  0.5040  0.6109 -1.1119
 9290TIP3   OH227833   0.453   5.063   1.622 -0.3975  0.3443 -0.3172
 9290TIP3    H127834   0.402   4.987   1.591 -1.0212 -0.9739  3.4696
 9290TIP3    H227835   0.539   5.027   1.641 -0.5557  0.6429  1.0455
 9291TIP3   OH227836   7.219   4.461   5.264 -0.2920  0.0423  0.7411
 9291TIP3    H127837   7.169   4.494   5.339  0.0265  2.5807 -0.0484
 9291TIP3    H227838   7.166   4.486   5.188  1.4045  1.4265 -0.0443
 9292TIP3   OH227839   6.745   6.674   1.237 -0.0017 -0.0630  0.0691
 9292TIP3    H127840   6.792   6.693   1.318  1.9914  0.9720 -1.2355
 9292TIP3    H227841   6.723   6.581   1.243 -0.4646  0.1420  2.0425
 9293TIP3   OH227842   0.680   3.517   1.351  0.5947  0.1290 -0.0384
 9293TIP3    H127843   0.650   3.440   1.301 -2.7334  0.2048  1.5491
 9293TIP3    H227844   0.657   3.591   1.295 -0.8735  0.1064  0.4798
 9294TIP3   OH227845   1.512   6.599   2.964  0.1721 -0.1092  0.2067
 9294TIP3    H127846   1.499   6.691   2.943  0.4836 -0.2478 -0.6346
 9294TIP3    H227847   1.492   6.592   3.057  1.8907  1.1427  0.7206
 9295TIP3   OH227848   2.980   4.036   0.240  0.1337 -0.3955 -0.5089
 9295TIP3    H127849   3.062   4.085   0.239  0.2894 -0.5741  1.0134
 9295TIP3    H227850   2.995   3.965   0.302 -1.0670 -0.6231 -0.4438
 9296TIP3   OH227851   2.340   1.628   0.823  0.7533 -0.4095 -0.0202
 9296TIP3    H127852   2.401   1.643   0.751 -0.6647  0.2200 -1.1268
 9296TIP3    H227853   2.304   1.541   0.807  0.7719 -0.4601  0.2052
 9297TIP3   OH227854   0.248   4.462   2.300 -0.2386  1.2607 -0.1324
 9297TIP3    H127855   0.238   4.544   2.349 -1.4232  1.1086 -0.1049
 9297TIP3    H227856   0.171   4.457   2.244 -0.3978 -0.0362  0.1618
 9298TIP3   OH227857   0.080   5.562   4.839  0.0408 -0.2373  0.3005
 9298TIP3    H127858   0.161   5.582   4.793 -0.7020 -1.4684 -1.6955
 9298TIP3    H227859   0.011   5.577   4.774 -1.3773  0.9554  2.0002
 9299TIP3   OH227860   3.270   1.558   2.621  0.2065  0.0091  0.2729
 9299TIP3    H127861   3.337   1.608   2.667  0.0079  1.0740 -0.5324
 9299TIP3    H227862   3.319   1.496   2.567  0.4930 -0.1820  0.7567
 9300TIP3   OH227863   3.613   3.247   2.435 -1.2497 -0.4071 -0.5675
 9300TIP3    H127864   3.578   3.331   2.466 -1.0013 -0.4602 -0.1388
 9300TIP3    H227865   3.631   3.261   2.343 -0.0341  0.4116 -0.2320
 9301TIP3   OH227866   2.191   2.043   4.369  0.8613 -0.5874 -0.2742
 9301TIP3    H127867   2.153   1.962   4.334 -0.8388 -0.3615  0.9140
 9301TIP3    H227868   2.173   2.039   4.463  0.6993  1.1796 -0.1949
 9302TIP3   OH227869   3.860   2.196   1.967  0.2561  0.2477 -0.3990
 9302TIP3    H127870   3.878   2.289   1.984 -0.6610  0.4085 -0.2332
 9302TIP3    H227871   3.799   2.196   1.894  0.8587 -0.2710 -0.9148
 9303TIP3   OH227872   0.714   5.418   3.914  0.2804 -0.2547 -0.5163
 9303TIP3    H127873   0.744   5.350   3.974 -0.7199  0.0521  0.3549
 9303TIP3    H227874   0.778   5.417   3.843 -0.1453 -2.6810 -0.9531
 9304TIP3   OH227875   3.030   2.225   1.531 -0.1030  0.3294  0.1782
 9304TIP3    H127876   3.010   2.211   1.439 -0.1822  1.4890  0.0009
 9304TIP3    H227877   3.122   2.253   1.532 -0.1838  0.5904  0.4195
 9305TIP3   OH227878   1.356   3.575   2.684  0.1097 -0.1500 -0.0575
 9305TIP3    H127879   1.449   3.552   2.688  0.2763  0.5167 -0.0375
 9305TIP3    H227880   1.344   3.641   2.752  0.0800  1.3109 -1.4122
 9306TIP3   OH227881   1.200   2.198   3.756  0.7081  0.7153  0.0036
 9306TIP3    H127882   1.137   2.173   3.689 -1.0595  2.2182  1.0253
 9306TIP3    H227883   1.233   2.283   3.727  1.2798  0.5449  0.1439
 9307TIP3   OH227884   2.913   5.504   3.502 -1.1743 -0.3475 -0.2205
 9307TIP3    H127885   2.877   5.456   3.576 -1.8524 -2.3210 -1.7139
 9307TIP3    H227886   2.949   5.435   3.445 -0.3122  1.1193 -1.5289
 9308TIP3   OH227887   1.371   1.807   2.619 -0.0568 -0.2259  0.1114
 9308TIP3    H127888   1.461   1.784   2.598  0.2329  2.3896 -2.1184
 9308TIP3    H227889   1.375   1.843   2.707  1.0795 -0.1988  0.0595
 9309TIP3   OH227890   4.171   1.467   0.957  0.2929  0.6495  0.0559
 9309TIP3    H127891   4.266   1.474   0.953  0.4190 -1.0257 -1.5073
 9309TIP3    H227892   4.143   1.475   0.866 -0.6305 -2.7423 -0.1151
 9310TIP3   OH227893   2.983   1.070   2.754  0.5486 -0.0162 -0.7571
 9310TIP3    H127894   3.055   1.133   2.765  0.2026  0.5956 -1.7806
 9310TIP3    H227895   2.974   1.029   2.840  0.0961  2.1019  0.2776
 9311TIP3   OH227896   5.908   6.602   3.740  0.1802 -0.2376  0.5495
 9311TIP3    H127897   5.931   6.608   3.647  1.1072 -0.8830  0.7231
 9311TIP3    H227898   5.877   6.690   3.763 -0.7812 -0.2663 -0.5415
 9312TIP3   OH227899   5.209   5.348   4.806 -0.2218 -0.1231  0.0355
 9312TIP3    H127900   5.290   5.398   4.819 -0.9344  0.4087  3.2734
 9312TIP3    H227901   5.231   5.259   4.834 -0.3399 -0.3955 -0.7162
 9313TIP3   OH227902   3.716   0.597   1.656 -0.8992  0.1735 -0.0325
 9313TIP3    H127903   3.800   0.566   1.622 -1.3099 -1.6406  0.5486
 9313TIP3    H227904   3.727   0.692   1.661  1.1168 -0.0166  0.0201
 9314TIP3   OH227905   0.301   6.001   4.204  0.3662  0.0274  0.4945
 9314TIP3    H127906   0.395   6.019   4.214  0.8150 -1.5961 -0.3352
 9314TIP3    H227907   0.294   5.960   4.118 -1.0231 -0.4722  0.8234
 9315TIP3   OH227908   3.080   4.035   5.393 -0.1359  0.1016  0.0360
 9315TIP3    H127909   3.082   3.945   5.361  1.6064  0.4311 -0.9195
 9315TIP3    H227910   3.125   4.031   5.478 -1.2518 -0.1187  0.6387
 9316TIP3   OH227911   0.195   4.940   5.506 -0.0942  0.5697 -0.4487
 9316TIP3    H127912   0.116   4.889   5.494  0.6038 -0.4944 -0.6188
 9316TIP3    H227913   0.209   4.942   5.601 -0.0718  0.3664 -0.4482
 9317TIP3   OH227914   3.234   1.882   2.866  0.5717  0.4263  0.0311
 9317TIP3    H127915   3.206   1.922   2.948  0.3540  1.2715 -0.4395
 9317TIP3    H227916   3.172   1.811   2.851 -0.5252  1.4237 -0.3104
 9318TIP3   OH227917   3.536   6.211   3.564 -0.3093  0.1430 -0.1264
 9318TIP3    H127918   3.617   6.171   3.598  0.7160  1.4893 -0.8948
 9318TIP3    H227919   3.502   6.262   3.638 -0.9193 -1.0716  0.4520
 9319TIP3   OH227920   4.263   0.236   4.080  0.6724  0.0674 -0.0790
 9319TIP3    H127921   4.243   0.325   4.050  3.7243  1.7377  2.1993
 9319TIP3    H227922   4.178   0.198   4.103 -0.5801  3.4949  1.5949
 9320TIP3   OH227923   0.751   2.077   1.361 -0.4294 -0.4442 -0.5811
 9320TIP3    H127924   0.688   2.129   1.413 -0.3097 -2.2084  1.4638
 9320TIP3    H227925   0.700   2.046   1.287 -0.8357  1.4769 -1.1830
 9321TIP3   OH227926   6.563   3.969   1.217 -0.1600  0.3675 -0.1394
 9321TIP3    H127927   6.537   3.877   1.211  1.1425  0.0090 -0.6221
 9321TIP3    H227928   6.564   3.988   1.311 -0.5312 -0.0672 -0.0441
 9322TIP3   OH227929   4.770   0.185   4.766  0.1809 -0.1821 -0.7708
 9322TIP3    H127930   4.684   0.224   4.782 -0.0699 -0.7152 -0.8031
 9322TIP3    H227931   4.790   0.209   4.675 -0.3548 -0.8367 -1.0701
 9323TIP3   OH227932   1.804   1.159   1.988 -0.0836  0.0541 -0.1409
 9323TIP3    H127933   1.839   1.082   2.032 -1.8790 -0.3300  0.6927
 9323TIP3    H227934   1.812   1.229   2.053  0.0784  0.2063 -0.3235
 9324TIP3   OH227935   5.686   2.404   0.387 -0.4578 -0.1147 -0.0111
 9324TIP3    H127936   5.622   2.333   0.375  0.8721 -1.8518  2.3536
 9324TIP3    H227937   5.638   2.472   0.434 -1.3206 -0.1434 -0.8272
 9325TIP3   OH227938   4.733   2.287   0.438  0.5295 -0.2107 -0.2723
 9325TIP3    H127939   4.752   2.210   0.491 -3.0132 -1.2287 -0.2476
 9325TIP3    H227940   4.706   2.354   0.501 -0.6326 -0.4065 -0.5420
 9326TIP3   OH227941   2.361   0.258   0.488 -0.4883 -0.3945  0.1644
 9326TIP3    H127942   2.441   0.293   0.527  0.8179  0.6872 -3.2043
 9326TIP3    H227943   2.390   0.186   0.432 -2.3199 -2.0117  1.1145
 9327TIP3   OH227944   2.763   0.459   0.117  0.1876 -0.3971  0.2583
 9327TIP3    H127945   2.718   0.537   0.086 -2.5617 -1.8528  0.2328
 9327TIP3    H227946   2.741   0.454   0.210 -1.1815 -1.9960 -0.1035
 9328TIP3   OH227947   5.168   4.751   0.269 -0.0713 -0.1522  0.7038
 9328TIP3    H127948   5.163   4.844   0.243 -1.1719 -0.3885  0.0058
 9328TIP3    H227949   5.178   4.704   0.186  0.8921 -0.6439  1.0857
 9329TIP3   OH227950   6.607   6.527   4.151 -0.1787  0.3136  0.0051
 9329TIP3    H127951   6.669   6.600   4.142 -0.1231  0.0475 -2.7391
 9329TIP3    H227952   6.526   6.560   4.111 -1.3421  0.0645  2.0302
 9330TIP3   OH227953   0.264   6.219   0.422 -0.3632 -0.9599 -0.1499
 9330TIP3    H127954   0.353   6.250   0.442 -0.2748 -0.9182 -0.5924
 9330TIP3    H227955   0.215   6.236   0.502 -0.1577 -0.2609 -0.1559
 9331TIP3   OH227956   0.500   0.385   4.706 -0.4018  0.0134 -0.5680
 9331TIP3    H127957   0.565   0.453   4.725  0.5864 -1.0217 -0.0467
 9331TIP3    H227958   0.536   0.340   4.629 -0.5648 -0.4861 -0.3515
 9332TIP3   OH227959   4.039   5.084   1.880  0.4903  0.1195 -0.0908
 9332TIP3    H127960   4.048   5.166   1.928 -0.2628  0.4864 -0.5645
 9332TIP3    H227961   4.062   5.108   1.790 -0.3630 -0.0345 -0.3566
 9333TIP3   OH227962   4.313   5.531   5.633  0.3728 -0.3042 -0.4334
 9333TIP3    H127963   4.406   5.508   5.643  0.4721  0.9689  2.5778
 9333TIP3    H227964   4.309   5.623   5.660 -1.7429 -0.2310 -0.8614
 9334TIP3   OH227965   6.931   0.664   5.767 -0.5562 -0.2932  0.1584
 9334TIP3    H127966   7.023   0.676   5.742 -0.4170  2.5172  1.6665
 9334TIP3    H227967   6.886   0.741   5.731 -1.8798 -0.4630  1.3758
 9335TIP3   OH227968   6.719   1.425   5.395  0.2187 -0.5656 -0.1971
 9335TIP3    H127969   6.785   1.373   5.350 -0.2727 -0.0126 -1.6102
 9335TIP3    H227970   6.642   1.368   5.398 -0.1290 -0.1722 -1.1961
 9336TIP3   OH227971   6.393   0.417   5.871  0.3802  0.2389  0.3159
 9336TIP3    H127972   6.330   0.437   5.941  1.0629  0.6321  0.8220
 9336TIP3    H227973   6.430   0.502   5.846  0.3998  0.0584 -0.2796
 9337TIP3   OH227974   2.277   5.296   5.762 -0.1670 -0.3093  0.2091
 9337TIP3    H127975   2.281   5.278   5.856  1.2412  2.8341  0.8795
 9337TIP3    H227976   2.205   5.358   5.752  1.2835  1.3595 -0.3268
 9338TIP3   OH227977   2.357   4.857   0.186 -0.4920 -0.5524  0.2886
 9338TIP3    H127978   2.371   4.777   0.134 -0.2782 -0.5444  0.3306
 9338TIP3    H227979   2.411   4.843   0.264  2.4989  1.1561 -1.2787
 9339TIP3   OH227980   5.808   0.206   4.164  0.1320 -0.0386 -0.1575
 9339TIP3    H127981   5.753   0.246   4.097  1.1678 -1.4888 -1.9798
 9339TIP3    H227982   5.777   0.244   4.247 -2.3430  0.5594 -1.2617
 9340TIP3   OH227983   4.820   6.676   4.149  0.1810 -0.1925 -0.0396
 9340TIP3    H127984   4.867   6.714   4.075  0.6279 -1.1966 -0.2857
 9340TIP3    H227985   4.888   6.664   4.216 -0.6291  3.2666  1.6784
 9341TIP3   OH227986   3.103   2.680   2.080  0.3581  0.3500  0.5260
 9341TIP3    H127987   3.114   2.720   2.167 -1.0444  0.8800  0.4783
 9341TIP3    H227988   3.024   2.627   2.088  0.7098 -0.2883 -0.1886
 9342TIP3   OH227989   3.267   3.149   3.649  0.2350 -0.0497 -0.1998
 9342TIP3    H127990   3.315   3.189   3.577 -0.5933  0.7211 -0.3423
 9342TIP3    H227991   3.178   3.137   3.614  0.4109 -1.8854 -0.1097
 9343TIP3   OH227992   5.684   6.048   0.520 -0.0305 -0.1430  0.4479
 9343TIP3    H127993   5.774   6.018   0.503 -0.4629 -0.9951 -0.4104
 9343TIP3    H227994   5.659   6.092   0.438 -0.5089 -0.1896  0.5707
 9344TIP3   OH227995   3.946   1.496   1.942 -0.5470 -0.3953  0.7331
 9344TIP3    H127996   4.005   1.572   1.940 -0.9628 -0.0736 -0.3818
 9344TIP3    H227997   3.880   1.519   2.008  0.7500 -0.9268  2.2772
 9345TIP3   OH227998   5.822   5.944   5.270 -0.1961 -0.0635 -0.7612
 9345TIP3    H127999   5.816   5.931   5.176  1.2093 -1.8966 -0.6551
 9345TIP3    H228000   5.897   6.003   5.281 -0.4455  0.2591 -0.8035
 9346TIP3   OH228001   6.261   1.727   2.947  0.7483 -0.5123 -0.3675
 9346TIP3    H128002   6.237   1.768   3.030  1.8492 -0.8049  0.1124
 9346TIP3    H228003   6.318   1.655   2.971  2.0278  0.0846 -1.4276
 9347TIP3   OH228004   1.681   1.163   4.490  0.6179  0.0849 -0.0843
 9347TIP3    H128005   1.663   1.149   4.583 -1.3220  0.8734 -0.2935
 9347TIP3    H228006   1.730   1.245   4.487 -0.3960  0.7181  0.1852
 9348TIP3   OH228007   4.940   0.414   5.469 -0.3882 -0.1756  0.5123
 9348TIP3    H128008   4.979   0.495   5.504  1.0456 -0.4344 -0.3910
 9348TIP3    H228009   5.013   0.352   5.467 -1.2475 -1.1988  0.2683
 9349TIP3   OH228010   5.623   6.237   2.350  0.6234 -0.3151  0.1465
 9349TIP3    H128011   5.597   6.149   2.377 -2.0531 -0.3346 -2.0382
 9349TIP3    H228012   5.546   6.291   2.368  1.4772  1.1449 -0.4397
 9350TIP3   OH228013   3.115   5.133   4.973 -0.3829 -0.0944 -0.1891
 9350TIP3    H128014   3.071   5.061   5.018  0.4367  0.8305  2.2697
 9350TIP3    H228015   3.059   5.209   4.989  0.3682  0.4227  0.0445
 9351TIP3   OH228016   6.477   1.814   1.548 -0.0650  0.3803  0.0610
 9351TIP3    H128017   6.514   1.772   1.626  1.1968  1.7165  0.2452
 9351TIP3    H228018   6.415   1.751   1.513 -0.8535 -0.1732  2.2799
 9352TIP3   OH228019   3.080   4.911   3.290 -0.2839  0.0698 -0.0429
 9352TIP3    H128020   3.011   4.845   3.284 -0.6384  0.4479 -0.1690
 9352TIP3    H228021   3.038   4.986   3.333  0.2512  0.0329  0.5610
 9353TIP3   OH228022   1.209   6.038   1.644  0.6597 -0.0758 -0.2421
 9353TIP3    H128023   1.163   6.117   1.618  0.6673 -0.2733 -0.8703
 9353TIP3    H228024   1.241   6.056   1.732 -0.8318 -0.0188  0.3225
 9354TIP3   OH228025   1.895   3.037   1.767  0.1202 -0.4150 -0.1743
 9354TIP3    H128026   1.800   3.038   1.756  0.0155  1.0147  0.6167
 9354TIP3    H228027   1.929   3.001   1.685 -1.0591  0.0466 -0.8839
 9355TIP3   OH228028   3.512   1.757   4.249 -0.2618  0.0666 -0.1050
 9355TIP3    H128029   3.443   1.819   4.274  2.1335  3.6820 -1.6582
 9355TIP3    H228030   3.503   1.750   4.154  1.6490  0.9343 -0.3870
 9356TIP3   OH228031   0.101   5.576   2.897  0.0793 -0.4717 -0.0232
 9356TIP3    H128032   0.162   5.595   2.968 -0.3419  0.8011  0.0201
 9356TIP3    H228033   0.032   5.641   2.906 -1.6773 -2.2767  0.3316
 9357TIP3   OH228034   0.459   4.853   5.302 -0.3555 -0.7064 -0.1359
 9357TIP3    H128035   0.529   4.898   5.351  0.1430 -1.3829 -0.1997
 9357TIP3    H228036   0.378   4.889   5.337  0.0230 -0.2298  0.2637
 9358TIP3   OH228037   6.383   5.839   1.238  0.2646  0.0170 -0.2757
 9358TIP3    H128038   6.347   5.777   1.175 -0.2019 -0.7479  0.7097
 9358TIP3    H228039   6.473   5.809   1.254 -0.4814 -1.4967  1.4720
 9359TIP3   OH228040   2.613   4.219   0.042 -0.5936  0.5654 -0.2754
 9359TIP3    H128041   2.673   4.204  -0.032  2.0973  2.6638  1.2834
 9359TIP3    H228042   2.629   4.146   0.102  1.1121  1.5133  0.4884
 9360TIP3   OH228043   1.082   5.346   0.806 -0.2051  0.0945 -0.7883
 9360TIP3    H128044   0.997   5.315   0.776  0.0295 -0.1737 -1.1883
 9360TIP3    H228045   1.141   5.272   0.792 -0.1271 -0.1194  0.5541
 9361TIP3   OH228046   0.209   4.227   0.200 -0.0103 -0.0926  0.6781
 9361TIP3    H128047   0.257   4.160   0.152 -1.0463 -0.2706 -0.1389
 9361TIP3    H228048   0.137   4.252   0.142 -0.7965  0.3015  1.7858
 9362TIP3   OH228049   6.526   5.774   4.882 -0.2013 -0.1098  0.2761
 9362TIP3    H128050   6.564   5.761   4.969  0.6208  0.9314  0.0922
 9362TIP3    H228051   6.479   5.857   4.889  0.1651  0.1596 -0.3555
 9363TIP3   OH228052   4.334   3.437   0.900  0.4124  0.5786 -0.1336
 9363TIP3    H128053   4.244   3.453   0.871  0.5850  1.2002 -0.3350
 9363TIP3    H228054   4.369   3.524   0.919  0.3481  0.2136  1.8760
 9364TIP3   OH228055   5.401   4.417   5.692 -0.2624  0.2161  0.0382
 9364TIP3    H128056   5.420   4.401   5.785  2.5893 -0.7229 -0.6136
 9364TIP3    H228057   5.318   4.373   5.677 -0.8479  0.4937  2.1598
 9365TIP3   OH228058   1.028   3.541   0.476 -0.1596  0.2192  0.3174
 9365TIP3    H128059   1.106   3.572   0.522 -0.8227 -0.7781  2.2284
 9365TIP3    H228060   0.970   3.510   0.545 -1.8503  0.0018 -1.1205
 9366TIP3   OH228061   2.850   4.530   1.197 -0.4072  0.4906 -0.0770
 9366TIP3    H128062   2.893   4.506   1.115  1.2277 -1.2751  1.1934
 9366TIP3    H228063   2.900   4.604   1.231  0.4986 -0.3382  0.4623
 9367TIP3   OH228064   2.078   4.246   2.988  0.1805 -0.1584 -0.5181
 9367TIP3    H128065   2.019   4.182   2.947 -1.6133 -0.4791  2.3023
 9367TIP3    H228066   2.063   4.327   2.940 -1.3698 -0.6546 -0.9203
 9368TIP3   OH228067   6.796   5.890   0.683  0.7440 -0.4340  0.3370
 9368TIP3    H128068   6.793   5.818   0.747  1.2268 -0.2654  0.5549
 9368TIP3    H228069   6.787   5.846   0.598 -1.9913 -0.5019  0.5514
 9369TIP3   OH228070  -0.013   3.506   5.567  0.0681  0.7096 -0.2562
 9369TIP3    H128071  -0.013   3.482   5.474  0.3798  1.1933 -0.3840
 9369TIP3    H228072   0.073   3.480   5.598 -0.5416 -0.8132  0.2686
 9370TIP3   OH228073   0.335   0.278   2.357 -0.4184 -0.0854  0.3231
 9370TIP3    H128074   0.247   0.313   2.346 -0.1091  0.6509  0.1195
 9370TIP3    H228075   0.391   0.355   2.364  0.1673 -0.5444  0.8245
 9371TIP3   OH228076   5.776   6.420   2.581  0.8416  0.0521  0.6811
 9371TIP3    H128077   5.771   6.342   2.637 -0.3240 -0.3227  0.0810
 9371TIP3    H228078   5.690   6.462   2.591  0.6501  0.0373 -0.7304
 9372TIP3   OH228079   6.735   2.360   1.726  0.6013  0.5326  0.5049
 9372TIP3    H128080   6.766   2.330   1.811  0.1445  2.2363  1.3316
 9372TIP3    H228081   6.795   2.322   1.663  1.8170  0.3784  1.7206
 9373TIP3   OH228082   5.256   2.850   4.774 -0.5527  0.0540 -0.2678
 9373TIP3    H128083   5.217   2.863   4.687  0.1641  1.5183 -0.4076
 9373TIP3    H228084   5.253   2.937   4.814  0.1113 -0.3755  0.7512
 9374TIP3   OH228085   6.060   5.798   0.633  0.0514 -0.2313 -0.4723
 9374TIP3    H128086   5.992   5.817   0.569  0.3724  1.4255 -0.3821
 9374TIP3    H228087   6.142   5.809   0.585  0.2679 -1.1674 -0.3215
 9375TIP3   OH228088   3.567   6.165   2.015 -0.2436  0.6588  0.3543
 9375TIP3    H128089   3.541   6.223   2.086 -1.4658 -0.1850  0.6424
 9375TIP3    H228090   3.497   6.173   1.950 -0.3102 -0.2919  0.2940
 9376TIP3   OH228091   4.441   4.439   5.040 -0.2045 -0.5509  0.3931
 9376TIP3    H128092   4.397   4.381   4.977 -0.0103 -0.9799  0.6521
 9376TIP3    H228093   4.524   4.397   5.058  0.3883  0.3368 -0.1965
 9377TIP3   OH228094   3.368   4.828   1.116 -0.1045 -0.0053  0.3014
 9377TIP3    H128095   3.455   4.862   1.140 -0.4669  0.5357  0.8513
 9377TIP3    H228096   3.338   4.782   1.194  0.4149 -1.7241 -0.4503
 9378TIP3   OH228097   2.188   3.135   4.750  0.2109 -0.1586 -0.3793
 9378TIP3    H128098   2.268   3.136   4.697  0.8494 -2.3347  0.4197
 9378TIP3    H228099   2.213   3.183   4.829  0.9953 -1.3526  0.1383
 9379TIP3   OH228100   5.677   1.233   5.650  0.6632 -0.4655  0.1856
 9379TIP3    H128101   5.708   1.145   5.670 -0.1008 -0.5330  1.1747
 9379TIP3    H228102   5.593   1.220   5.607 -0.1656 -0.2146  1.6749
 9380TIP3   OH228103   5.775   3.907   1.416  0.1519  0.1188 -0.6015
 9380TIP3    H128104   5.702   3.846   1.405  0.4071 -0.1133 -1.0456
 9380TIP3    H228105   5.808   3.890   1.504  1.7117 -2.0571 -1.5103
 9381TIP3   OH228106   6.161   5.084   2.508  0.7012 -0.5260  0.7512
 9381TIP3    H128107   6.166   5.155   2.444  0.1569 -0.6864  0.5283
 9381TIP3    H228108   6.068   5.073   2.525  0.6505 -2.1096 -0.2684
 9382TIP3   OH228109   6.245   6.704   1.973  0.4187  0.7437 -0.4670
 9382TIP3    H128110   6.230   6.706   2.067  1.1830 -0.4810 -0.2873
 9382TIP3    H228111   6.163   6.671   1.936  0.5620 -0.0595 -0.0913
 9383TIP3   OH228112   7.064   4.873   1.552 -0.8398  0.1396  1.0514
 9383TIP3    H128113   7.038   4.883   1.643 -1.9545  2.0346  0.5986
 9383TIP3    H228114   7.007   4.804   1.518 -0.7967 -0.1930  1.6430
 9384TIP3   OH228115   3.804   1.519   4.940 -0.1263  0.5127  1.0474
 9384TIP3    H128116   3.873   1.455   4.959 -1.2475 -0.5198  1.7076
 9384TIP3    H228117   3.785   1.559   5.024 -2.5027 -1.4535  1.5672
 9385TIP3   OH228118   7.035   5.811   0.997  0.2170  0.5265 -0.1587
 9385TIP3    H128119   7.081   5.840   0.918  0.8715 -0.4531 -0.1548
 9385TIP3    H228120   6.962   5.758   0.964  0.7185 -0.2087 -0.1133
 9386TIP3   OH228121   0.244   4.627   1.583 -0.4080 -0.2785  0.1110
 9386TIP3    H128122   0.181   4.631   1.654  0.1002 -0.9730  0.6227
 9386TIP3    H228123   0.247   4.534   1.558 -0.9069  0.0153 -1.1260
 9387TIP3   OH228124   2.155   3.162   1.775  0.6224  0.1630 -0.1242
 9387TIP3    H128125   2.191   3.085   1.730 -1.9096 -0.9498 -0.4345
 9387TIP3    H228126   2.063   3.165   1.748 -0.0829  1.6372  2.1166
 9388TIP3   OH228127   1.540   2.492   3.354 -0.4381 -0.0830 -0.2861
 9388TIP3    H128128   1.445   2.494   3.343 -0.6006 -0.4871  0.8622
 9388TIP3    H228129   1.559   2.573   3.401  0.3499  2.1085 -3.9925
 9389TIP3   OH228130   1.269   2.487   3.134  0.3600 -1.0174 -0.1534
 9389TIP3    H128131   1.346   2.537   3.109  0.4846 -0.9818  0.2984
 9389TIP3    H228132   1.240   2.526   3.216 -0.1396 -1.0299 -0.3171
 9390TIP3   OH228133   1.436   4.355   3.121 -0.0930  0.1252 -0.2616
 9390TIP3    H128134   1.344   4.365   3.145  0.3510 -0.1303  1.7293
 9390TIP3    H228135   1.462   4.441   3.089 -0.9077  0.3240 -0.4031
 9391TIP3   OH228136   2.009   6.436   0.059 -0.1110  0.4924  0.1023
 9391TIP3    H128137   1.998   6.357   0.112 -0.7860 -0.2430 -1.0738
 9391TIP3    H228138   1.987   6.408  -0.030  2.7013  1.2101 -0.9237
 9392TIP3   OH228139   4.514   1.748   0.932 -0.4261 -0.5496  0.6223
 9392TIP3    H128140   4.595   1.739   0.883 -0.7948 -0.2436 -0.0508
 9392TIP3    H228141   4.521   1.833   0.975 -1.3534  0.5370 -1.2740
 9393TIP3   OH228142   1.044   3.561   2.256 -0.4786  0.0602 -0.5035
 9393TIP3    H128143   1.008   3.611   2.182  2.4886  0.9455 -1.4591
 9393TIP3    H228144   1.133   3.594   2.267  0.0861 -1.9347  1.7846
 9394TIP3   OH228145   7.067   0.810   5.179 -0.2087  0.0833 -0.7407
 9394TIP3    H128146   7.071   0.823   5.084 -0.5410  0.7354 -0.6679
 9394TIP3    H228147   7.057   0.716   5.189  2.5478 -0.3670 -1.2805
 9395TIP3   OH228148   1.403   1.077   5.498  0.2459  0.2747 -0.5710
 9395TIP3    H128149   1.492   1.083   5.463  0.2919  0.3453 -0.4410
 9395TIP3    H228150   1.402   0.997   5.550  0.3190  0.4327 -0.3262
 9396TIP3   OH228151   1.602   5.460   1.223 -0.2056 -0.0810  0.3746
 9396TIP3    H128152   1.589   5.453   1.128  0.4488 -2.7428  0.4079
 9396TIP3    H228153   1.516   5.441   1.261 -0.0036 -1.0995  0.3345
 9397TIP3   OH228154   4.416   4.666   3.992  0.1714  0.2458  0.5837
 9397TIP3    H128155   4.384   4.659   4.081  0.5087 -2.6627  0.5602
 9397TIP3    H228156   4.505   4.700   4.001  0.2115 -0.0454  1.3541
 9398TIP3   OH228157   1.893   3.347   0.613 -0.2027 -0.1923  0.0972
 9398TIP3    H128158   1.942   3.267   0.631  1.0974  1.0360  2.5573
 9398TIP3    H228159   1.832   3.355   0.686  0.1369  1.3596  0.2478
 9399TIP3   OH228160   6.307   2.711   1.556 -0.0026  0.1236  0.0521
 9399TIP3    H128161   6.308   2.615   1.556  0.8633  0.1197 -0.5890
 9399TIP3    H228162   6.232   2.734   1.611  0.6301 -0.9042  1.3942
 9400TIP3   OH228163   6.066   2.328   0.386 -0.4463 -0.3942  0.2345
 9400TIP3    H128164   6.018   2.358   0.309  1.5781 -0.8824 -1.2985
 9400TIP3    H228165   6.022   2.247   0.412 -2.3333  0.7452  0.8592
 9401TIP3   OH228166   4.071   1.592   3.702 -0.6234  0.1358 -0.1703
 9401TIP3    H128167   4.018   1.569   3.626  0.3565  0.2761 -0.9267
 9401TIP3    H228168   4.008   1.606   3.773 -1.4265 -2.0700 -0.3895
 9402TIP3   OH228169   3.242   5.023   3.044  0.1056 -0.2810  0.0820
 9402TIP3    H128170   3.321   4.973   3.026  0.3136 -0.8666  2.2530
 9402TIP3    H228171   3.215   4.994   3.131 -2.4652 -0.0307 -0.5498
 9403TIP3   OH228172   4.024   0.579   0.051 -0.4673 -0.2762 -0.1808
 9403TIP3    H128173   3.949   0.519   0.048 -0.7719  0.0631  0.4030
 9403TIP3    H228174   4.035   0.599   0.144  1.4043 -1.6062 -0.0593
 9404TIP3   OH228175   5.285   0.195   0.374 -0.4596  0.1267 -0.2210
 9404TIP3    H128176   5.352   0.198   0.442 -1.1049  0.1857  0.4262
 9404TIP3    H228177   5.262   0.103   0.366  0.3369 -0.0083 -1.0932
 9405TIP3   OH228178   5.484   2.068   0.029  0.3712  0.0121 -0.4499
 9405TIP3    H128179   5.442   2.154   0.040 -0.7601 -0.6790  1.0507
 9405TIP3    H228180   5.459   2.040  -0.059 -2.5626 -0.4085  0.4043
 9406TIP3   OH228181   1.232   6.075   5.476  0.2722 -0.2376 -0.0761
 9406TIP3    H128182   1.276   6.117   5.402 -1.0561 -0.0782 -0.8156
 9406TIP3    H228183   1.302   6.059   5.540  1.1457  1.3410 -0.5706
 9407TIP3   OH228184   6.954   0.291   3.996 -0.5883  0.2026  0.4187
 9407TIP3    H128185   7.011   0.368   3.998  0.5268 -0.4334 -2.4008
 9407TIP3    H228186   6.972   0.245   4.078  1.5148  1.0243  0.4701
 9408TIP3   OH228187   2.367   2.958   3.151 -0.4440 -0.1977 -0.6493
 9408TIP3    H128188   2.290   2.961   3.094 -0.8062  1.5296 -0.1313
 9408TIP3    H228189   2.330   2.952   3.240  0.0441 -0.3206 -0.4502
 9409TIP3   OH228190   3.103   4.869   0.296 -0.2508 -0.2145  0.0653
 9409TIP3    H128191   3.136   4.851   0.208 -1.6515 -1.5905 -0.2431
 9409TIP3    H228192   3.181   4.876   0.351  0.5904 -1.3844 -0.9374
 9410TIP3   OH228193   3.581   0.533   3.611 -0.2427  0.6242  0.5184
 9410TIP3    H128194   3.661   0.493   3.646  1.1522  0.6422 -2.3353
 9410TIP3    H228195   3.519   0.461   3.604  0.5755 -0.0362 -0.0431
 9411TIP3   OH228196   4.603   6.009   2.999 -0.5809  0.0536  0.4469
 9411TIP3    H128197   4.661   6.072   3.042  0.7551  1.8413 -3.4928
 9411TIP3    H228198   4.660   5.935   2.977 -1.1657 -0.6887  1.3494
 9412TIP3   OH228199   6.274   1.393   5.689 -0.3192  0.1338  0.3910
 9412TIP3    H128200   6.289   1.438   5.772  0.2083 -3.1782  2.2571
 9412TIP3    H228201   6.362   1.371   5.657 -0.5774 -0.0222 -0.2266
 9413TIP3   OH228202   7.051   1.279   4.414 -0.0505 -0.3927  0.0559
 9413TIP3    H128203   6.962   1.287   4.378  0.2457  0.3161 -0.5497
 9413TIP3    H228204   7.076   1.188   4.395  0.8095  0.4136 -3.3737
 9414TIP3   OH228205   2.072   1.787   4.315  0.1636 -0.3185 -0.0330
 9414TIP3    H128206   2.004   1.825   4.372  0.9632  1.0132  0.0819
 9414TIP3    H228207   2.048   1.695   4.307 -1.8508  0.1923 -0.2797
 9415TIP3   OH228208   6.948   1.256   4.914  0.2469  0.0001  0.6781
 9415TIP3    H128209   6.969   1.192   4.845  0.2815 -0.0872  0.7692
 9415TIP3    H228210   6.885   1.315   4.873  2.3795  1.6747 -0.3561
 9416TIP3   OH228211   5.283   2.392   2.016 -0.0066 -0.0799 -0.1284
 9416TIP3    H128212   5.199   2.427   1.987  0.2436  1.3534  0.7541
 9416TIP3    H228213   5.346   2.463   1.999  1.0866 -1.2269 -1.0116
 9417TIP3   OH228214   1.488   5.769   5.338 -0.1532  0.6486  0.2119
 9417TIP3    H128215   1.498   5.841   5.275  1.9035  2.4897  2.4586
 9417TIP3    H228216   1.508   5.809   5.423 -4.5573 -1.2140  2.4490
 9418TIP3   OH228217   1.099   4.014   1.762 -0.8070 -0.2988  0.2305
 9418TIP3    H128218   1.084   3.926   1.797  2.6791 -1.2038 -0.1673
 9418TIP3    H228219   1.079   4.008   1.669  1.0049 -1.2037 -0.1300
 9419TIP3   OH228220   1.588   0.184   4.017 -0.3092 -0.4669 -0.3364
 9419TIP3    H128221   1.510   0.153   3.971 -1.1711  1.8902 -0.6517
 9419TIP3    H228222   1.602   0.272   3.982 -0.5757  1.1975  3.2431
 9420TIP3   OH228223   6.017   1.102   3.213 -0.4173 -0.0392  0.0494
 9420TIP3    H128224   6.043   1.011   3.201  0.2193  0.1610 -0.1836
 9420TIP3    H228225   5.999   1.110   3.306  0.5416 -0.1614  0.2612
 9421TIP3   OH228226   3.854   4.826   3.194 -0.1430  0.1964 -0.1030
 9421TIP3    H128227   3.931   4.872   3.227 -1.6544  1.5761  1.7165
 9421TIP3    H228228   3.840   4.863   3.107 -0.1984  1.8326  0.5605
 9422TIP3   OH228229   2.352   3.370   1.442 -0.2204 -0.1244 -0.3645
 9422TIP3    H128230   2.296   3.425   1.497 -0.1974  0.7282 -1.1648
 9422TIP3    H228231   2.333   3.399   1.353 -0.0410 -1.2817 -0.7923
 9423TIP3   OH228232   2.181   2.233   1.579 -0.0681 -0.0636  0.2357
 9423TIP3    H128233   2.194   2.324   1.552  0.9450 -0.3930 -0.4619
 9423TIP3    H228234   2.100   2.234   1.631 -0.4854  1.0996 -0.3997
 9424TIP3   OH228235   2.978   1.487   0.571 -0.1238  0.2002  0.3736
 9424TIP3    H128236   2.946   1.499   0.661 -1.6488  1.2045 -0.2623
 9424TIP3    H228237   2.964   1.572   0.529 -0.7194 -0.6241 -1.1881
 9425TIP3   OH228238   5.136   2.891   0.203  0.3505  0.0125  0.9267
 9425TIP3    H128239   5.085   2.840   0.140 -0.8841  0.6223  1.4184
 9425TIP3    H228240   5.212   2.836   0.221  0.6039 -0.2952 -0.8789
 9426TIP3   OH228241   5.319   0.704   1.832  0.3203  0.0411  0.2016
 9426TIP3    H128242   5.366   0.690   1.750 -0.5828  1.1741 -0.5311
 9426TIP3    H228243   5.240   0.651   1.825  1.0868 -1.3189  1.1512
 9427TIP3   OH228244   5.105   0.260   3.121  0.1634 -0.1363  0.0359
 9427TIP3    H128245   5.116   0.205   3.043  1.1974 -0.7902  0.6211
 9427TIP3    H228246   5.167   0.331   3.109  0.7528 -0.5576  0.5256
 9428TIP3   OH228247   4.873   3.175   4.490  0.0320  0.7755 -0.2789
 9428TIP3    H128248   4.840   3.235   4.423 -1.7671  0.3644  0.1815
 9428TIP3    H228249   4.888   3.093   4.443  1.5551  1.2727 -0.7140
 9429TIP3   OH228250   0.341   3.458   1.232 -0.0881 -0.0275 -0.1448
 9429TIP3    H128251   0.436   3.460   1.224  0.0719  1.1830  1.5432
 9429TIP3    H228252   0.311   3.538   1.189 -0.2457  0.0788  0.1529
 9430TIP3   OH228253   5.690   5.423   2.172  0.1170 -0.4279 -0.0530
 9430TIP3    H128254   5.605   5.380   2.162  0.9839 -1.9448 -1.4244
 9430TIP3    H228255   5.699   5.477   2.094 -1.1103  2.6959  1.8187
 9431TIP3   OH228256   3.602   3.436   2.222  0.6576  0.5913 -0.6580
 9431TIP3    H128257   3.588   3.394   2.137  1.3402 -0.0711 -0.4570
 9431TIP3    H228258   3.523   3.488   2.237 -0.8975 -1.7353 -0.2518
 9432TIP3   OH228259   3.654   1.839   0.620  0.2968  0.0324 -0.3273
 9432TIP3    H128260   3.579   1.824   0.563  0.6891  0.4559 -0.9734
 9432TIP3    H228261   3.623   1.903   0.685 -0.7517 -1.9126  1.1875
 9433TIP3   OH228262   1.696   3.702   1.030 -0.7322  0.6440 -0.1498
 9433TIP3    H128263   1.767   3.679   1.090 -0.7284  2.4530  0.6235
 9433TIP3    H228264   1.618   3.706   1.086 -0.7649  2.1497 -0.2493
 9434TIP3   OH228265   3.774   0.527   4.136 -0.3886  0.4880  0.5505
 9434TIP3    H128266   3.851   0.584   4.128  0.2651 -0.4128  0.2971
 9434TIP3    H228267   3.792   0.474   4.213 -0.0646 -0.7450 -0.3508
 9435TIP3   OH228268   5.506   3.902   0.316 -0.1280  0.5369 -0.0955
 9435TIP3    H128269   5.524   3.908   0.410  0.0043 -0.6675 -0.0306
 9435TIP3    H228270   5.429   3.847   0.310 -0.3120  0.8534 -0.6883
 9436TIP3   OH228271   4.222   2.005   3.934  0.2513  0.5414  0.5260
 9436TIP3    H128272   4.188   1.965   3.854  1.3363 -0.2538  0.4344
 9436TIP3    H228273   4.299   1.952   3.956 -1.8245 -1.3912  3.9521
 9437TIP3   OH228274   6.008   6.616   2.579  0.1103 -0.3706  0.2000
 9437TIP3    H128275   5.932   6.567   2.547  0.1788 -0.0776 -0.4168
 9437TIP3    H228276   5.977   6.657   2.660 -0.1206 -0.9665  0.4221
 9438TIP3   OH228277   4.867   0.221   1.035  0.4464  0.2319  0.1249
 9438TIP3    H128278   4.902   0.148   0.985  0.5596  1.2382 -1.3118
 9438TIP3    H228279   4.913   0.298   1.001 -0.5185  1.1224  0.7789
 9439TIP3   OH228280   1.698   6.722   3.228 -0.0122  0.5558  0.2562
 9439TIP3    H128281   1.702   6.627   3.234 -0.5486  0.4514 -0.7581
 9439TIP3    H228282   1.722   6.741   3.137 -0.0506  1.3736  0.4105
 9440TIP3   OH228283   3.213   2.864   3.742 -0.3557  0.6424  0.4477
 9440TIP3    H128284   3.261   2.892   3.820 -2.9134  1.4436  1.8203
 9440TIP3    H228285   3.229   2.934   3.678  0.9504  0.4593  0.5295
 9441TIP3   OH228286   3.863   5.069   5.744  0.3349 -0.0683 -0.1872
 9441TIP3    H128287   3.941   5.067   5.799  1.0928  1.7792 -1.1099
 9441TIP3    H228288   3.809   5.139   5.781  0.7806  1.0852 -1.6421
 9442TIP3   OH228289   4.581   0.742   0.572 -0.1010 -0.0063  0.8603
 9442TIP3    H128290   4.520   0.668   0.566 -1.5247  1.2249 -1.2792
 9442TIP3    H228291   4.546   0.795   0.644 -1.7512  0.7442 -0.4123
 9443TIP3   OH228292   4.122   6.533   5.839  0.0129  0.0523  0.1169
 9443TIP3    H128293   4.101   6.621   5.809  0.9216  1.0614  2.1975
 9443TIP3    H228294   4.203   6.510   5.793 -0.4644  0.1107 -0.7608
 9444TIP3   OH228295   1.417   0.196   4.998  0.1549 -0.1590 -0.2673
 9444TIP3    H128296   1.465   0.253   4.938  0.2904  1.8400  1.6059
 9444TIP3    H228297   1.486   0.153   5.050  0.0296  1.1046  1.0084
 9445TIP3   OH228298   4.567   0.500   4.222 -0.2694  0.5451  0.2596
 9445TIP3    H128299   4.643   0.464   4.177 -0.5411  0.3757 -0.0727
 9445TIP3    H228300   4.509   0.528   4.151 -0.3749  0.9755  0.5114
 9446TIP3   OH228301   6.424   5.201   2.533 -0.2434 -0.8427  0.7902
 9446TIP3    H128302   6.349   5.257   2.511  0.7864 -0.0306 -0.8655
 9446TIP3    H228303   6.477   5.200   2.453  0.7049 -2.7219  1.3863
 9447TIP3   OH228304   1.960   5.507   0.522  0.0805  0.5197 -0.4086
 9447TIP3    H128305   1.876   5.521   0.479 -1.3179 -0.6053  1.7927
 9447TIP3    H228306   1.992   5.424   0.487 -1.9534 -1.3625  1.9084
 9448TIP3   OH228307   2.677   5.129   3.951 -0.3312 -0.0657  0.0486
 9448TIP3    H128308   2.766   5.166   3.958 -0.0577 -0.9395  1.6238
 9448TIP3    H228309   2.648   5.154   3.863  1.0673  1.1301 -0.1220
 9449TIP3   OH228310   6.126   4.630   2.367  0.5053 -0.3632 -0.3674
 9449TIP3    H128311   6.215   4.662   2.353  0.2104  0.3551 -0.6572
 9449TIP3    H228312   6.080   4.705   2.405  0.1681 -0.9150  0.3387
 9450TIP3   OH228313   6.353   3.579   1.892  0.0702 -0.0874  0.2080
 9450TIP3    H128314   6.329   3.650   1.951 -2.1988 -1.2593  0.8373
 9450TIP3    H228315   6.306   3.596   1.811  3.7120  1.8952 -1.7723
 9451TIP3   OH228316   4.023   2.558   4.402 -0.3273 -0.1881  0.1652
 9451TIP3    H128317   4.118   2.565   4.412 -0.3208  0.4140 -0.2744
 9451TIP3    H228318   3.989   2.565   4.492  0.0595 -0.8697  0.3770
 9452TIP3   OH228319   2.575   6.070   5.819 -0.1097 -0.2057 -0.2494
 9452TIP3    H128320   2.492   6.063   5.771 -0.8639  1.9762  0.6446
 9452TIP3    H228321   2.576   5.993   5.876 -2.2198  0.4191  0.7227
 9453TIP3   OH228322   2.463   2.741   2.881  0.3750 -0.6247 -0.0658
 9453TIP3    H128323   2.420   2.827   2.882 -0.7018 -1.1580  0.5144
 9453TIP3    H228324   2.505   2.736   2.795 -1.4163 -0.4202 -1.0001
 9454TIP3   OH228325   0.580   4.490   1.796  0.2206  0.2690 -0.0089
 9454TIP3    H128326   0.596   4.507   1.889 -1.0765 -1.0050  0.4775
 9454TIP3    H228327   0.495   4.530   1.778 -0.1052 -0.5362 -0.3168
 9455TIP3   OH228328   0.085   6.758   5.481 -0.0140  0.9104 -0.2130
 9455TIP3    H128329  -0.009   6.740   5.486 -0.2929  2.2814 -0.0982
 9455TIP3    H228330   0.122   6.681   5.438 -0.9717 -0.3075  1.0504
 9456TIP3   OH228331   5.279   1.653   5.849 -0.3556  0.2960 -0.3778
 9456TIP3    H128332   5.309   1.649   5.758  1.2648  0.5299  0.1121
 9456TIP3    H228333   5.184   1.663   5.842 -0.8037 -3.3479 -2.0179
 9457TIP3   OH228334   6.522   3.150   3.098  0.0652 -0.0269 -0.0219
 9457TIP3    H128335   6.528   3.096   3.177  1.5135  0.5746  0.3055
 9457TIP3    H228336   6.530   3.240   3.130 -0.8113  0.3074 -0.7152
 9458TIP3   OH228337   4.729   4.040   5.548 -0.0315  0.1582 -0.5726
 9458TIP3    H128338   4.704   3.947   5.543 -2.8681  0.7087  1.2355
 9458TIP3    H228339   4.678   4.082   5.479 -0.5351  0.6873  0.1213
 9459TIP3   OH228340   4.407   4.085   2.999 -0.3113  0.1156 -0.0171
 9459TIP3    H128341   4.476   4.027   3.031 -0.3659  0.1186  0.1073
 9459TIP3    H228342   4.336   4.026   2.974 -0.2830  0.1151 -0.0939
 9460TIP3   OH228343   6.422   0.141   2.570 -0.3040  0.2431  0.5866
 9460TIP3    H128344   6.479   0.207   2.530  0.7376 -1.0918 -0.2087
 9460TIP3    H228345   6.362   0.116   2.500 -0.9829  0.6471  1.0171
 9461TIP3   OH228346   0.835   1.790   1.394 -0.2619 -0.4809 -0.2274
 9461TIP3    H128347   0.797   1.875   1.376  1.5521  0.6316  0.8667
 9461TIP3    H228348   0.903   1.779   1.328  0.3285 -0.4908  0.3629
 9462TIP3   OH228349   6.642   4.060   0.564  0.2612 -0.2822  0.0324
 9462TIP3    H128350   6.679   3.978   0.597  1.4505  0.1021 -0.2922
 9462TIP3    H228351   6.590   4.094   0.637 -0.9403 -1.7167 -0.1110
 9463TIP3   OH228352   1.044   3.952   4.238  0.5841  0.1066  0.4686
 9463TIP3    H128353   1.030   3.901   4.158  1.1573  0.4360  0.1531
 9463TIP3    H228354   0.968   4.010   4.243 -1.3108 -2.3065  2.0682
 9464TIP3   OH228355   6.545   6.406   0.709 -0.1099 -0.3053  0.4282
 9464TIP3    H128356   6.551   6.501   0.701 -1.1529 -0.3020 -0.7095
 9464TIP3    H228357   6.494   6.379   0.632  0.0194 -1.7625  0.8237
 9465TIP3   OH228358   1.136   5.477   3.536  0.1616 -0.6462 -0.7259
 9465TIP3    H128359   1.147   5.529   3.456  0.0988 -0.0827 -0.3755
 9465TIP3    H228360   1.223   5.441   3.553  0.6143  0.6870 -0.0743
 9466TIP3   OH228361   0.919   3.106   3.672 -0.1607 -0.4078  0.0071
 9466TIP3    H128362   0.932   3.031   3.614  1.1161 -0.1707 -0.0406
 9466TIP3    H228363   0.872   3.070   3.747  0.6418 -1.3137  0.0893
 9467TIP3   OH228364   3.874   1.826   4.103 -0.3846 -0.6769 -0.5063
 9467TIP3    H128365   3.905   1.908   4.141 -0.7259 -0.3847 -0.8522
 9467TIP3    H228366   3.953   1.774   4.088 -0.1335 -0.2564 -0.6501
 9468TIP3   OH228367   4.965   3.453   1.492  0.1668 -0.3776  0.1776
 9468TIP3    H128368   4.941   3.503   1.570  1.7631  0.6008  0.0818
 9468TIP3    H228369   4.894   3.389   1.482 -0.4268 -0.0635  2.0096
 9469TIP3   OH228370   0.152   1.889   3.033  0.1008  0.9367  0.3037
 9469TIP3    H128371   0.108   1.808   3.007 -1.1914  1.7384 -0.0482
 9469TIP3    H228372   0.177   1.930   2.951 -0.5445  1.5976  0.4316
 9470TIP3   OH228373   2.593   4.357   0.959 -0.0760  0.0396  0.5624
 9470TIP3    H128374   2.654   4.360   1.033 -0.2796 -3.0749  1.0048
 9470TIP3    H228375   2.507   4.375   0.998  0.2467  2.6305  0.2479
 9471TIP3   OH228376   2.759   0.925   4.618  0.5555  0.2442  0.2122
 9471TIP3    H128377   2.749   0.835   4.586  0.2211  0.9476 -1.7623
 9471TIP3    H228378   2.848   0.927   4.654 -0.0793 -1.3492  2.0813
 9472TIP3   OH228379   5.207   3.965   5.456 -0.1161  0.2697 -0.4679
 9472TIP3    H128380   5.145   4.001   5.519  0.1134  0.3932 -0.3115
 9472TIP3    H228381   5.234   4.039   5.402  0.3552  0.3326 -0.1463
 9473TIP3   OH228382   2.036   1.584   0.199 -0.6951 -0.0864  0.8099
 9473TIP3    H128383   2.084   1.626   0.128 -2.0848 -0.1669 -0.2099
 9473TIP3    H228384   2.102   1.531   0.244 -0.3618 -2.9936 -2.6328
 9474TIP3   OH228385   7.142   0.474   0.792  0.3337  0.5800  0.1345
 9474TIP3    H128386   7.187   0.548   0.834 -0.9886  0.0542  2.7133
 9474TIP3    H228387   7.063   0.462   0.844 -0.1556 -1.8132 -1.0367
 9475TIP3   OH228388   5.482   4.654   4.750  0.0950  0.0584  0.0529
 9475TIP3    H128389   5.478   4.592   4.823  0.6802  0.1098  0.1273
 9475TIP3    H228390   5.522   4.604   4.679  1.7563  0.7137  0.4908
 9476TIP3   OH228391   5.203   1.092   4.709  0.2449 -0.0411 -0.3450
 9476TIP3    H128392   5.129   1.124   4.656  0.8033  0.6254 -0.7543
 9476TIP3    H228393   5.175   1.105   4.799 -0.2988 -0.1722 -0.4910
 9477TIP3   OH228394   0.533   4.421   2.299 -0.3173 -0.3662 -0.2608
 9477TIP3    H128395   0.533   4.424   2.203 -0.4628  2.7510 -0.2623
 9477TIP3    H228396   0.442   4.407   2.323 -0.2826 -1.1368 -0.5442
 9478TIP3   OH228397   7.070   5.568   4.646 -0.4049 -0.3503  0.4226
 9478TIP3    H128398   7.134   5.535   4.583 -0.4731  1.5508 -0.7093
 9478TIP3    H228399   7.042   5.490   4.694 -0.6597 -1.9756 -2.1576
 9479TIP3   OH228400   6.084   2.192   4.021  0.2204 -0.0959 -0.5597
 9479TIP3    H128401   6.058   2.128   3.955 -0.2881 -0.6262  0.1384
 9479TIP3    H228402   6.160   2.152   4.063  0.9728  0.5524 -1.2684
 9480TIP3   OH228403   7.065   5.565   1.397 -0.5427 -0.6468  0.0938
 9480TIP3    H128404   7.098   5.601   1.480  1.8639 -2.3139 -0.0157
 9480TIP3    H228405   7.107   5.619   1.329 -0.5225 -0.8499 -0.0548
 9481TIP3   OH228406   4.304   3.848   4.334  0.1104 -0.1099 -0.9146
 9481TIP3    H128407   4.331   3.933   4.299  1.7256 -0.3613 -0.3447
 9481TIP3    H228408   4.320   3.854   4.428 -0.9524 -0.6343 -0.6733
 9482TIP3   OH228409   3.176   0.738   1.827  0.1083  0.4681 -0.5049
 9482TIP3    H128410   3.130   0.739   1.743 -0.0231 -2.0309 -0.5377
 9482TIP3    H228411   3.256   0.690   1.811  0.7524  1.1403  0.5276
 9483TIP3   OH228412   6.403   3.556   1.457  0.9757 -0.1790 -0.6345
 9483TIP3    H128413   6.473   3.515   1.508  0.2298 -1.1912 -0.3993
 9483TIP3    H228414   6.407   3.512   1.372  1.4626  0.6860 -1.0707
 9484TIP3   OH228415   4.319   1.454   5.031  0.2046  0.2637  0.6837
 9484TIP3    H128416   4.401   1.468   4.984 -1.0026 -1.8262 -2.4169
 9484TIP3    H228417   4.328   1.368   5.072 -0.3948 -0.0098  0.2727
 9485TIP3   OH228418   1.878   0.282   2.005  0.0019 -0.2860 -0.7006
 9485TIP3    H128419   1.876   0.203   1.951  0.1781 -0.9657  0.2647
 9485TIP3    H228420   1.959   0.275   2.055  0.3680  0.8532 -1.0983
 9486TIP3   OH228421   5.052   4.156   0.644 -0.0943 -0.0898  0.7338
 9486TIP3    H128422   4.963   4.120   0.645 -1.3750  2.6923 -0.8526
 9486TIP3    H228423   5.088   4.127   0.560 -0.5289  0.8842  0.1898
 9487TIP3   OH228424   0.934   0.709   2.370 -0.2492  0.7745 -0.6501
 9487TIP3    H128425   0.987   0.634   2.396 -0.4040  1.7409  2.8638
 9487TIP3    H228426   0.984   0.785   2.400 -1.5845  1.9313 -1.2380
 9488TIP3   OH228427   1.593   3.121   1.766 -0.0364  0.2945  0.3386
 9488TIP3    H128428   1.532   3.128   1.693 -1.3756  0.1696  1.4123
 9488TIP3    H228429   1.543   3.080   1.836  0.8554  1.4564  1.7215
 9489TIP3   OH228430   1.333   0.927   0.827  0.0271  0.0116 -0.1804
 9489TIP3    H128431   1.321   0.891   0.739  0.9198  0.0388 -0.3219
 9489TIP3    H228432   1.307   1.018   0.820 -1.7424 -0.4375  0.0527
 9490TIP3   OH228433   4.373   4.732   1.143  0.6405 -0.2693 -0.0338
 9490TIP3    H128434   4.401   4.824   1.142  1.1519 -0.4267 -0.4856
 9490TIP3    H228435   4.341   4.716   1.055 -1.5596  0.0939  0.6210
 9491TIP3   OH228436   3.106   5.400   1.296  0.2789  0.5157  0.6284
 9491TIP3    H128437   3.092   5.318   1.249 -0.7488 -0.0435  1.8607
 9491TIP3    H228438   3.029   5.453   1.278  1.2191  1.5116 -0.6765
 9492TIP3   OH228439   4.951   5.562   5.282  0.8748  0.0659  0.0888
 9492TIP3    H128440   4.901   5.579   5.202  1.3038  1.6086  0.1296
 9492TIP3    H228441   4.940   5.468   5.297 -3.1436  0.4674  0.8272
 9493TIP3   OH228442   4.827   3.180   2.083  0.1989 -0.3071 -0.2839
 9493TIP3    H128443   4.789   3.116   2.023  0.9805  0.7272 -1.9348
 9493TIP3    H228444   4.914   3.145   2.104  0.4226 -0.0449 -0.7715
 9494TIP3   OH228445   6.229   2.326   5.576 -0.4587  0.2856 -0.1649
 9494TIP3    H128446   6.275   2.406   5.549 -0.3378  0.9470  1.8388
 9494TIP3    H228447   6.277   2.256   5.533  0.8567  1.1482 -0.1860
 9495TIP3   OH228448   0.555   1.871   1.263 -0.1035 -0.4062  0.1497
 9495TIP3    H128449   0.515   1.878   1.350  0.1644  0.1314  0.2374
 9495TIP3    H228450   0.560   1.777   1.246 -0.5568 -0.5030  0.5286
 9496TIP3   OH228451   2.280   2.607   5.571 -0.3619  0.4594 -0.4137
 9496TIP3    H128452   2.338   2.662   5.624 -1.2404  2.5883 -1.5470
 9496TIP3    H228453   2.331   2.528   5.555  0.3903  0.1968  2.5477
 9497TIP3   OH228454   1.688   3.830   3.562  0.0060 -0.3402 -0.1588
 9497TIP3    H128455   1.713   3.854   3.473 -1.4211 -0.6156 -0.6460
 9497TIP3    H228456   1.602   3.869   3.575  0.2329 -0.2068  1.1544
 9498TIP3   OH228457   1.491   2.987   5.672  0.0832 -0.3237 -0.5163
 9498TIP3    H128458   1.493   2.917   5.738 -0.2332  0.3851  0.2774
 9498TIP3    H228459   1.398   3.002   5.657  0.1576 -0.9226 -1.6299
 9499TIP3   OH228460   0.288   2.599   5.808  0.3020 -0.0271 -0.1104
 9499TIP3    H128461   0.301   2.544   5.730 -0.1044 -1.5177  0.8158
 9499TIP3    H228462   0.376   2.618   5.839  0.5329  2.0694 -1.8774
 9500TIP3   OH228463   1.672   3.867   4.738  0.2796  0.1862 -0.0133
 9500TIP3    H128464   1.701   3.779   4.714  1.5024  0.3209  0.8646
 9500TIP3    H228465   1.580   3.856   4.763 -0.0894 -0.5058 -1.5841
 9501TIP3   OH228466   3.851   2.750   3.490 -0.2059 -0.7304 -0.0483
 9501TIP3    H128467   3.853   2.844   3.471 -0.8978 -0.7269 -0.1194
 9501TIP3    H228468   3.867   2.708   3.406  1.8612 -0.6875  0.2528
 9502TIP3   OH228469   0.982   1.989   3.044 -0.2203  0.0588  0.5264
 9502TIP3    H128470   1.057   1.929   3.041 -0.0566  0.2314  1.0988
 9502TIP3    H228471   0.925   1.959   2.973  0.5277  0.1141 -0.1018
 9503TIP3   OH228472   4.625   3.388   5.285 -0.2946  0.1675  0.4507
 9503TIP3    H128473   4.532   3.373   5.304 -0.2485 -2.0785 -0.7295
 9503TIP3    H228474   4.627   3.410   5.192  0.4646 -1.6332  0.0080
 9504TIP3   OH228475   2.614   3.780   0.298 -0.3031 -0.0430  0.7688
 9504TIP3    H128476   2.629   3.872   0.276 -0.7987 -0.4930 -1.7165
 9504TIP3    H228477   2.518   3.771   0.296 -0.2298 -1.1745 -1.9632
 9505TIP3   OH228478   5.944   5.485   2.278  0.2624 -0.0596 -0.0992
 9505TIP3    H128479   5.860   5.494   2.322  0.0705  1.5976 -0.7429
 9505TIP3    H228480   5.932   5.530   2.194  1.9761  0.7291  0.0472
 9506TIP3   OH228481   4.231   3.911   5.035  0.0758  0.6458 -0.0267
 9506TIP3    H128482   4.315   3.923   5.081  0.3296  2.4739 -0.9003
 9506TIP3    H228483   4.248   3.841   4.973  0.4619 -0.1308  0.9283
 9507TIP3   OH228484   4.297   4.572   2.276 -0.0013  0.0538  0.2680
 9507TIP3    H128485   4.229   4.582   2.342  0.5330 -2.1884  1.2650
 9507TIP3    H228486   4.347   4.496   2.305  1.4690  0.1900 -1.7047
 9508TIP3   OH228487   6.762   2.777   5.902  0.3892  0.2375 -0.0682
 9508TIP3    H128488   6.693   2.756   5.839  1.3765 -2.5415 -0.3301
 9508TIP3    H228489   6.812   2.696   5.912  2.2345  1.5010  1.8720
 9509TIP3   OH228490   1.200   1.199   4.331  0.2873 -0.0697 -0.0795
 9509TIP3    H128491   1.180   1.165   4.418  1.6332 -1.0538 -0.1342
 9509TIP3    H228492   1.161   1.134   4.271  0.6473 -0.1758 -0.1997
 9510TIP3   OH228493   6.411   3.299   1.555  0.4039 -0.7958  0.1426
 9510TIP3    H128494   6.415   3.203   1.552 -0.7497 -0.8267 -1.2683
 9510TIP3    H228495   6.317   3.319   1.558  0.5265  0.3276 -1.9670
 9511TIP3   OH228496   6.377   1.646   0.614 -0.3663  0.1072  0.6684
 9511TIP3    H128497   6.380   1.550   0.622  1.9057 -0.1153 -1.4911
 9511TIP3    H228498   6.390   1.677   0.704 -0.5798 -1.6207  1.3472
 9512TIP3   OH228499   1.975   1.813   2.072  0.6460 -0.0194 -0.1023
 9512TIP3    H128500   1.979   1.752   1.998  1.8212  0.6801 -0.6482
 9512TIP3    H228501   1.913   1.773   2.133  2.5393 -2.5933  0.3103
 9513TIP3   OH228502   2.187   3.952   0.154 -0.0064 -0.3489 -0.2411
 9513TIP3    H128503   2.096   3.974   0.172  0.2386 -0.1512  0.7900
 9513TIP3    H228504   2.182   3.889   0.082 -0.8565  0.9966 -1.4280
 9514TIP3   OH228505   1.179   1.449   4.397 -0.2029 -0.1239 -0.2597
 9514TIP3    H128506   1.185   1.356   4.378  0.4105 -0.1458  0.0227
 9514TIP3    H228507   1.114   1.482   4.335  0.6044 -0.4753 -1.3315
 9515TIP3   OH228508   2.730   4.835   5.659 -0.1264 -0.0298 -0.3979
 9515TIP3    H128509   2.679   4.765   5.700 -0.1588  0.1699 -0.0936
 9515TIP3    H228510   2.769   4.882   5.733 -0.0167  0.2060 -0.6072
 9516TIP3   OH228511   3.043   0.134   4.092  0.2404 -0.2512  0.1632
 9516TIP3    H128512   2.997   0.154   4.011 -0.4899 -0.2749  0.5559
 9516TIP3    H228513   3.121   0.086   4.065  0.3142  0.2630 -0.5589
 9517TIP3   OH228514   3.797   4.292   4.841  0.7190  0.2056 -0.1036
 9517TIP3    H128515   3.710   4.282   4.802  0.9611 -0.7872 -0.4228
 9517TIP3    H228516   3.786   4.263   4.931  0.5735  0.7213  0.0464
 9518TIP3   OH228517   5.905   3.505   5.521  0.2670  0.3116 -0.3575
 9518TIP3    H128518   5.824   3.555   5.519 -1.3873 -2.1253  0.6274
 9518TIP3    H228519   5.923   3.484   5.429 -0.1812  0.9578 -0.5961
 9519TIP3   OH228520   1.188   1.566   4.968  0.0960  0.0462  0.1066
 9519TIP3    H128521   1.170   1.627   5.039 -2.5090 -0.6731  0.1445
 9519TIP3    H228522   1.193   1.480   5.011  2.3372 -0.0236 -0.1348
 9520TIP3   OH228523   1.242   6.627   0.963  0.1507 -0.3761 -0.1933
 9520TIP3    H128524   1.200   6.631   1.049  0.2881 -0.9972 -0.0879
 9520TIP3    H228525   1.179   6.581   0.908  0.2946 -0.4675 -0.2809
 9521TIP3   OH228526   0.695   5.828   5.580 -0.5198 -0.0943 -0.0916
 9521TIP3    H128527   0.691   5.912   5.626 -1.9894 -0.1075 -0.1391
 9521TIP3    H228528   0.787   5.805   5.579  0.0276  1.9074 -0.7625
 9522TIP3   OH228529   5.519   2.039   1.027  0.8683 -0.4184  0.3046
 9522TIP3    H128530   5.554   1.950   1.020 -0.5035 -1.0432  0.8886
 9522TIP3    H228531   5.451   2.043   0.960  0.3604 -0.0998  0.8254
 9523TIP3   OH228532   1.029   4.657   5.093  0.1936  0.1650 -0.5434
 9523TIP3    H128533   1.082   4.730   5.124  1.0527 -0.4626 -0.5066
 9523TIP3    H228534   0.978   4.693   5.020  0.5118  0.8229 -0.4440
 9524TIP3   OH228535   0.780   0.441   1.198  0.2790 -0.1145  0.0241
 9524TIP3    H128536   0.730   0.453   1.278  1.2059  0.0587  0.5896
 9524TIP3    H228537   0.791   0.529   1.163 -0.4595 -0.2258 -0.5157
 9525TIP3   OH228538   6.715   4.853   2.150 -0.5496 -0.5609  0.1493
 9525TIP3    H128539   6.802   4.889   2.134 -1.0539  0.9127  0.6247
 9525TIP3    H228540   6.683   4.900   2.226 -1.8807 -0.9023 -0.1780
 9526TIP3   OH228541   1.976   0.232   5.703  0.2119 -0.5621  0.2048
 9526TIP3    H128542   1.976   0.180   5.623 -0.0585  0.0662 -0.2118
 9526TIP3    H228543   2.064   0.268   5.708 -0.0559  0.2079 -0.3601
 9527TIP3   OH228544   6.723   6.800   1.923 -0.2060 -0.4848 -0.0539
 9527TIP3    H128545   6.747   6.713   1.958 -0.1826 -0.6976 -0.5942
 9527TIP3    H228546   6.693   6.783   1.834  0.0103  0.0931 -0.2426
 9528TIP3   OH228547   2.381   1.089   0.229 -0.5638  0.0510 -0.5345
 9528TIP3    H128548   2.373   1.146   0.306 -1.4946 -0.1675 -0.4550
 9528TIP3    H228549   2.443   1.134   0.172  0.1635  0.2093  0.3479
 9529TIP3   OH228550   0.735   6.203   0.506 -0.2374  0.4162  0.3878
 9529TIP3    H128551   0.680   6.183   0.430 -1.0819  1.6118  0.6418
 9529TIP3    H228552   0.692   6.279   0.546  1.9388  1.7708  0.2760
 9530TIP3   OH228553   4.609   0.786   4.035 -0.4338 -0.1452  0.0112
 9530TIP3    H128554   4.570   0.801   4.122  1.9920 -0.3869  1.2120
 9530TIP3    H228555   4.557   0.841   3.976 -3.6835 -1.7563  1.1349
 9531TIP3   OH228556   0.869   4.031   5.199 -0.0296  0.3515  0.3174
 9531TIP3    H128557   0.799   4.074   5.248 -0.8884 -0.0499 -0.5130
 9531TIP3    H228558   0.919   4.103   5.161 -0.7253  0.6440 -0.0669
 9532TIP3   OH228559   6.823   2.209   5.363  0.0668  0.7869 -0.5785
 9532TIP3    H128560   6.777   2.209   5.447  0.1973 -1.4152 -0.4512
 9532TIP3    H228561   6.916   2.208   5.386  0.1156 -1.4899 -0.6344
 9533TIP3   OH228562   5.805   1.754   2.510  0.3235 -0.2202 -0.0952
 9533TIP3    H128563   5.859   1.677   2.526 -2.1342 -1.6206  2.3722
 9533TIP3    H228564   5.720   1.731   2.547 -0.8552  3.2765 -0.3054
 9534TIP3   OH228565   0.221   2.882   0.967 -0.3912  0.4671 -0.7480
 9534TIP3    H128566   0.281   2.951   0.940 -0.8377  1.3032  0.3228
 9534TIP3    H228567   0.268   2.801   0.946  1.9889  1.0506  1.6865
 9535TIP3   OH228568   6.026   0.081   5.835 -0.3815 -0.6275  0.4472
 9535TIP3    H128569   6.110   0.101   5.875 -0.1486 -1.5114  0.4280
 9535TIP3    H228570   5.968   0.063   5.909 -0.2467 -1.1573  0.4255
 9536TIP3   OH228571   4.702   4.330   2.977 -0.7702 -0.0538  0.0919
 9536TIP3    H128572   4.611   4.332   2.944 -0.8990 -2.1212  0.1898
 9536TIP3    H228573   4.753   4.297   2.902 -0.1905  0.4958  0.2415
 9537TIP3   OH228574   3.978   0.726   3.180 -0.0658  0.1804  0.0791
 9537TIP3    H128575   4.060   0.773   3.162 -0.9503  1.1685 -1.6436
 9537TIP3    H228576   3.975   0.718   3.275  1.3097  1.4567  0.2653
 9538TIP3   OH228577   2.511   2.834   3.956 -0.1794 -0.3246 -0.2601
 9538TIP3    H128578   2.584   2.797   4.005  0.0965 -1.1483 -1.2664
 9538TIP3    H228579   2.529   2.928   3.952  0.5942 -0.4629 -0.1244
 9539TIP3   OH228580   5.706   2.291   2.645  0.3940  0.0385 -0.2247
 9539TIP3    H128581   5.726   2.250   2.560  0.0872 -0.6750  0.0391
 9539TIP3    H228582   5.774   2.259   2.704 -0.0697 -0.4046  0.0746
 9540TIP3   OH228583   2.000   5.076   5.864  0.2262  0.2901  0.8258
 9540TIP3    H128584   2.092   5.056   5.850 -0.5989 -2.7211 -1.7567
 9540TIP3    H228585   1.977   5.028   5.943  0.4773 -0.8674  0.2319
 9541TIP3   OH228586   2.289   2.340   1.258 -0.3683  0.1174  0.4809
 9541TIP3    H128587   2.335   2.424   1.253 -1.7477  0.8369 -2.7179
 9541TIP3    H228588   2.358   2.274   1.256  0.7471  1.1624 -3.6799
 9542TIP3   OH228589   5.827   2.033   4.874 -0.4412 -0.4103 -0.2002
 9542TIP3    H128590   5.917   2.064   4.883  0.1687 -2.3697  1.2765
 9542TIP3    H228591   5.820   2.006   4.783  0.3376  0.0891 -0.4240
 9543TIP3   OH228592   3.348   5.074   5.431 -0.0144  0.0411 -0.2766
 9543TIP3    H128593   3.387   5.000   5.477 -0.2359  0.7098  1.0211
 9543TIP3    H228594   3.323   5.039   5.346 -0.8967 -1.5983  0.6163
 9544TIP3   OH228595   5.402   5.517   4.557 -0.0099  0.4966  0.2709
 9544TIP3    H128596   5.406   5.611   4.573  1.4283  0.4838  0.1576
 9544TIP3    H228597   5.327   5.505   4.498 -0.1019  1.5840  0.1507
 9545TIP3   OH228598   0.438   5.185   5.401  0.2605  0.0762  0.0373
 9545TIP3    H128599   0.479   5.112   5.448 -0.5925 -0.1162  0.5106
 9545TIP3    H228600   0.447   5.260   5.459  0.1083  0.0762  0.0617
 9546TIP3   OH228601   1.555   1.044   3.989 -0.0623 -0.1940  0.0221
 9546TIP3    H128602   1.615   1.106   3.948  0.2270  0.0702  0.8326
 9546TIP3    H228603   1.545   1.075   4.079  1.0314 -1.9843  0.8126
 9547TIP3   OH228604   4.930   6.397   3.488 -0.3644 -0.4112 -0.1894
 9547TIP3    H128605   4.847   6.401   3.535 -1.1220  0.6335 -1.5493
 9547TIP3    H228606   4.997   6.418   3.553 -1.3973  1.2720  0.3722
 9548TIP3   OH228607   2.197   6.750   1.346 -0.5893 -0.4897 -0.2145
 9548TIP3    H128608   2.217   6.680   1.408  0.1413 -0.8518 -0.8448
 9548TIP3    H228609   2.227   6.717   1.261  0.8933  1.0456 -0.3365
 9549TIP3   OH228610   5.730   2.726   1.143  0.0133  0.1055  0.2937
 9549TIP3    H128611   5.670   2.774   1.201 -2.2843 -1.9151 -0.2347
 9549TIP3    H228612   5.712   2.762   1.056 -0.1396 -0.2223  0.1889
 9550TIP3   OH228613   4.230   5.882   0.465 -0.4833 -0.3151 -0.0539
 9550TIP3    H128614   4.307   5.873   0.521 -0.1905  1.2164 -0.1445
 9550TIP3    H228615   4.238   5.813   0.399  0.7512 -0.2475  0.0147
 9551TIP3   OH228616   1.875   4.624   4.779  0.5557 -0.0419  0.4910
 9551TIP3    H128617   1.842   4.622   4.869  0.8826 -1.1302  0.6026
 9551TIP3    H228618   1.933   4.548   4.773 -0.3352 -0.6528 -0.9753
 9552TIP3   OH228619   6.434   6.481   1.274  0.6825  0.0777  0.1015
 9552TIP3    H128620   6.523   6.454   1.249  0.0070 -0.6746 -1.6091
 9552TIP3    H228621   6.416   6.433   1.355  1.0504 -1.4555 -0.6916
 9553TIP3   OH228622   2.357   6.217   1.830 -0.2573 -0.0657  0.2610
 9553TIP3    H128623   2.345   6.249   1.740  2.6409 -0.4966 -0.3903
 9553TIP3    H228624   2.411   6.285   1.872  0.3562 -0.9586  0.9385
 9554TIP3   OH228625   1.374   6.117   3.078 -0.3669  0.2082 -0.2103
 9554TIP3    H128626   1.341   6.124   2.988 -0.2761 -0.6266 -0.3087
 9554TIP3    H228627   1.466   6.090   3.067 -0.7812 -1.4335  0.1616
 9555TIP3   OH228628   5.555   0.232   0.484  0.5582  0.0559  0.3528
 9555TIP3    H128629   5.542   0.181   0.564 -3.4691  0.1792  0.0051
 9555TIP3    H228630   5.588   0.317   0.516 -0.1850 -0.1695  1.8385
 9556TIP3   OH228631   1.053   2.746   4.621  0.5734 -0.2431 -1.1222
 9556TIP3    H128632   1.094   2.745   4.535 -0.1393 -1.5589 -1.4690
 9556TIP3    H228633   1.057   2.655   4.651 -0.2023 -0.0111 -0.2504
 9557TIP3   OH228634   1.856   0.793   3.255  0.1116  0.3268 -0.1684
 9557TIP3    H128635   1.901   0.823   3.176 -1.4006  1.1787 -0.7586
 9557TIP3    H228636   1.920   0.739   3.301  2.3294  2.8846 -0.0524
 9558TIP3   OH228637   3.041   4.432   3.357 -0.1143 -0.1762  0.5388
 9558TIP3    H128638   3.127   4.464   3.331 -0.1054  0.8068  1.7139
 9558TIP3    H228639   2.995   4.509   3.390 -1.3721 -0.7309  0.1402
 9559TIP3   OH228640   2.744   0.251   5.144 -0.4315 -0.6276 -0.2345
 9559TIP3    H128641   2.709   0.256   5.055 -0.8634 -0.0197 -0.0374
 9559TIP3    H228642   2.697   0.178   5.184 -1.5985  0.2433  0.0635
 9560TIP3   OH228643   0.431   1.963   5.737 -0.0630 -0.0986 -0.3698
 9560TIP3    H128644   0.386   2.016   5.672  0.2794  0.5959 -0.0513
 9560TIP3    H228645   0.380   1.882   5.742 -2.0881  1.1637  0.9401
 9561TIP3   OH228646   5.792   3.863   4.628  0.5389 -0.1231  0.6457
 9561TIP3    H128647   5.772   3.778   4.668  0.4925 -0.1857  0.4862
 9561TIP3    H228648   5.731   3.872   4.556 -0.8177  0.9325  1.8511
 9562TIP3   OH228649   7.067   2.533   1.732 -0.3425 -0.3196 -0.8577
 9562TIP3    H128650   7.047   2.476   1.657 -2.7841 -0.8637  0.0945
 9562TIP3    H228651   7.050   2.478   1.809 -1.5968  1.2898  0.0879
 9563TIP3   OH228652   0.468   0.361   4.259  0.6527  0.0973  0.2565
 9563TIP3    H128653   0.564   0.359   4.261  0.7622  2.5727  0.6405
 9563TIP3    H228654   0.443   0.407   4.339 -0.5076  4.0168 -2.0889
 9564TIP3   OH228655   7.112   3.789   3.126  0.0034 -0.5727  0.1728
 9564TIP3    H128656   7.168   3.837   3.066 -0.3590 -0.2470  0.0894
 9564TIP3    H228657   7.149   3.805   3.213 -1.1026  1.2813  0.3382
 9565TIP3   OH228658   0.438   3.405   0.748  0.4833 -0.0662  0.5815
 9565TIP3    H128659   0.367   3.355   0.789  0.1639  0.3123  0.4891
 9565TIP3    H228660   0.473   3.346   0.681  0.2257 -0.2339  0.5937
 9566TIP3   OH228661   3.615   5.068   4.746  0.1578  0.0773 -0.1445
 9566TIP3    H128662   3.565   5.042   4.824 -1.0501 -1.0900 -1.2551
 9566TIP3    H228663   3.576   5.151   4.719 -0.2876 -0.1589 -0.2347
 9567TIP3   OH228664   4.341   3.574   0.096 -0.1403 -0.1031 -0.1187
 9567TIP3    H128665   4.352   3.593   0.003 -1.2200  0.0039 -0.2281
 9567TIP3    H228666   4.428   3.543   0.123 -0.1782 -1.5546 -1.4902
 9568TIP3   OH228667   6.501   5.348   3.298 -0.1914 -0.2151 -0.3274
 9568TIP3    H128668   6.435   5.314   3.238 -0.0762  0.5757 -0.9151
 9568TIP3    H228669   6.489   5.297   3.378 -0.0665 -1.5755 -1.1522
 9569TIP3   OH228670   0.878   3.778   2.948  0.1607 -0.4844 -0.4853
 9569TIP3    H128671   0.877   3.788   2.853 -1.9921  0.6908 -0.3969
 9569TIP3    H228672   0.959   3.731   2.966  1.5873  0.9378 -2.7195
 9570TIP3   OH228673   5.623   6.730   1.683 -0.2588  0.5332 -0.2185
 9570TIP3    H128674   5.635   6.636   1.684  0.7777  0.6573  0.2349
 9570TIP3    H228675   5.631   6.755   1.591 -0.6612  0.1632 -0.3512
 9571TIP3   OH228676   0.231   6.687   4.870  0.0773 -0.2156 -0.4483
 9571TIP3    H128677   0.312   6.648   4.904  0.2768  0.9209  0.4206
 9571TIP3    H228678   0.165   6.666   4.935 -0.1587 -0.4466 -0.7593
 9572TIP3   OH228679   6.880   2.913   0.866  0.1725  0.5615  0.3237
 9572TIP3    H128680   6.810   2.920   0.931  0.1272 -1.8547  0.6435
 9572TIP3    H228681   6.847   2.960   0.789 -0.3629  2.2687  1.5329
 9573TIP3   OH228682   2.422   4.352   1.326 -0.1292  0.0241 -0.0061
 9573TIP3    H128683   2.369   4.333   1.249  0.4364  1.6835 -0.8489
 9573TIP3    H228684   2.476   4.426   1.300  1.8125 -0.9059  1.2020
 9574TIP3   OH228685   2.238   4.912   1.032  0.2097 -0.0869 -0.1850
 9574TIP3    H128686   2.216   4.971   0.960  1.6862  1.1038  0.3081
 9574TIP3    H228687   2.163   4.918   1.092 -0.1038  0.4837 -0.6300
 9575TIP3   OH228688   7.199   1.740   4.260  0.1931 -0.6511  0.0179
 9575TIP3    H128689   7.258   1.812   4.239  1.0126 -1.0026  1.0225
 9575TIP3    H228690   7.112   1.774   4.240  0.6923  0.0010 -1.1614
 9576TIP3   OH228691   2.544   5.399   3.019 -0.5621  0.2577  0.2163
 9576TIP3    H128692   2.468   5.454   3.037 -0.7379 -0.0052  0.2883
 9576TIP3    H228693   2.549   5.341   3.095  0.0030  0.6012  0.4444
 9577TIP3   OH228694   2.100   0.897   3.040 -0.4838 -0.4614  0.2535
 9577TIP3    H128695   2.170   0.942   2.993 -0.5762 -0.4579  0.1193
 9577TIP3    H228696   2.145   0.835   3.097 -0.4203 -2.0864 -1.4607
 9578TIP3   OH228697   4.721   6.408   0.334 -0.2059 -0.2252  0.1880
 9578TIP3    H128698   4.708   6.314   0.329  0.4794 -0.2622 -1.2891
 9578TIP3    H228699   4.771   6.430   0.255  0.0596  1.3005  0.7440
 9579TIP3   OH228700   5.956   1.567   0.657  0.1489 -0.2621 -0.6272
 9579TIP3    H128701   6.047   1.562   0.628  0.5196  0.6007  0.3077
 9579TIP3    H228702   5.904   1.537   0.582  1.1471  0.2515 -1.5393
 9580TIP3   OH228703   5.443   1.324   1.815 -0.7407 -0.3030  0.1487
 9580TIP3    H128704   5.357   1.307   1.776 -1.0838  0.8277  0.3808
 9580TIP3    H228705   5.425   1.348   1.906 -0.5715  3.3884 -0.6332
 9581TIP3   OH228706   0.248   5.091   2.218 -0.4971  0.2919 -0.3524
 9581TIP3    H128707   0.214   5.179   2.233 -1.2781 -0.3215  1.8703
 9581TIP3    H228708   0.334   5.091   2.260  0.3290  0.4881 -1.9612
 9582TIP3   OH228709   3.387   1.845   3.979  0.4878 -0.1669 -0.2374
 9582TIP3    H128710   3.328   1.900   4.031  1.3399  0.1055  0.4687
 9582TIP3    H228711   3.359   1.858   3.889 -0.8265 -0.4059  0.1219
 9583TIP3   OH228712   4.234   5.042   4.823 -0.2758  0.0617  0.7252
 9583TIP3    H128713   4.210   4.993   4.902  1.0064 -0.9701  0.5165
 9583TIP3    H228714   4.160   5.029   4.763 -0.2655 -1.0782  0.9292
 9584TIP3   OH228715   4.652   2.593   4.429 -0.5395  0.2084 -0.0130
 9584TIP3    H128716   4.617   2.639   4.352 -0.3098  0.8067  0.2394
 9584TIP3    H228717   4.742   2.571   4.405 -0.6004  0.0273 -0.0744
 9585TIP3   OH228718   1.584   2.996   0.441  0.0393  0.5461 -0.3952
 9585TIP3    H128719   1.599   3.077   0.391 -1.9214  2.1164  1.4026
 9585TIP3    H228720   1.491   2.977   0.428  0.4176 -1.3416 -0.5787
 9586TIP3   OH228721   1.967   0.418   2.459  0.2947 -0.0164 -0.2979
 9586TIP3    H128722   1.913   0.395   2.535  1.6765 -0.6020  0.5309
 9586TIP3    H228723   1.970   0.513   2.459 -1.1180  0.0510 -0.6450
 9587TIP3   OH228724   0.197   3.381   4.523 -0.0285  0.4813  0.7918
 9587TIP3    H128725   0.268   3.361   4.585 -0.0609 -1.3522  0.2878
 9587TIP3    H228726   0.156   3.297   4.506 -0.6939  1.1201 -0.9432
 9588TIP3   OH228727   0.356   5.599   5.834 -0.2476  0.1397 -0.1118
 9588TIP3    H128728   0.432   5.656   5.833 -1.4038  1.7810  0.5074
 9588TIP3    H228729   0.294   5.640   5.773 -0.7111 -1.0700 -0.4950
 9589TIP3   OH228730   6.409   5.227   4.995 -0.3535  0.6310  0.1793
 9589TIP3    H128731   6.495   5.199   5.026 -1.0034 -0.9256  0.7349
 9589TIP3    H228732   6.406   5.197   4.904 -0.5312  0.0926  0.3559
 9590TIP3   OH228733   2.381   3.899   1.226  0.2258  0.2674  0.7015
 9590TIP3    H128734   2.463   3.944   1.249  0.1933 -0.5594  2.5720
 9590TIP3    H228735   2.360   3.846   1.303 -1.0608 -1.0316 -0.4827
 9591TIP3   OH228736   3.363   5.739   3.958 -0.2220  0.1530  0.6952
 9591TIP3    H128737   3.447   5.780   3.980 -0.1898 -0.5380  1.9588
 9591TIP3    H228738   3.372   5.649   3.989 -1.1308 -0.1585  0.0708
 9592TIP3   OH228739   1.319   6.420   5.692 -0.5422 -0.1003 -0.1340
 9592TIP3    H128740   1.308   6.476   5.616 -0.0594 -1.0282 -0.9250
 9592TIP3    H228741   1.252   6.447   5.753  0.4111  2.1158  0.0102
 9593TIP3   OH228742   5.869   2.490   0.589 -0.0828 -0.2059  0.0546
 9593TIP3    H128743   5.839   2.425   0.526  0.6851  0.5785 -1.1890
 9593TIP3    H228744   5.954   2.519   0.554 -0.4493  1.5301  0.4719
 9594TIP3   OH228745   0.972   5.418   2.907 -0.0120  0.3444 -0.2621
 9594TIP3    H128746   0.983   5.434   2.813  0.6115 -1.0178 -0.4406
 9594TIP3    H228747   0.892   5.365   2.914  0.8255 -0.9500 -0.2020
 9595TIP3   OH228748   6.682   2.902   5.575  0.1579  0.7916 -0.2029
 9595TIP3    H128749   6.612   2.885   5.512 -0.3761  0.6570  0.4123
 9595TIP3    H228750   6.643   2.961   5.640 -0.2427 -1.2771  1.5627
 9596TIP3   OH228751   2.956   2.819   3.807  0.3949 -0.1742  0.0660
 9596TIP3    H128752   2.952   2.723   3.807  0.0326 -0.1597  0.3889
 9596TIP3    H228753   3.049   2.839   3.813  0.6861 -0.5155 -2.2971
 9597TIP3   OH228754   1.151   0.357   1.957 -0.1875 -0.3576 -0.7340
 9597TIP3    H128755   1.197   0.401   1.886  0.9779 -2.4388 -1.3567
 9597TIP3    H228756   1.196   0.385   2.037 -0.6121  0.9105 -0.9176
 9598TIP3   OH228757   4.557   4.447   3.859  0.1384 -0.1716 -0.0050
 9598TIP3    H128758   4.537   4.540   3.869  0.8630  0.2305 -1.8466
 9598TIP3    H228759   4.571   4.435   3.765 -2.6091 -2.7242 -0.2607
 9599TIP3   OH228760   3.905   6.401   3.521 -0.4071 -0.1067 -0.3292
 9599TIP3    H128761   3.850   6.439   3.453 -1.0764  0.7118  0.6203
 9599TIP3    H228762   3.857   6.418   3.602 -0.0376 -1.7853  0.2793
 9600TIP3   OH228763   5.744   6.340   3.455  0.2340  0.2380 -0.8388
 9600TIP3    H128764   5.709   6.254   3.479  0.0075  0.2413 -1.1509
 9600TIP3    H228765   5.697   6.364   3.375 -1.5261  1.7649  0.5554
 9601TIP3   OH228766   1.060   3.946   2.202  0.1840 -0.5508  0.1697
 9601TIP3    H128767   0.994   3.999   2.157  1.0676  1.2405  0.9098
 9601TIP3    H228768   1.053   3.859   2.161 -0.8650  0.2821 -1.5142
 9602TIP3   OH228769   2.469   2.561   1.340  0.1345  0.7999 -0.8850
 9602TIP3    H128770   2.539   2.601   1.288  1.7248  0.9142  1.1879
 9602TIP3    H228771   2.400   2.627   1.344  1.3906  2.1226 -0.1524
 9603TIP3   OH228772   0.501   6.768   2.401 -0.1674  0.6772 -0.0104
 9603TIP3    H128773   0.563   6.812   2.342 -1.3777  0.0943 -1.7959
 9603TIP3    H228774   0.418   6.814   2.387 -0.6930 -0.0791  0.5480
 9604TIP3   OH228775   6.902   0.526   4.279 -0.6193 -0.2191  0.6497
 9604TIP3    H128776   6.902   0.516   4.184 -1.2305  0.6261  0.5507
 9604TIP3    H228777   6.866   0.444   4.311 -3.3469  0.5997 -0.0193
 9605TIP3   OH228778   3.049   0.349   5.522  0.0266  0.0087 -0.5368
 9605TIP3    H128779   2.994   0.406   5.467 -1.0869 -2.3982 -2.0691
 9605TIP3    H228780   3.045   0.390   5.608 -1.4987  1.7401 -1.3448
 9606TIP3   OH228781   2.794   3.830   1.374 -0.2222  0.2512  0.0765
 9606TIP3    H128782   2.827   3.741   1.389  2.5702  1.1871 -0.0452
 9606TIP3    H228783   2.765   3.829   1.283 -0.4624 -0.5759  0.1457
 9607TIP3   OH228784   1.720   3.911   3.299  0.7561  0.1613  0.2010
 9607TIP3    H128785   1.736   4.003   3.278  0.7553  0.3960  1.1853
 9607TIP3    H228786   1.643   3.888   3.247 -0.2844  1.2107  1.2063
 9608TIP3   OH228787   2.141   2.830   0.962 -0.8354  0.4226 -0.0697
 9608TIP3    H128788   2.089   2.782   0.897  0.0247  0.5872 -0.9131
 9608TIP3    H228789   2.217   2.861   0.913  1.6968 -2.4053  1.6840
 9609TIP3   OH228790   3.075   1.234   1.840  0.4117  0.7227  0.6927
 9609TIP3    H128791   3.169   1.213   1.836  0.6341  1.8176 -0.1973
 9609TIP3    H228792   3.051   1.254   1.750 -0.7086  0.4093  0.9057
 9610TIP3   OH228793   0.600   2.262   1.489 -0.1801 -0.4788 -0.6276
 9610TIP3    H128794   0.515   2.293   1.521 -0.1375 -0.1582 -0.8209
 9610TIP3    H228795   0.664   2.307   1.543 -0.1340 -2.7410  1.4000
 9611TIP3   OH228796   3.286   6.738   5.434  0.0694  0.5528 -0.0044
 9611TIP3    H128797   3.329   6.816   5.469  0.5321 -0.4017  1.6666
 9611TIP3    H228798   3.334   6.718   5.353  1.1436  0.9683  0.5067
 9612TIP3   OH228799   5.332   5.032   5.050 -0.5384  0.2489  0.3208
 9612TIP3    H128800   5.333   4.937   5.036  0.2066  0.0725  1.4380
 9612TIP3    H228801   5.251   5.047   5.099 -0.6038  0.1808  0.2352
 9613TIP3   OH228802   1.528   3.687   1.554  0.0759 -0.3537  0.6119
 9613TIP3    H128803   1.447   3.737   1.552  0.6169  0.5152 -1.6507
 9613TIP3    H228804   1.501   3.597   1.535 -0.5426 -0.4674  1.8640
 9614TIP3   OH228805   1.839   3.921   3.785 -0.2508 -0.0107  0.5884
 9614TIP3    H128806   1.782   3.996   3.801  0.4776  1.0010 -1.2810
 9614TIP3    H228807   1.801   3.877   3.709  0.3330 -0.5077  0.5769
 9615TIP3   OH228808   6.346   4.810   3.113 -0.1346 -0.2967  0.4867
 9615TIP3    H128809   6.432   4.788   3.078 -0.7897 -1.5914 -0.4028
 9615TIP3    H228810   6.344   4.769   3.200 -0.2112 -1.2003  0.0786
 9616TIP3   OH228811   6.929   1.741   1.760  0.1894  0.0977 -0.3709
 9616TIP3    H128812   6.963   1.747   1.849 -1.6507  0.3074  0.3779
 9616TIP3    H228813   6.874   1.819   1.750 -0.3607 -0.3957 -1.3364
 9617TIP3   OH228814   2.487   0.615   1.916 -0.0114  0.2748  0.2412
 9617TIP3    H128815   2.432   0.549   1.875  0.9683 -1.6636  1.9100
 9617TIP3    H228816   2.573   0.603   1.875  0.1998  0.4661  0.6235
 9618TIP3   OH228817   5.158   4.050   1.458 -0.0674 -0.1986  0.1238
 9618TIP3    H128818   5.240   4.095   1.438 -0.0495  0.0433  0.7189
 9618TIP3    H228819   5.091   4.118   1.450 -0.0079  0.0172  1.3021
 9619TIP3   OH228820   1.909   4.858   5.325 -0.2510  0.2039  0.3913
 9619TIP3    H128821   1.903   4.919   5.252 -0.8575  0.5768  0.7454
 9619TIP3    H228822   1.885   4.773   5.288  3.1441 -0.3953 -0.7445
 9620TIP3   OH228823   3.570   0.354   0.424 -0.5478 -0.1284  0.0748
 9620TIP3    H128824   3.659   0.327   0.399  0.8330  3.7027  0.2494
 9620TIP3    H228825   3.534   0.395   0.346 -1.0868  0.7218  0.7474
 9621TIP3   OH228826   3.135   2.770   4.848 -0.0716 -0.5659 -0.0704
 9621TIP3    H128827   3.103   2.817   4.770 -0.6542  1.0081  1.0681
 9621TIP3    H228828   3.228   2.756   4.830  0.1429  1.0920 -0.4592
 9622TIP3   OH228829   5.426   2.007   4.872  0.0669 -0.3757  0.7828
 9622TIP3    H128830   5.486   1.949   4.919  1.6368 -0.3962 -1.1368
 9622TIP3    H228831   5.473   2.031   4.792 -1.2994  2.0027  0.5844
 9623TIP3   OH228832   1.728   2.955   3.464 -0.0127  0.3527 -0.5390
 9623TIP3    H128833   1.809   2.905   3.458  1.0306  1.5934  1.7546
 9623TIP3    H228834   1.750   3.041   3.428 -0.6513  0.3637 -0.9195
 9624TIP3   OH228835   3.729   4.048   3.538 -0.1308 -0.4734 -0.4150
 9624TIP3    H128836   3.756   4.113   3.473  0.9443 -0.3155  0.1632
 9624TIP3    H228837   3.672   4.096   3.599 -0.4841 -0.4261 -0.7804
 9625TIP3   OH228838   5.610   2.202   2.979  0.3889 -0.5494  0.8199
 9625TIP3    H128839   5.582   2.134   3.041  0.3140 -2.2056 -0.9138
 9625TIP3    H228840   5.615   2.156   2.895 -3.9728  2.4612 -1.4711
 9626TIP3   OH228841   1.340   5.600   1.801  0.8262  0.0074 -0.0644
 9626TIP3    H128842   1.287   5.549   1.740 -0.4923 -0.9589  1.7930
 9626TIP3    H228843   1.424   5.554   1.805  0.4171 -0.7518 -0.0735
 9627TIP3   OH228844   2.033   4.107   0.403 -0.6575 -0.2908  0.2547
 9627TIP3    H128845   2.129   4.115   0.407 -0.6762  1.5233 -1.6391
 9627TIP3    H228846   2.002   4.195   0.381 -2.5808 -1.3333 -1.5481
 9628TIP3   OH228847   6.908   2.638   0.765 -0.2752 -0.5054 -0.5423
 9628TIP3    H128848   6.890   2.718   0.814  1.3530 -0.9249  0.8583
 9628TIP3    H228849   6.837   2.578   0.790 -0.3267 -0.1839  0.1051
 9629TIP3   OH228850   5.154   6.314   0.143  0.2254 -0.0834  0.0368
 9629TIP3    H128851   5.205   6.266   0.078  1.0356  1.6979 -0.7035
 9629TIP3    H228852   5.165   6.265   0.224  2.1531 -0.4016 -0.3800
 9630TIP3   OH228853   4.173   6.596   2.052  0.2292 -0.6316  0.2279
 9630TIP3    H128854   4.140   6.583   1.964  3.5682 -0.0860 -1.2584
 9630TIP3    H228855   4.108   6.653   2.094  0.7578  3.2764 -3.5597
 9631TIP3   OH228856   5.064   2.553   5.557 -0.1395 -0.5310  0.3579
 9631TIP3    H128857   5.084   2.616   5.487 -0.3043  0.6214  1.3074
 9631TIP3    H228858   5.071   2.467   5.515 -0.2295  0.1238 -1.0662
 9632TIP3   OH228859   3.825   5.519   2.451  0.0794  0.4690  0.4786
 9632TIP3    H128860   3.734   5.541   2.471  0.4598  2.1730  0.4870
 9632TIP3    H228861   3.868   5.516   2.537 -0.4497 -3.1546  0.7970
 9633TIP3   OH228862   4.632   2.006   3.587 -0.6094  0.3827 -0.0373
 9633TIP3    H128863   4.596   2.071   3.647  1.0117  1.2000  0.0755
 9633TIP3    H228864   4.622   2.045   3.500 -0.3167  0.4637 -0.0358
 9634TIP3   OH228865   6.427   3.518   2.686 -0.0435  0.2776  0.4939
 9634TIP3    H128866   6.523   3.516   2.688 -0.0425 -0.1618  2.5110
 9634TIP3    H228867   6.406   3.591   2.628  1.5034  0.1141 -0.3325
 9635TIP3   OH228868   5.821   5.953   0.786  0.3562 -0.0226 -0.6815
 9635TIP3    H128869   5.838   5.970   0.879 -0.2863 -2.7623  0.0440
 9635TIP3    H228870   5.906   5.965   0.744  0.9605 -0.0096  0.4904
 9636TIP3   OH228871   0.061   6.353   4.707 -0.6001  0.2585  0.4627
 9636TIP3    H128872   0.031   6.263   4.719 -1.1446  0.5344  1.2213
 9636TIP3    H228873   0.069   6.363   4.612  0.1592 -0.8057  0.4030
 9637TIP3   OH228874   4.094   2.453   3.939 -0.4860  0.3951 -0.4746
 9637TIP3    H128875   4.009   2.414   3.957 -0.5851  1.1662  0.9059
 9637TIP3    H228876   4.118   2.496   4.021  0.1331  2.2365 -1.5613
 9638TIP3   OH228877   4.670   3.978   2.700 -0.1382  0.1245  0.2399
 9638TIP3    H128878   4.719   3.928   2.766 -0.1778  1.8811  1.6759
 9638TIP3    H228879   4.583   3.938   2.701  0.4872 -1.3497 -0.4648
 9639TIP3   OH228880   3.379   0.673   4.141  0.0727  0.1550  0.1624
 9639TIP3    H128881   3.328   0.592   4.137 -1.7202  1.2148  0.1459
 9639TIP3    H228882   3.393   0.697   4.049 -0.5987  0.5366  0.1470
 9640TIP3   OH228883   3.903   0.948   3.058 -0.1463 -0.3925  0.2313
 9640TIP3    H128884   3.938   0.877   3.112  0.1691  0.4693  1.1977
 9640TIP3    H228885   3.812   0.923   3.040 -0.3095 -0.6286  1.3206
 9641TIP3   OH228886   2.358   0.649   2.520  0.3118  0.1115 -0.3687
 9641TIP3    H128887   2.356   0.736   2.561 -2.1642 -0.1539  0.2228
 9641TIP3    H228888   2.334   0.665   2.429 -3.1924 -0.1236  0.3670
 9642TIP3   OH228889   2.975   3.217   3.341  0.2006  0.1213  0.3801
 9642TIP3    H128890   3.001   3.297   3.296  0.0770 -0.7134 -1.2445
 9642TIP3    H228891   2.904   3.182   3.288 -0.6240 -0.4098  1.7920
 9643TIP3   OH228892   5.158   0.696   4.778  0.2380 -0.0479  0.0919
 9643TIP3    H128893   5.239   0.647   4.765 -0.0817 -0.3686 -0.7536
 9643TIP3    H228894   5.149   0.750   4.699  0.2772  0.9429  0.7428
 9644TIP3   OH228895   3.985   0.507   0.688 -0.1146 -0.4995 -0.1818
 9644TIP3    H128896   3.919   0.575   0.704  0.4903 -0.0540  0.4402
 9644TIP3    H228897   4.043   0.546   0.623  0.5797 -0.1729  0.6189
 9645TIP3   OH228898   0.708   0.654   3.632 -0.1118  0.4335  0.5701
 9645TIP3    H128899   0.648   0.724   3.657  1.8223  1.9393  1.3305
 9645TIP3    H228900   0.709   0.595   3.708 -0.4297  0.5258  0.6479
 9646TIP3   OH228901   0.780   4.154   5.785  0.1103  0.2072  0.6886
 9646TIP3    H128902   0.696   4.160   5.740  0.8110  0.3025 -0.6783
 9646TIP3    H228903   0.833   4.097   5.729  1.0329  0.3610  1.3826
 9647TIP3   OH228904   4.395   1.224   3.958  0.3565 -0.1509  0.3575
 9647TIP3    H128905   4.374   1.271   3.877 -1.6101 -0.3683  0.6897
 9647TIP3    H228906   4.408   1.133   3.930 -3.4590 -0.9057  0.5375
 9648TIP3   OH228907   3.362   3.867   3.957  0.0902 -0.8842  0.2656
 9648TIP3    H128908   3.347   3.848   3.864 -0.4057  0.1028  0.1302
 9648TIP3    H228909   3.401   3.955   3.957  0.7103 -1.1476  0.9595
 9649TIP3   OH228910   3.344   5.683   5.610 -0.0380  0.3490  0.3670
 9649TIP3    H128911   3.405   5.644   5.547  0.8156  0.4762  1.0847
 9649TIP3    H228912   3.278   5.726   5.557  0.2844 -0.1268 -0.4384
 9650TIP3   OH228913   2.427   1.152   4.999  0.5772 -0.4592  0.3944
 9650TIP3    H128914   2.424   1.248   4.994  1.3091 -0.4787 -0.7301
 9650TIP3    H228915   2.507   1.128   4.951 -0.1078 -1.6818 -0.1715
 9651TIP3   OH228916   0.949   2.259   3.910 -0.2823 -0.6321  0.7709
 9651TIP3    H128917   0.968   2.292   3.822  0.5272  0.7862  1.4317
 9651TIP3    H228918   0.855   2.242   3.909 -0.9227  2.3336  0.4993
 9652TIP3   OH228919   4.643   0.687   3.390 -0.0943 -0.2267 -0.1157
 9652TIP3    H128920   4.719   0.633   3.371  1.1359  0.8598  1.4228
 9652TIP3    H228921   4.621   0.729   3.307  1.7569  0.3739 -0.3385
 9653TIP3   OH228922   2.111   0.694   0.572  0.0075 -0.6608 -0.4602
 9653TIP3    H128923   2.133   0.669   0.482 -0.1412 -1.5369 -0.2646
 9653TIP3    H228924   2.030   0.647   0.590  1.1241 -2.1603  0.8397
 9654TIP3   OH228925   1.812   3.190   2.704 -0.3075  0.2629 -0.1796
 9654TIP3    H128926   1.835   3.103   2.735 -0.8035  0.1187 -0.2160
 9654TIP3    H228927   1.745   3.175   2.638  0.0798  0.6300 -0.6614
 9655TIP3   OH228928   0.687   4.994   1.303 -0.6079 -0.4149  0.6208
 9655TIP3    H128929   0.782   4.997   1.293 -0.2856 -2.5944  2.3989
 9655TIP3    H228930   0.665   5.077   1.345  0.5928 -0.1329  0.7274
 9656TIP3   OH228931   0.075   6.021   2.906  0.1214  0.3332  0.3767
 9656TIP3    H128932   0.061   6.004   2.999  0.5002  1.2059  0.6051
 9656TIP3    H228933   0.053   5.938   2.862  1.4884 -0.6018  1.3703
 9657TIP3   OH228934   2.464   4.747   1.716 -0.0458 -0.8409 -0.3098
 9657TIP3    H128935   2.451   4.668   1.664  0.1707 -0.7040 -0.5755
 9657TIP3    H228936   2.455   4.819   1.653  0.5039 -0.6854 -0.2102
 9658TIP3   OH228937   0.701   1.548   0.209  0.1076  0.2399 -0.2077
 9658TIP3    H128938   0.777   1.553   0.151 -0.1091 -0.9075 -0.6212
 9658TIP3    H228939   0.651   1.628   0.189  0.5890  0.4034 -0.8074
 9659TIP3   OH228940   7.185   2.195   4.301 -0.3327  0.0312  0.2041
 9659TIP3    H128941   7.200   2.244   4.381  1.5596 -2.3647  1.4399
 9659TIP3    H228942   7.092   2.208   4.282 -0.3717  2.3142  1.5837
 9660TIP3   OH228943   0.717   4.717   1.444 -0.1610  0.1887  0.2518
 9660TIP3    H128944   0.630   4.757   1.433 -1.0366 -1.5187  0.6681
 9660TIP3    H228945   0.751   4.709   1.355 -0.4069  0.8781  0.0870
 9661TIP3   OH228946   4.860   4.581   0.530 -0.2220  0.0965 -0.0171
 9661TIP3    H128947   4.880   4.512   0.594  0.5407  1.1684  0.9409
 9661TIP3    H228948   4.920   4.565   0.457  2.5976  1.7694  1.7264
 9662TIP3   OH228949   1.521   3.753   1.229  0.6704  0.0388 -0.0908
 9662TIP3    H128950   1.428   3.764   1.208  0.9528 -1.3232 -2.3614
 9662TIP3    H228951   1.523   3.747   1.324 -1.6581 -0.5093 -0.0083
 9663TIP3   OH228952   1.863   2.149   0.521 -0.1145  0.0647 -0.2386
 9663TIP3    H128953   1.928   2.078   0.512 -1.6523 -1.6393  1.2836
 9663TIP3    H228954   1.872   2.178   0.612 -3.5407 -2.5082  1.1366
 9664TIP3   OH228955   4.427   2.480   3.415 -0.5398  0.0758  0.4708
 9664TIP3    H128956   4.401   2.392   3.443  2.3818 -0.8473  0.5238
 9664TIP3    H228957   4.405   2.483   3.322 -0.2993 -0.8757  0.3738
 9665TIP3   OH228958   0.325   2.814   2.370 -0.0576 -0.2256 -0.3200
 9665TIP3    H128959   0.372   2.811   2.453 -0.0874 -0.0378 -0.2957
 9665TIP3    H228960   0.349   2.733   2.325  0.4486 -0.0393 -0.3944
 9666TIP3   OH228961   2.618   5.867   0.632  0.4716 -0.0858  0.1561
 9666TIP3    H128962   2.695   5.811   0.620  0.5014 -0.2400  0.9847
 9666TIP3    H228963   2.584   5.841   0.718 -0.7680 -0.3382 -0.3944
 9667TIP3   OH228964   5.635   4.748   3.161  0.4539  0.2020 -0.0625
 9667TIP3    H128965   5.707   4.781   3.107  1.2257 -0.4802  0.5253
 9667TIP3    H228966   5.617   4.817   3.224 -0.4335  0.9965 -1.1365
 9668TIP3   OH228967   5.398   5.986   3.500 -0.2006  0.2054  0.0326
 9668TIP3    H128968   5.320   6.030   3.467 -0.6217  0.1792  0.9654
 9668TIP3    H228969   5.377   5.892   3.494  0.6970  0.0743 -1.9609
 9669TIP3   OH228970   2.082   2.173   3.153  0.1269  0.3550 -0.5558
 9669TIP3    H128971   2.156   2.226   3.122  0.9641  0.1329  0.9501
 9669TIP3    H228972   2.119   2.085   3.164  0.0038  0.5090  1.4135
 9670TIP3   OH228973   1.738   5.727   0.925 -0.2743  0.0926 -0.5801
 9670TIP3    H128974   1.662   5.759   0.974  1.6653  0.4333  2.4433
 9670TIP3    H228975   1.796   5.690   0.992  2.1218 -0.4125 -2.7894
 9671TIP3   OH228976   5.085   5.586   0.928 -0.0329  0.2716 -0.0777
 9671TIP3    H128977   5.004   5.553   0.890  0.0057 -0.5763  0.5382
 9671TIP3    H228978   5.121   5.645   0.862 -1.4955  1.1984 -0.0751
 9672TIP3   OH228979   0.688   0.770   2.796  0.4403  0.0939 -0.0744
 9672TIP3    H128980   0.720   0.813   2.716  0.2574 -0.6692 -0.5652
 9672TIP3    H228981   0.763   0.719   2.827  0.1252 -0.6199 -0.4723
 9673TIP3   OH228982   4.867   3.530   4.749  0.4865  0.2926  0.1216
 9673TIP3    H128983   4.870   3.538   4.654 -0.7989 -0.5396 -0.0105
 9673TIP3    H228984   4.959   3.538   4.777  0.8523  0.7552 -1.1561
 9674TIP3   OH228985   2.578   2.373   1.518  0.8198 -0.5695  0.3870
 9674TIP3    H128986   2.525   2.452   1.527  0.5912 -0.7935  1.1401
 9674TIP3    H228987   2.553   2.335   1.434 -0.2625 -0.6953  0.7466
 9675TIP3   OH228988   7.060   4.472   3.631 -0.3007  0.0480  0.0592
 9675TIP3    H128989   7.086   4.548   3.683  0.6021  0.0655 -0.4020
 9675TIP3    H228990   7.111   4.479   3.550 -1.8149  0.1186 -0.9316
 9676TIP3   OH228991   2.781   2.072   4.549  0.6576  0.2446 -0.2461
 9676TIP3    H128992   2.864   2.035   4.519 -0.0506 -1.7557  0.1235
 9676TIP3    H228993   2.799   2.165   4.561  2.6364 -0.0212 -0.8847
 9677TIP3   OH228994   0.248   4.993   3.672  0.1312  0.1666 -0.0158
 9677TIP3    H128995   0.222   5.076   3.631  0.5489  0.7009  0.7816
 9677TIP3    H228996   0.316   5.017   3.735  1.1595 -0.9540 -0.6548
 9678TIP3   OH228997   5.304   5.380   3.001 -0.4553  0.1607  0.0149
 9678TIP3    H128998   5.347   5.372   2.916 -0.5337 -0.0332 -0.0059
 9678TIP3    H228999   5.291   5.474   3.012 -0.4993  0.1826 -0.2147
 9679TIP3   OH229000   6.772   2.187   1.983  0.8295 -0.1891 -0.1537
 9679TIP3    H129001   6.800   2.142   2.062 -0.2820  0.8689  0.8705
 9679TIP3    H229002   6.744   2.273   2.012  0.5335  0.2778 -1.7213
 9680TIP3   OH229003   5.818   4.960   3.193 -0.1739  0.2315  0.2518
 9680TIP3    H129004   5.843   4.942   3.103 -1.1465  0.8053 -0.1379
 9680TIP3    H229005   5.843   5.051   3.208  0.2605  0.0505  0.6663
 9681TIP3   OH229006   0.290   3.443   2.116  0.0698  0.3052  0.1380
 9681TIP3    H129007   0.196   3.432   2.099 -0.3097  1.1253  1.6013
 9681TIP3    H229008   0.331   3.415   2.034 -1.3887 -0.8894 -0.2492
 9682TIP3   OH229009   1.162   3.710   5.074 -0.3437 -0.5962 -0.2496
 9682TIP3    H129010   1.182   3.723   4.982  0.1209 -1.2043 -0.2348
 9682TIP3    H229011   1.236   3.751   5.121  0.0761 -1.4240 -0.1722
 9683TIP3   OH229012   2.710   1.002   0.828  0.1988  0.0172 -0.2603
 9683TIP3    H129013   2.753   1.010   0.743 -0.0224 -1.0070 -0.4797
 9683TIP3    H229014   2.733   1.083   0.874  1.5400 -0.0676 -0.7377
 9684TIP3   OH229015   0.336   0.456   4.481 -0.0465 -0.0642  0.3757
 9684TIP3    H129016   0.315   0.549   4.477 -1.3500 -0.1029  3.3599
 9684TIP3    H229017   0.378   0.444   4.566 -0.6005 -2.2999  0.4154
 9685TIP3   OH229018   6.432   6.511   1.942  0.0663 -0.0078 -0.6601
 9685TIP3    H129019   6.501   6.530   1.879  0.7813 -0.9789 -0.1933
 9685TIP3    H229020   6.371   6.584   1.934  0.1773 -0.0697 -2.4188
 9686TIP3   OH229021   6.863   2.557   0.155 -0.9242  0.0596 -0.2567
 9686TIP3    H129022   6.940   2.512   0.191 -1.4854 -0.1923  0.6801
 9686TIP3    H229023   6.887   2.578   0.065 -0.5848 -2.0262 -0.7157
 9687TIP3   OH229024   1.419   3.141   1.196  0.2635  0.1740  0.3199
 9687TIP3    H129025   1.473   3.061   1.202  0.0796 -0.1724 -1.7196
 9687TIP3    H229026   1.478   3.211   1.221  1.1728 -0.3886 -0.1633
 9688TIP3   OH229027   7.204   2.051   0.516 -0.2329  0.5739 -0.2009
 9688TIP3    H129028   7.213   2.129   0.570  1.0656  1.3024 -1.4353
 9688TIP3    H229029   7.154   2.079   0.440 -0.8722 -0.1296 -0.0620
 9689TIP3   OH229030   5.934   1.798   0.865  0.2296  0.1143 -0.1634
 9689TIP3    H129031   5.863   1.788   0.802 -1.0822 -0.1605  1.2997
 9689TIP3    H229032   5.975   1.712   0.868  0.1522  0.0645 -0.4699
 9690TIP3   OH229033   6.572   3.619   2.311 -0.6584 -0.3753 -0.3438
 9690TIP3    H129034   6.640   3.658   2.256 -0.2395 -2.0470 -1.0713
 9690TIP3    H229035   6.500   3.683   2.309 -0.1505  0.1878 -1.7692
 9691TIP3   OH229036   2.235   3.206   3.299 -0.6953  0.0647 -0.3131
 9691TIP3    H129037   2.317   3.233   3.257 -0.3016  0.5179  0.7248
 9691TIP3    H229038   2.173   3.199   3.226  0.3816 -0.7875 -1.1762
 9692TIP3   OH229039   1.360   0.261   0.390 -0.2840 -0.5546 -0.1451
 9692TIP3    H129040   1.427   0.213   0.341  0.6940  0.6405 -0.0261
 9692TIP3    H229041   1.278   0.216   0.369  0.1178 -0.2310 -2.7350
 9693TIP3   OH229042   2.319   2.980   2.871  0.2653 -0.4643 -0.3068
 9693TIP3    H129043   2.345   3.062   2.912  0.0822 -0.5234 -0.0711
 9693TIP3    H229044   2.341   2.991   2.778  1.5833 -0.6991 -0.0422
 9694TIP3   OH229045   5.078   4.885   2.817  0.3556 -0.5073  0.2876
 9694TIP3    H129046   5.102   4.906   2.727 -0.1384  1.1991  0.5266
 9694TIP3    H229047   5.116   4.956   2.869 -1.3093 -0.2285  1.1690
 9695TIP3   OH229048   3.102   5.435   0.638 -0.0807 -0.1514  0.3000
 9695TIP3    H129049   3.191   5.403   0.625  0.7213  2.0922 -0.1801
 9695TIP3    H229050   3.109   5.494   0.713 -1.7620 -1.8958  1.9625
 9696TIP3   OH229051   0.305   0.855   3.382  0.3083  0.4471  0.6303
 9696TIP3    H129052   0.391   0.835   3.346  0.5228  0.0817  1.3189
 9696TIP3    H229053   0.290   0.785   3.447 -1.2743 -0.5259 -0.7264
 9697TIP3   OH229054   5.267   0.327   2.313  0.4717 -0.1327  0.2589
 9697TIP3    H129055   5.312   0.242   2.304 -1.1856 -1.1388  1.0614
 9697TIP3    H229056   5.306   0.366   2.391 -0.4651 -1.3059  1.3533
 9698TIP3   OH229057   2.585   1.700   2.721  0.3509 -0.6603 -0.4377
 9698TIP3    H129058   2.559   1.756   2.648  1.6015  0.2139 -0.2485
 9698TIP3    H229059   2.545   1.742   2.798  1.1964 -0.0488 -0.3104
 9699TIP3   OH229060   5.075   4.442   2.120 -0.6896  0.4176 -0.0523
 9699TIP3    H129061   5.058   4.509   2.053  0.4580  0.0951 -0.6858
 9699TIP3    H229062   5.108   4.367   2.071  0.3863  0.2590  0.8861
 9700TIP3   OH229063   2.747   3.989   3.011 -0.2111 -0.3490  0.1543
 9700TIP3    H129064   2.785   3.978   3.098 -0.1911  0.1479  0.2138
 9700TIP3    H229065   2.727   4.083   3.005  1.6211  0.0194 -1.1036
 9701TIP3   OH229066   2.317   2.460   1.986 -0.1730 -0.1144 -0.2477
 9701TIP3    H129067   2.248   2.425   2.042  0.1635  0.4542  0.5354
 9701TIP3    H229068   2.346   2.539   2.030 -0.3905  0.7478 -1.5867
 9702TIP3   OH229069   1.396   4.349   4.263 -0.6471 -0.3995 -0.1308
 9702TIP3    H129070   1.465   4.393   4.313 -1.0799  2.5127 -1.8556
 9702TIP3    H229071   1.343   4.306   4.330 -0.1278  1.6955  1.7892
 9703TIP3   OH229072   4.075   1.051   0.922  0.2884 -0.4018  0.4245
 9703TIP3    H129073   4.152   1.031   0.869  1.3990  0.5532  1.5980
 9703TIP3    H229074   4.111   1.095   1.000 -1.4588  0.2561  0.9006
 9704TIP3   OH229075   5.859   4.818   5.156  0.5497  0.2166  0.5324
 9704TIP3    H129076   5.911   4.775   5.224 -1.3610 -4.4360 -0.5910
 9704TIP3    H229077   5.781   4.850   5.202  0.8886  0.3909  1.0040
 9705TIP3   OH229078   2.424   6.000   1.987  0.5343 -0.7154 -0.2048
 9705TIP3    H129079   2.397   6.082   1.944  0.5684 -1.0598 -0.9063
 9705TIP3    H229080   2.484   6.027   2.056  2.6360 -0.2911 -2.0766
 9706TIP3   OH229081   1.873   3.085   1.357  0.3994 -0.2189 -0.1209
 9706TIP3    H129082   1.885   2.995   1.386 -2.0596 -0.6769 -0.3300
 9706TIP3    H229083   1.890   3.138   1.436  0.2311 -0.9805  0.4385
 9707TIP3   OH229084   1.340   0.719   0.237 -0.3264 -0.7412 -0.3270
 9707TIP3    H129085   1.250   0.729   0.266 -0.0102 -1.6365  1.0790
 9707TIP3    H229086   1.341   0.752   0.147 -1.7877  0.3612  0.0355
 9708TIP3   OH229087   0.555   0.335   2.806 -0.3751 -0.3180 -0.0711
 9708TIP3    H129088   0.562   0.332   2.902  0.9004  0.9614 -0.0885
 9708TIP3    H229089   0.505   0.256   2.784 -2.6851  0.4843  1.7817
 9709TIP3   OH229090   1.718   2.872   2.813 -0.8498 -0.2181  0.7947
 9709TIP3    H129091   1.803   2.887   2.772 -0.8162  0.1815  1.0055
 9709TIP3    H229092   1.739   2.820   2.891 -0.6403  0.8939  1.5106
 9710TIP3   OH229093   2.372   6.740   2.159 -0.5081  0.0114  0.2511
 9710TIP3    H129094   2.285   6.779   2.163  0.0573  1.2282  1.3727
 9710TIP3    H229095   2.393   6.718   2.250  1.5223  2.5074  0.5225
 9711TIP3   OH229096   1.094   4.574   3.652 -0.6797  0.7911 -0.4209
 9711TIP3    H129097   1.173   4.624   3.630  0.8238 -0.7132  1.2369
 9711TIP3    H229098   1.095   4.568   3.747 -1.7518 -0.8536 -0.4688
 9712TIP3   OH229099   0.295   2.471   4.506  0.3781 -0.2148  0.5377
 9712TIP3    H129100   0.364   2.427   4.556  1.4458 -0.8349 -1.3814
 9712TIP3    H229101   0.234   2.502   4.572  2.0075 -0.4813  2.2600
 9713TIP3   OH229102   4.873   5.799   4.678  0.2618 -0.1243  0.3066
 9713TIP3    H129103   4.881   5.885   4.638  0.7274  0.0475  0.7604
 9713TIP3    H229104   4.823   5.814   4.758 -3.5998 -0.9564 -1.7415
 9714TIP3   OH229105   4.422   4.341   1.461  0.9071 -0.3624 -0.4719
 9714TIP3    H129106   4.452   4.324   1.372 -0.9326 -0.5770 -1.0974
 9714TIP3    H229107   4.338   4.297   1.467  0.0877  1.2401  0.7331
 9715TIP3   OH229108   2.434   0.134   4.740  0.0472 -0.2425  0.5440
 9715TIP3    H129109   2.359   0.129   4.798 -1.1657 -1.0561 -1.0163
 9715TIP3    H229110   2.398   0.117   4.653  2.3069 -2.5703 -0.0663
 9716TIP3   OH229111   1.362   2.821   0.364 -0.0970  0.2472 -0.1315
 9716TIP3    H129112   1.441   2.767   0.366 -0.2298  0.0311 -0.5899
 9716TIP3    H229113   1.310   2.784   0.292  0.0902  1.3811 -0.8732
 9717TIP3   OH229114   2.808   4.277   1.311 -0.2672  0.1293  0.0716
 9717TIP3    H129115   2.873   4.226   1.262 -0.3369  0.4428 -0.3583
 9717TIP3    H229116   2.826   4.368   1.286  1.0973  0.5397  2.2762
 9718TIP3   OH229117   1.104   6.422   2.927  0.1338  0.1740  0.1810
 9718TIP3    H129118   1.089   6.331   2.902 -1.7476  0.5233 -0.1491
 9718TIP3    H229119   1.147   6.461   2.852  0.4500 -0.3187  0.1053
 9719TIP3   OH229120   0.157   4.227   3.130  0.0301  0.4783  0.0724
 9719TIP3    H129121   0.068   4.194   3.135 -0.0251  0.6496  0.2244
 9719TIP3    H229122   0.183   4.238   3.221  0.5268 -0.4391  0.0545
 9720TIP3   OH229123   6.404   1.788   5.052  0.5443  1.0716 -0.2949
 9720TIP3    H129124   6.495   1.762   5.040 -0.1124 -2.5151  1.4259
 9720TIP3    H229125   6.402   1.830   5.138  0.3844 -0.0132  0.2386
 9721TIP3   OH229126   0.527   5.914   1.191 -0.0232 -0.1539  0.3089
 9721TIP3    H129127   0.583   5.933   1.265  0.4294 -0.5779  0.0766
 9721TIP3    H229128   0.445   5.961   1.210 -0.1818 -0.8443  1.4221
 9722TIP3   OH229129   5.624   6.803   0.516 -0.2048  0.9783  0.3660
 9722TIP3    H129130   5.717   6.822   0.525 -0.2063  0.7235  0.9603
 9722TIP3    H229131   5.603   6.749   0.592 -0.3934 -0.6535 -0.7779
 9723TIP3   OH229132   0.049   1.673   3.984 -0.4577  0.1919  0.1013
 9723TIP3    H129133   0.053   1.683   4.079  1.6713  1.9572 -0.0903
 9723TIP3    H229134   0.012   1.756   3.953 -0.8083 -0.2309 -0.6526
 9724TIP3   OH229135   2.480   2.585   3.309 -0.3224  0.1176 -0.0876
 9724TIP3    H129136   2.498   2.679   3.315 -2.4042  0.6588 -1.1305
 9724TIP3    H229137   2.421   2.567   3.383 -1.0613 -0.0247 -0.6919
 9725TIP3   OH229138   7.077   2.224   3.532  0.3407 -0.2476 -0.3984
 9725TIP3    H129139   7.028   2.256   3.608  2.0657 -0.3090  0.7962
 9725TIP3    H229140   7.166   2.214   3.564  0.9547 -1.0387 -2.2472
 9726TIP3   OH229141   4.353   0.913   4.699 -0.4828 -0.5860 -0.3688
 9726TIP3    H129142   4.441   0.948   4.684 -0.1725 -1.4127 -0.5735
 9726TIP3    H229143   4.294   0.978   4.662 -0.3527  2.6259  4.1553
 9727TIP3   OH229144   0.784   0.993   3.151 -0.1760  0.5592  0.0818
 9727TIP3    H129145   0.808   1.013   3.061  1.0382  0.4818  0.3761
 9727TIP3    H229146   0.750   1.076   3.185 -2.8624  0.0477 -1.0898
 9728TIP3   OH229147   3.548   1.611   5.781  0.1502  0.4575  0.6930
 9728TIP3    H129148   3.595   1.632   5.700 -1.0037 -0.0022 -0.1268
 9728TIP3    H229149   3.604   1.548   5.826  1.1163  1.2148  0.5949
 9729TIP3   OH229150   4.381   2.876   1.995 -0.6328  0.0943 -0.6062
 9729TIP3    H129151   4.350   2.946   2.053  0.3916 -0.4283  0.6052
 9729TIP3    H229152   4.448   2.918   1.941 -0.8411  0.3309 -0.6813
 9730TIP3   OH229153   5.179   6.234   2.243 -0.1126  0.7237 -0.5343
 9730TIP3    H129154   5.084   6.220   2.249  0.0808 -0.4964  0.0181
 9730TIP3    H229155   5.196   6.305   2.306 -0.7831  1.7131 -1.4299
 9731TIP3   OH229156   0.079   3.475   1.067  0.3072  0.2201 -0.0076
 9731TIP3    H129157   0.150   3.507   1.012 -1.1271  0.2962 -1.9519
 9731TIP3    H229158   0.065   3.385   1.038  0.0762 -0.0172  0.8317
 9732TIP3   OH229159   5.705   6.303   0.800  0.5473 -0.1671 -0.1442
 9732TIP3    H129160   5.612   6.281   0.796  0.3827  0.4189  0.3566
 9732TIP3    H229161   5.734   6.301   0.708 -0.6065  2.3650 -0.6591
 9733TIP3   OH229162   4.217   6.560   5.423  0.1418  0.0951 -0.5671
 9733TIP3    H129163   4.239   6.497   5.355  0.1185  0.4880 -0.9454
 9733TIP3    H229164   4.138   6.525   5.464  0.0362 -0.0379 -0.8818
 9734TIP3   OH229165   1.974   3.991   1.689  0.5642 -0.3206  0.4283
 9734TIP3    H129166   2.058   3.954   1.713 -0.1470 -0.6653  2.5866
 9734TIP3    H229167   1.913   3.958   1.755 -1.6774 -1.5770 -2.0462
 9735TIP3   OH229168   5.815   4.129   1.061 -0.4986 -0.4900  0.7066
 9735TIP3    H129169   5.893   4.075   1.063 -0.1622 -0.0325  0.1857
 9735TIP3    H229170   5.750   4.076   1.015 -0.1705 -0.4666  0.1998
 9736TIP3   OH229171   1.928   3.246   4.693 -0.0008 -0.3812  0.0457
 9736TIP3    H129172   1.974   3.174   4.736  2.8383  0.7365 -0.8308
 9736TIP3    H229173   1.978   3.325   4.717 -1.0529  0.8557 -1.5459
 9737TIP3   OH229174   2.440   6.631   4.612 -0.2884  0.0367 -0.4444
 9737TIP3    H129175   2.369   6.681   4.652  0.4053  1.3736 -0.8072
 9737TIP3    H229176   2.403   6.599   4.530 -0.1567  1.7666 -1.2327
 9738TIP3   OH229177   0.931   3.989   3.466  0.1718 -0.0068  0.7342
 9738TIP3    H129178   0.913   3.951   3.380 -0.0574  0.2934  0.6461
 9738TIP3    H229179   0.948   3.914   3.523 -2.6923 -0.4800  1.1386
 9739TIP3   OH229180   1.929   6.747   2.655 -0.2717  0.3091 -0.2048
 9739TIP3    H129181   1.857   6.799   2.688 -0.9320 -0.6063 -0.1542
 9739TIP3    H229182   1.919   6.661   2.697  1.8425  0.6412  1.1363
 9740TIP3   OH229183   5.132   1.626   0.206 -0.2328  0.2091  0.0097
 9740TIP3    H129184   5.211   1.627   0.153  0.4283  1.1980  0.9758
 9740TIP3    H229185   5.119   1.533   0.228  1.9131  0.2120  1.6292
 9741TIP3   OH229186   4.049   1.908   0.387 -0.0883  0.7232  0.0682
 9741TIP3    H129187   3.965   1.879   0.350 -0.2514  1.3838 -0.1021
 9741TIP3    H229188   4.054   1.865   0.472 -0.0604 -0.2336 -0.3989
 9742TIP3   OH229189   4.300   5.049   1.427  0.4315 -0.0519  0.6174
 9742TIP3    H129190   4.352   4.969   1.424  1.6729  0.7619 -0.9934
 9742TIP3    H229191   4.284   5.071   1.335 -1.8819  0.3143  1.0476
 9743TIP3   OH229192   4.433   1.813   1.596  0.1023 -0.1609 -0.1355
 9743TIP3    H129193   4.423   1.824   1.690  0.3559 -0.8156 -0.0211
 9743TIP3    H229194   4.525   1.788   1.585 -0.1468 -0.9653 -0.4640
 9744TIP3   OH229195   5.281   3.436   4.013  0.6355  0.2561  0.2263
 9744TIP3    H129196   5.208   3.451   3.953 -0.8086 -2.4421  1.1321
 9744TIP3    H229197   5.353   3.406   3.956 -0.3525 -1.1670 -0.3362
 9745TIP3   OH229198   3.523   0.958   2.944 -0.1211  0.6251  0.4923
 9745TIP3    H129199   3.434   0.935   2.917  0.3749 -0.0792 -0.6062
 9745TIP3    H229200   3.579   0.921   2.876  1.0252  0.9785  1.2174
 9746TIP3   OH229201   7.011   4.240   0.231  0.3897 -0.8402 -0.2747
 9746TIP3    H129202   6.929   4.217   0.188 -0.0483 -0.7049  0.4528
 9746TIP3    H229203   7.079   4.210   0.172 -0.1787  0.0185 -1.4080
 9747TIP3   OH229204   3.477   1.980   0.756 -0.0891 -0.5545  0.3398
 9747TIP3    H129205   3.455   2.051   0.696  1.0669 -1.0639 -0.7383
 9747TIP3    H229206   3.397   1.928   0.762 -0.9372  0.7966  1.1251
 9748TIP3   OH229207   4.265   0.639   3.174 -0.0488  0.6296 -0.3312
 9748TIP3    H129208   4.283   0.559   3.125 -2.7046 -0.3090  0.0471
 9748TIP3    H229209   4.239   0.702   3.106  0.0480  0.5198 -0.4720
 9749TIP3   OH229210   6.947   2.491   1.470  0.4260 -0.0319  0.0655
 9749TIP3    H129211   7.019   2.480   1.408  0.8696  0.3687  0.4951
 9749TIP3    H229212   6.930   2.403   1.503 -0.8083 -0.4857 -1.6921
   7.21228   6.79982   5.88879   0.00000   0.00000  -2.40410   0.00000  -2.40410  -3.39990
