Title t= 489.00000 step= 244500
44469
    1GLY      N    1   6.443   5.724   3.866
    1GLY    HT1    2   6.483   5.770   3.782
    1GLY    HT2    3   6.504   5.736   3.950
    1GLY    HT3    4   6.357   5.771   3.899
    1GLY     CA    5   6.438   5.579   3.837
    1GLY    HA1    6   6.395   5.537   3.926
    1GLY    HA2    7   6.540   5.551   3.813
    1GLY      C    8   6.352   5.565   3.711
    1GLY      O    9   6.233   5.584   3.719
    2PRO      N   10   6.416   5.542   3.594
    2PRO     CD   11   6.561   5.579   3.574
    2PRO    HD1   12   6.632   5.506   3.618
    2PRO    HD2   13   6.580   5.683   3.608
    2PRO     CA   14   6.344   5.517   3.463
    2PRO     HA   15   6.298   5.606   3.423
    2PRO     CB   16   6.467   5.493   3.370
    2PRO    HB1   17   6.443   5.510   3.263
    2PRO    HB2   18   6.509   5.390   3.374
    2PRO     CG   19   6.568   5.588   3.417
    2PRO    HG1   20   6.665   5.554   3.375
    2PRO    HG2   21   6.541   5.687   3.376
    2PRO      C   22   6.244   5.413   3.470
    2PRO      O   23   6.146   5.411   3.395
    3GLY      N   24   6.254   5.312   3.561
    3GLY     HN   25   6.332   5.304   3.623
    3GLY     CA   26   6.167   5.206   3.582
    3GLY    HA1   27   6.233   5.123   3.605
    3GLY    HA2   28   6.106   5.194   3.494
    3GLY      C   29   6.073   5.209   3.698
    3GLY      O   30   6.005   5.109   3.717
    4ASN      N   31   6.066   5.324   3.776
    4ASN     HN   32   6.107   5.410   3.745
    4ASN     CA   33   5.988   5.329   3.895
    4ASN     HA   34   6.009   5.233   3.941
    4ASN     CB   35   6.025   5.438   3.998
    4ASN    HB1   36   5.951   5.442   4.080
    4ASN    HB2   37   6.021   5.534   3.942
    4ASN     CG   38   6.161   5.413   4.061
    4ASN    OD1   39   6.214   5.303   4.059
    4ASN    ND2   40   6.212   5.520   4.119
    4ASN   HD21   41   6.291   5.508   4.180
    4ASN   HD22   42   6.178   5.613   4.104
    4ASN      C   43   5.839   5.334   3.866
    4ASN      O   44   5.803   5.401   3.770
    5PRO      N   45   5.737   5.271   3.929
    5PRO     CD   46   5.758   5.152   4.016
    5PRO    HD1   47   5.823   5.177   4.102
    5PRO    HD2   48   5.804   5.072   3.954
    5PRO     CA   49   5.598   5.318   3.928
    5PRO     HA   50   5.561   5.281   3.834
    5PRO     CB   51   5.535   5.253   4.055
    5PRO    HB1   52   5.426   5.236   4.042
    5PRO    HB2   53   5.546   5.321   4.143
    5PRO     CG   54   5.617   5.121   4.063
    5PRO    HG1   55   5.625   5.082   4.167
    5PRO    HG2   56   5.584   5.037   3.999
    5PRO      C   57   5.570   5.465   3.930
    5PRO      O   58   5.639   5.548   3.984
    6GLY      N   59   5.462   5.499   3.855
    6GLY     HN   60   5.404   5.431   3.811
    6GLY     CA   61   5.399   5.629   3.844
    6GLY    HA1   62   5.311   5.605   3.786
    6GLY    HA2   63   5.467   5.695   3.792
    6GLY      C   64   5.367   5.697   3.974
    6GLY      O   65   5.375   5.636   4.081
    7PRO      N   66   5.328   5.822   3.974
    7PRO     CD   67   5.322   5.901   3.845
    7PRO    HD1   68   5.245   5.856   3.779
    7PRO    HD2   69   5.423   5.898   3.797
    7PRO     CA   70   5.318   5.908   4.089
    7PRO     HA   71   5.393   5.875   4.159
    7PRO     CB   72   5.349   6.045   4.029
    7PRO    HB1   73   5.457   6.067   4.015
    7PRO    HB2   74   5.300   6.133   4.075
    7PRO     CG   75   5.290   6.036   3.889
    7PRO    HG1   76   5.180   6.052   3.884
    7PRO    HG2   77   5.340   6.107   3.820
    7PRO      C   78   5.178   5.897   4.159
    7PRO      O   79   5.156   5.960   4.265
    8GLY      N   80   5.087   5.828   4.107
    8GLY     HN   81   5.106   5.782   4.020
    8GLY     CA   82   4.945   5.833   4.156
    8GLY    HA1   83   4.943   5.859   4.261
    8GLY    HA2   84   4.903   5.735   4.136
    8GLY      C   85   4.851   5.925   4.081
    8GLY      O   86   4.886   6.015   4.006
    9ASN      N   87   4.721   5.902   4.105
    9ASN     HN   88   4.705   5.818   4.156
    9ASN     CA   89   4.611   5.993   4.062
    9ASN     HA   90   4.598   5.980   3.955
    9ASN     CB   91   4.470   5.953   4.112
    9ASN    HB1   92   4.396   6.021   4.065
    9ASN    HB2   93   4.463   5.964   4.223
    9ASN     CG   94   4.426   5.814   4.063
    9ASN    OD1   95   4.448   5.775   3.947
    9ASN    ND2   96   4.358   5.745   4.160
    9ASN   HD21   97   4.314   5.658   4.138
    9ASN   HD22   98   4.334   5.785   4.248
    9ASN      C   99   4.637   6.142   4.090
    9ASN      O  100   4.679   6.166   4.205
   10PRO      N  101   4.615   6.238   4.004
   10PRO     CD  102   4.590   6.224   3.859
   10PRO    HD1  103   4.496   6.171   3.834
   10PRO    HD2  104   4.679   6.172   3.816
   10PRO     CA  105   4.612   6.382   4.050
   10PRO     HA  106   4.715   6.414   4.056
   10PRO     CB  107   4.547   6.453   3.928
   10PRO    HB1  108   4.593   6.554   3.929
   10PRO    HB2  109   4.437   6.468   3.935
   10PRO     CG  110   4.585   6.369   3.808
   10PRO    HG1  111   4.529   6.380   3.713
   10PRO    HG2  112   4.692   6.391   3.787
   10PRO      C  113   4.548   6.424   4.175
   10PRO      O  114   4.454   6.360   4.221
   11GLY      N  115   4.592   6.539   4.235
   11GLY     HN  116   4.669   6.582   4.187
   11GLY     CA  117   4.539   6.609   4.354
   11GLY    HA1  118   4.594   6.702   4.362
   11GLY    HA2  119   4.556   6.541   4.436
   11GLY      C  120   4.395   6.653   4.359
   11GLY      O  121   4.329   6.650   4.256
   12PRO      N  122   4.342   6.692   4.479
   12PRO     CD  123   4.414   6.710   4.606
   12PRO    HD1  124   4.515   6.757   4.614
   12PRO    HD2  125   4.414   6.605   4.642
   12PRO     CA  126   4.208   6.722   4.493
   12PRO     HA  127   4.151   6.637   4.458
   12PRO     CB  128   4.182   6.749   4.644
   12PRO    HB1  129   4.146   6.654   4.688
   12PRO    HB2  130   4.099   6.818   4.672
   12PRO     CG  131   4.320   6.797   4.692
   12PRO    HG1  132   4.338   6.905   4.673
   12PRO    HG2  133   4.320   6.776   4.801
   12PRO      C  134   4.167   6.852   4.423
   12PRO      O  135   4.061   6.846   4.355
   13GLY      N  136   4.236   6.964   4.444
   13GLY     HN  137   4.325   6.950   4.487
   13GLY     CA  138   4.215   7.088   4.373
   13GLY    HA1  139   4.210   7.054   4.271
   13GLY    HA2  140   4.303   7.151   4.383
   13GLY      C  141   4.087   7.157   4.423
   13GLY      O  142   4.029   7.104   4.517
   14ASN      N  143   4.038   7.272   4.367
   14ASN     HN  144   4.076   7.319   4.287
   14ASN     CA  145   3.918   7.348   4.413
   14ASN     HA  146   3.906   7.311   4.514
   14ASN     CB  147   3.931   7.507   4.417
   14ASN    HB1  148   3.832   7.551   4.442
   14ASN    HB2  149   3.968   7.542   4.318
   14ASN     CG  150   4.029   7.545   4.527
   14ASN    OD1  151   4.091   7.469   4.599
   14ASN    ND2  152   4.048   7.686   4.551
   14ASN   HD21  153   4.103   7.702   4.633
   14ASN   HD22  154   3.981   7.755   4.521
   14ASN      C  155   3.799   7.315   4.317
   14ASN      O  156   3.802   7.375   4.211
   15PRO      N  157   3.707   7.229   4.354
   15PRO     CD  158   3.729   7.130   4.455
   15PRO    HD1  159   3.758   7.167   4.555
   15PRO    HD2  160   3.792   7.055   4.402
   15PRO     CA  161   3.564   7.219   4.309
   15PRO     HA  162   3.571   7.214   4.202
   15PRO     CB  163   3.511   7.092   4.370
   15PRO    HB1  164   3.534   7.010   4.299
   15PRO    HB2  165   3.401   7.094   4.389
   15PRO     CG  166   3.594   7.067   4.493
   15PRO    HG1  167   3.557   7.131   4.576
   15PRO    HG2  168   3.598   6.960   4.523
   15PRO      C  169   3.480   7.340   4.343
   15PRO    OT1  170   3.448   7.410   4.245
   15PRO    OT2  171   3.438   7.356   4.459
   16LIT    LIT  172   1.771   6.354   3.883
   17LIT    LIT  173   4.458   1.990   0.914
   18LIT    LIT  174   6.330   3.876   6.645
   19LIT    LIT  175   1.276   5.993   4.705
   20LIT    LIT  176   3.783   1.977   5.324
   21LIT    LIT  177   1.963   6.071   6.414
   22LIT    LIT  178   5.366   7.227   3.527
   23LIT    LIT  179   3.654   1.112   5.571
   24LIT    LIT  180   3.934   6.191   0.715
   25LIT    LIT  181   6.157   6.114   4.996
   26LIT    LIT  182   4.545   6.942   2.856
   27LIT    LIT  183   1.315   1.092   1.660
   28LIT    LIT  184   1.967   2.535   5.597
   29LIT    LIT  185   7.760   0.439   1.138
   30LIT    LIT  186   6.321   2.309   6.291
   31LIT    LIT  187   0.355   2.156   1.233
   32LIT    LIT  188   5.098   1.530   2.313
   33LIT    LIT  189   0.729   5.382   4.838
   34LIT    LIT  190   7.730   1.789   1.968
   35LIT    LIT  191   6.587   5.743   5.048
   36LIT    LIT  192   5.815   4.091   0.650
   37LIT    LIT  193   5.154   5.845   0.064
   38LIT    LIT  194   2.134   1.195   3.267
   39LIT    LIT  195   3.720   5.526   6.698
   40LIT    LIT  196   5.480   0.891   6.542
   41LIT    LIT  197   1.234   6.912   5.349
   42LIT    LIT  198   0.197   2.443   3.493
   43LIT    LIT  199   2.724   7.535   4.701
   44LIT    LIT  200   3.846   3.662   4.369
   45LIT    LIT  201   3.813   2.732   5.711
   46LIT    LIT  202   5.651   4.860   6.090
   47LIT    LIT  203   6.034   4.012   4.094
   48LIT    LIT  204   0.434   7.175   6.472
   49LIT    LIT  205   0.953   3.429   3.050
   50LIT    LIT  206   2.163   4.476   0.697
   51LIT    LIT  207   4.458   1.914   2.559
   52LIT    LIT  208   4.918   3.190   1.332
   53LIT    LIT  209   5.280   2.902   6.347
   54LIT    LIT  210   4.135   7.567   3.335
   55LIT    LIT  211   7.921   3.974   0.007
   56LIT    LIT  212   0.190   3.636   0.178
   57LIT    LIT  213   7.814   4.756   3.791
   58CLA    CLA  214   2.138   1.623   3.106
   59CLA    CLA  215   3.405   7.798   2.300
   60CLA    CLA  216   0.721   0.999   3.303
   61CLA    CLA  217   5.117   5.220   4.777
   62CLA    CLA  218   5.837   6.200   1.610
   63CLA    CLA  219   2.243  -0.004   2.977
   64CLA    CLA  220   1.034   5.472   4.146
   65CLA    CLA  221   0.713   7.720   5.605
   66CLA    CLA  222   5.798   3.003   5.877
   67CLA    CLA  223   8.273   4.539   4.063
   68CLA    CLA  224   0.935   6.004   4.375
   69CLA    CLA  225   5.671   3.799   1.147
   70CLA    CLA  226   5.433   4.758   0.005
   71CLA    CLA  227   0.185   5.032   4.603
   72CLA    CLA  228   3.720   2.177   1.548
   73CLA    CLA  229   1.058   1.625   2.806
   74CLA    CLA  230   3.618   2.845   5.774
   75CLA    CLA  231   2.655   3.639   5.507
   76CLA    CLA  232   4.608   3.506   4.047
   77CLA    CLA  233   5.854   4.432   4.080
   78CLA    CLA  234   2.737   0.242   5.520
   79CLA    CLA  235   5.361   0.236   4.406
   80CLA    CLA  236   1.087   5.512   2.344
   81CLA    CLA  237   4.387   3.020   0.515
   82CLA    CLA  238   8.054   2.379   2.045
   83CLA    CLA  239   4.877   5.487   1.914
   84CLA    CLA  240   2.692   6.584   1.337
   85CLA    CLA  241   8.273   0.733   1.067
   86CLA    CLA  242   7.167   0.468   3.939
   87CLA    CLA  243   0.260   2.454   2.968
   88CLA    CLA  244   4.201   4.917   4.500
   89CLA    CLA  245   7.128   4.422   2.721
   90CLA    CLA  246   3.360   0.008   6.596
   91CLA    CLA  247   3.647   0.324   0.807
   92CLA    CLA  248   7.571   0.853   1.367
   93CLA    CLA  249   6.270   6.127   1.073
   94CLA    CLA  250   1.373   5.015   2.784
   95CLA    CLA  251   0.246   2.678   5.787
   96CLA    CLA  252   1.168   1.248   0.079
   97CLA    CLA  253   4.476   0.456   6.153
   98CLA    CLA  254   0.383   5.388   5.359
   99CLA    CLA  255   6.979   3.779   0.288
  100TIP3   OH2  256   5.157   0.830   4.663
  100TIP3    H1  257   5.177   0.917   4.698
  100TIP3    H2  258   5.130   0.845   4.573
  101TIP3   OH2  259   6.513   3.225   1.548
  101TIP3    H1  260   6.459   3.146   1.550
  101TIP3    H2  261   6.567   3.220   1.627
  102TIP3   OH2  262   6.018   4.674   6.641
  102TIP3    H1  263   6.012   4.649   6.733
  102TIP3    H2  264   5.941   4.727   6.625
  103TIP3   OH2  265   1.872   4.559   6.204
  103TIP3    H1  266   1.822   4.477   6.205
  103TIP3    H2  267   1.915   4.559   6.118
  104TIP3   OH2  268   4.414   7.114   6.410
  104TIP3    H1  269   4.337   7.068   6.443
  104TIP3    H2  270   4.488   7.058   6.434
  105TIP3   OH2  271   6.444   2.824   5.560
  105TIP3    H1  272   6.375   2.760   5.543
  105TIP3    H2  273   6.433   2.847   5.652
  106TIP3   OH2  274   3.248   4.992   0.811
  106TIP3    H1  275   3.324   4.945   0.846
  106TIP3    H2  276   3.182   4.986   0.879
  107TIP3   OH2  277   6.101   5.917   6.462
  107TIP3    H1  278   6.025   5.873   6.500
  107TIP3    H2  279   6.175   5.888   6.515
  108TIP3   OH2  280   6.672   2.633   3.659
  108TIP3    H1  281   6.627   2.575   3.598
  108TIP3    H2  282   6.638   2.720   3.638
  109TIP3   OH2  283   0.193   3.771   1.072
  109TIP3    H1  284   0.175   3.698   1.014
  109TIP3    H2  285   0.288   3.769   1.085
  110TIP3   OH2  286   2.755   0.072   1.970
  110TIP3    H1  287   2.700   0.149   1.954
  110TIP3    H2  288   2.752   0.023   1.887
  111TIP3   OH2  289   7.480   0.642   4.672
  111TIP3    H1  290   7.385   0.648   4.683
  111TIP3    H2  291   7.515   0.708   4.733
  112TIP3   OH2  292   7.512   4.866   3.813
  112TIP3    H1  293   7.439   4.928   3.801
  112TIP3    H2  294   7.590   4.922   3.815
  113TIP3   OH2  295   7.752   1.374   3.672
  113TIP3    H1  296   7.674   1.429   3.682
  113TIP3    H2  297   7.825   1.432   3.697
  114TIP3   OH2  298   6.926   5.848   0.311
  114TIP3    H1  299   6.954   5.907   0.380
  114TIP3    H2  300   6.987   5.774   0.317
  115TIP3   OH2  301   2.602   5.594   1.313
  115TIP3    H1  302   2.572   5.684   1.312
  115TIP3    H2  303   2.563   5.555   1.234
  116TIP3   OH2  304   5.128   2.286   3.883
  116TIP3    H1  305   5.222   2.274   3.898
  116TIP3    H2  306   5.090   2.284   3.971
  117TIP3   OH2  307   6.089   4.628   4.135
  117TIP3    H1  308   6.023   4.560   4.119
  117TIP3    H2  309   6.054   4.678   4.208
  118TIP3   OH2  310   8.180   1.220   2.575
  118TIP3    H1  311   8.165   1.288   2.509
  118TIP3    H2  312   8.258   1.174   2.544
  119TIP3   OH2  313   1.933   2.633   6.579
  119TIP3    H1  314   1.847   2.607   6.547
  119TIP3    H2  315   1.968   2.554   6.620
  120TIP3   OH2  316   1.796   4.655   0.838
  120TIP3    H1  317   1.733   4.600   0.886
  120TIP3    H2  318   1.753   4.740   0.830
  121TIP3   OH2  319   1.946   4.241   1.100
  121TIP3    H1  320   1.942   4.309   1.168
  121TIP3    H2  321   1.867   4.189   1.114
  122TIP3   OH2  322   4.305   6.784   6.342
  122TIP3    H1  323   4.244   6.785   6.268
  122TIP3    H2  324   4.383   6.828   6.309
  123TIP3   OH2  325   3.683   4.926   1.743
  123TIP3    H1  326   3.697   4.854   1.682
  123TIP3    H2  327   3.635   4.991   1.693
  124TIP3   OH2  328   4.796   6.176   1.912
  124TIP3    H1  329   4.748   6.198   1.993
  124TIP3    H2  330   4.819   6.084   1.922
  125TIP3   OH2  331   6.129   0.283   1.810
  125TIP3    H1  332   6.174   0.224   1.750
  125TIP3    H2  333   6.086   0.224   1.873
  126TIP3   OH2  334   4.987   6.984   3.856
  126TIP3    H1  335   4.918   6.941   3.806
  126TIP3    H2  336   4.966   6.966   3.948
  127TIP3   OH2  337   7.040   6.149   2.706
  127TIP3    H1  338   7.001   6.115   2.787
  127TIP3    H2  339   7.090   6.075   2.671
  128TIP3   OH2  340   7.543   2.556   5.286
  128TIP3    H1  341   7.612   2.504   5.326
  128TIP3    H2  342   7.583   2.640   5.268
  129TIP3   OH2  343   4.416   6.169   1.181
  129TIP3    H1  344   4.338   6.113   1.189
  129TIP3    H2  345   4.426   6.182   1.087
  130TIP3   OH2  346   7.614   7.058   3.473
  130TIP3    H1  347   7.592   7.060   3.380
  130TIP3    H2  348   7.544   7.109   3.515
  131TIP3   OH2  349   0.147   2.485   3.307
  131TIP3    H1  350   0.159   2.565   3.256
  131TIP3    H2  351   0.095   2.428   3.250
  132TIP3   OH2  352   7.716   3.501   3.529
  132TIP3    H1  353   7.732   3.446   3.452
  132TIP3    H2  354   7.654   3.567   3.498
  133TIP3   OH2  355   0.777   1.263   0.556
  133TIP3    H1  356   0.817   1.268   0.469
  133TIP3    H2  357   0.831   1.319   0.611
  134TIP3   OH2  358   4.234   6.165   6.300
  134TIP3    H1  359   4.326   6.185   6.315
  134TIP3    H2  360   4.229   6.144   6.207
  135TIP3   OH2  361   5.629   2.312   2.049
  135TIP3    H1  362   5.721   2.336   2.043
  135TIP3    H2  363   5.590   2.380   2.103
  136TIP3   OH2  364   4.760   6.732   0.389
  136TIP3    H1  365   4.790   6.685   0.311
  136TIP3    H2  366   4.777   6.670   0.461
  137TIP3   OH2  367   2.635   4.872   3.090
  137TIP3    H1  368   2.608   4.902   3.177
  137TIP3    H2  369   2.563   4.816   3.061
  138TIP3   OH2  370   4.110   3.618   2.350
  138TIP3    H1  371   4.122   3.681   2.278
  138TIP3    H2  372   4.096   3.673   2.427
  139TIP3   OH2  373   8.232   2.303   4.408
  139TIP3    H1  374   8.223   2.221   4.457
  139TIP3    H2  375   8.143   2.336   4.399
  140TIP3   OH2  376   8.222   6.685   4.388
  140TIP3    H1  377   8.311   6.681   4.423
  140TIP3    H2  378   8.170   6.634   4.449
  141TIP3   OH2  379   6.504   1.747   4.648
  141TIP3    H1  380   6.554   1.674   4.611
  141TIP3    H2  381   6.554   1.825   4.624
  142TIP3   OH2  382   4.112   2.422   0.907
  142TIP3    H1  383   4.040   2.483   0.925
  142TIP3    H2  384   4.101   2.354   0.973
  143TIP3   OH2  385   2.424   4.807   5.726
  143TIP3    H1  386   2.484   4.763   5.787
  143TIP3    H2  387   2.447   4.899   5.732
  144TIP3   OH2  388   0.386   0.028   5.809
  144TIP3    H1  389   0.298   0.065   5.821
  144TIP3    H2  390   0.418   0.012   5.897
  145TIP3   OH2  391   6.014   1.857   3.622
  145TIP3    H1  392   6.094   1.807   3.636
  145TIP3    H2  393   5.944   1.793   3.626
  146TIP3   OH2  394   2.822   5.135   1.859
  146TIP3    H1  395   2.873   5.208   1.823
  146TIP3    H2  396   2.873   5.057   1.840
  147TIP3   OH2  397   7.369   5.607   6.587
  147TIP3    H1  398   7.288   5.633   6.632
  147TIP3    H2  399   7.438   5.653   6.635
  148TIP3   OH2  400   2.240   7.788   3.418
  148TIP3    H1  401   2.288   7.828   3.346
  148TIP3    H2  402   2.262   7.841   3.494
  149TIP3   OH2  403   2.252   2.293   4.755
  149TIP3    H1  404   2.250   2.388   4.765
  149TIP3    H2  405   2.172   2.273   4.705
  150TIP3   OH2  406   0.111   7.146   1.629
  150TIP3    H1  407   0.128   7.235   1.658
  150TIP3    H2  408   0.113   7.094   1.709
  151TIP3   OH2  409   3.537   6.931   2.529
  151TIP3    H1  410   3.596   6.902   2.599
  151TIP3    H2  411   3.594   6.938   2.452
  152TIP3   OH2  412   4.898   1.756   1.308
  152TIP3    H1  413   4.893   1.689   1.239
  152TIP3    H2  414   4.838   1.825   1.278
  153TIP3   OH2  415   3.626   7.634   4.716
  153TIP3    H1  416   3.688   7.696   4.679
  153TIP3    H2  417   3.550   7.638   4.658
  154TIP3   OH2  418   5.678   7.332   4.056
  154TIP3    H1  419   5.646   7.416   4.023
  154TIP3    H2  420   5.658   7.333   4.150
  155TIP3   OH2  421   0.452   2.023   2.064
  155TIP3    H1  422   0.531   1.985   2.024
  155TIP3    H2  423   0.483   2.102   2.108
  156TIP3   OH2  424   0.397   3.386   2.204
  156TIP3    H1  425   0.340   3.457   2.175
  156TIP3    H2  426   0.341   3.309   2.204
  157TIP3   OH2  427   5.571   0.788   1.794
  157TIP3    H1  428   5.551   0.852   1.725
  157TIP3    H2  429   5.647   0.740   1.761
  158TIP3   OH2  430   8.033   0.765   4.896
  158TIP3    H1  431   7.945   0.751   4.861
  158TIP3    H2  432   8.090   0.715   4.837
  159TIP3   OH2  433   2.208   1.040   6.274
  159TIP3    H1  434   2.270   1.014   6.206
  159TIP3    H2  435   2.244   1.121   6.310
  160TIP3   OH2  436   6.852   7.722   6.463
  160TIP3    H1  437   6.863   7.632   6.494
  160TIP3    H2  438   6.799   7.713   6.384
  161TIP3   OH2  439   4.586   4.498   3.207
  161TIP3    H1  440   4.560   4.554   3.280
  161TIP3    H2  441   4.504   4.483   3.159
  162TIP3   OH2  442   1.660   6.871   4.776
  162TIP3    H1  443   1.637   6.926   4.701
  162TIP3    H2  444   1.623   6.785   4.756
  163TIP3   OH2  445   7.083   7.636   5.185
  163TIP3    H1  446   7.175   7.653   5.205
  163TIP3    H2  447   7.043   7.624   5.271
  164TIP3   OH2  448   8.182   4.470   1.480
  164TIP3    H1  449   8.247   4.458   1.549
  164TIP3    H2  450   8.201   4.557   1.444
  165TIP3   OH2  451   4.130   2.457   5.997
  165TIP3    H1  452   4.088   2.496   6.073
  165TIP3    H2  453   4.151   2.367   6.024
  166TIP3   OH2  454   5.775   3.588   3.601
  166TIP3    H1  455   5.721   3.605   3.678
  166TIP3    H2  456   5.773   3.492   3.591
  167TIP3   OH2  457   4.798   4.972   0.264
  167TIP3    H1  458   4.775   4.892   0.312
  167TIP3    H2  459   4.870   5.010   0.314
  168TIP3   OH2  460   6.573   3.718   2.516
  168TIP3    H1  461   6.541   3.782   2.452
  168TIP3    H2  462   6.587   3.638   2.465
  169TIP3   OH2  463   5.377   5.776   1.880
  169TIP3    H1  464   5.427   5.697   1.860
  169TIP3    H2  465   5.378   5.827   1.799
  170TIP3   OH2  466   0.461   7.031   6.341
  170TIP3    H1  467   0.402   6.995   6.274
  170TIP3    H2  468   0.540   6.978   6.335
  171TIP3   OH2  469   3.072   2.222   2.711
  171TIP3    H1  470   3.168   2.227   2.707
  171TIP3    H2  471   3.043   2.307   2.679
  172TIP3   OH2  472   2.849   2.727   5.800
  172TIP3    H1  473   2.933   2.774   5.797
  172TIP3    H2  474   2.855   2.673   5.879
  173TIP3   OH2  475   6.672   3.363   3.650
  173TIP3    H1  476   6.630   3.306   3.714
  173TIP3    H2  477   6.619   3.442   3.649
  174TIP3   OH2  478   7.011   5.883   3.780
  174TIP3    H1  479   7.048   5.805   3.821
  174TIP3    H2  480   7.009   5.948   3.850
  175TIP3   OH2  481   2.713   1.344   3.200
  175TIP3    H1  482   2.639   1.398   3.227
  175TIP3    H2  483   2.713   1.270   3.261
  176TIP3   OH2  484   1.422   1.931   5.740
  176TIP3    H1  485   1.491   1.983   5.698
  176TIP3    H2  486   1.468   1.855   5.777
  177TIP3   OH2  487   4.354   0.354   6.502
  177TIP3    H1  488   4.300   0.367   6.425
  177TIP3    H2  489   4.302   0.391   6.574
  178TIP3   OH2  490   7.857   5.331   3.258
  178TIP3    H1  491   7.827   5.422   3.254
  178TIP3    H2  492   7.909   5.327   3.338
  179TIP3   OH2  493   3.471   5.128   4.946
  179TIP3    H1  494   3.400   5.065   4.959
  179TIP3    H2  495   3.433   5.212   4.971
  180TIP3   OH2  496   1.327   3.191   0.387
  180TIP3    H1  497   1.365   3.158   0.305
  180TIP3    H2  498   1.242   3.148   0.392
  181TIP3   OH2  499   5.570   0.947   3.463
  181TIP3    H1  500   5.657   0.956   3.502
  181TIP3    H2  501   5.510   0.971   3.533
  182TIP3   OH2  502   1.687   5.186   1.872
  182TIP3    H1  503   1.697   5.093   1.852
  182TIP3    H2  504   1.611   5.190   1.930
  183TIP3   OH2  505   5.888   0.271   3.582
  183TIP3    H1  506   5.905   0.183   3.616
  183TIP3    H2  507   5.792   0.278   3.582
  184TIP3   OH2  508   5.677   5.776   1.832
  184TIP3    H1  509   5.739   5.802   1.763
  184TIP3    H2  510   5.626   5.855   1.850
  185TIP3   OH2  511   8.145   0.259   1.232
  185TIP3    H1  512   8.192   0.178   1.213
  185TIP3    H2  513   8.214   0.321   1.256
  186TIP3   OH2  514   1.906   5.305   1.990
  186TIP3    H1  515   1.844   5.245   1.950
  186TIP3    H2  516   1.964   5.248   2.041
  187TIP3   OH2  517   5.788   0.551   5.163
  187TIP3    H1  518   5.826   0.465   5.184
  187TIP3    H2  519   5.848   0.588   5.099
  188TIP3   OH2  520   6.549   6.149   3.525
  188TIP3    H1  521   6.599   6.068   3.533
  188TIP3    H2  522   6.614   6.219   3.527
  189TIP3   OH2  523   4.074   5.646   2.386
  189TIP3    H1  524   3.996   5.590   2.388
  189TIP3    H2  525   4.142   5.591   2.348
  190TIP3   OH2  526   2.860   2.285   4.700
  190TIP3    H1  527   2.902   2.226   4.637
  190TIP3    H2  528   2.810   2.346   4.645
  191TIP3   OH2  529   3.184   6.185   2.332
  191TIP3    H1  530   3.110   6.205   2.390
  191TIP3    H2  531   3.222   6.271   2.313
  192TIP3   OH2  532   1.394   3.999   0.835
  192TIP3    H1  533   1.311   3.985   0.880
  192TIP3    H2  534   1.380   3.964   0.747
  193TIP3   OH2  535   5.480   4.983   0.232
  193TIP3    H1  536   5.467   4.919   0.162
  193TIP3    H2  537   5.471   4.932   0.313
  194TIP3   OH2  538   2.464   1.251   6.373
  194TIP3    H1  539   2.417   1.334   6.375
  194TIP3    H2  540   2.476   1.227   6.465
  195TIP3   OH2  541   3.335   4.823   1.655
  195TIP3    H1  542   3.244   4.798   1.640
  195TIP3    H2  543   3.330   4.900   1.711
  196TIP3   OH2  544   0.265   7.079   2.813
  196TIP3    H1  545   0.202   7.117   2.874
  196TIP3    H2  546   0.262   6.985   2.831
  197TIP3   OH2  547   5.666   2.927   4.043
  197TIP3    H1  548   5.658   3.019   4.067
  197TIP3    H2  549   5.741   2.923   3.984
  198TIP3   OH2  550   6.925   6.703   3.502
  198TIP3    H1  551   6.986   6.675   3.434
  198TIP3    H2  552   6.927   6.799   3.498
  199TIP3   OH2  553   7.403   1.441   4.504
  199TIP3    H1  554   7.397   1.359   4.455
  199TIP3    H2  555   7.439   1.416   4.589
  200TIP3   OH2  556   5.797   7.730   4.668
  200TIP3    H1  557   5.718   7.676   4.673
  200TIP3    H2  558   5.766   7.817   4.642
  201TIP3   OH2  559   5.380   3.083   5.725
  201TIP3    H1  560   5.343   2.996   5.737
  201TIP3    H2  561   5.321   3.125   5.662
  202TIP3   OH2  562   4.051   4.164   1.257
  202TIP3    H1  563   3.988   4.097   1.283
  202TIP3    H2  564   4.050   4.227   1.329
  203TIP3   OH2  565   4.325   2.871   6.753
  203TIP3    H1  566   4.374   2.939   6.706
  203TIP3    H2  567   4.233   2.888   6.729
  204TIP3   OH2  568   7.208   0.066   1.195
  204TIP3    H1  569   7.116   0.069   1.171
  204TIP3    H2  570   7.210   0.010   1.273
  205TIP3   OH2  571   5.632   3.424   5.400
  205TIP3    H1  572   5.671   3.364   5.336
  205TIP3    H2  573   5.698   3.434   5.468
  206TIP3   OH2  574   6.000   7.635   3.265
  206TIP3    H1  575   6.092   7.631   3.292
  206TIP3    H2  576   5.976   7.727   3.273
  207TIP3   OH2  577   0.173   4.416   5.392
  207TIP3    H1  578   0.236   4.449   5.457
  207TIP3    H2  579   0.110   4.487   5.382
  208TIP3   OH2  580   4.118   3.019   1.148
  208TIP3    H1  581   4.051   3.052   1.207
  208TIP3    H2  582   4.070   2.973   1.080
  209TIP3   OH2  583   1.015   1.810   4.261
  209TIP3    H1  584   0.941   1.759   4.294
  209TIP3    H2  585   0.979   1.858   4.186
  210TIP3   OH2  586   4.122   6.974   5.482
  210TIP3    H1  587   4.216   6.960   5.496
  210TIP3    H2  588   4.083   6.964   5.569
  211TIP3   OH2  589   8.268   2.731   0.900
  211TIP3    H1  590   8.236   2.725   0.809
  211TIP3    H2  591   8.317   2.650   0.913
  212TIP3   OH2  592   2.512   7.318   3.314
  212TIP3    H1  593   2.445   7.385   3.309
  212TIP3    H2  594   2.565   7.330   3.235
  213TIP3   OH2  595   7.908   3.953   5.733
  213TIP3    H1  596   7.842   4.018   5.708
  213TIP3    H2  597   7.985   4.005   5.755
  214TIP3   OH2  598   6.419   7.518   1.057
  214TIP3    H1  599   6.395   7.524   1.150
  214TIP3    H2  600   6.392   7.430   1.031
  215TIP3   OH2  601   5.441   3.020   1.551
  215TIP3    H1  602   5.487   2.955   1.602
  215TIP3    H2  603   5.502   3.044   1.481
  216TIP3   OH2  604   6.171   6.646   3.804
  216TIP3    H1  605   6.242   6.651   3.741
  216TIP3    H2  606   6.099   6.604   3.756
  217TIP3   OH2  607   5.855   6.339   1.046
  217TIP3    H1  608   5.944   6.351   1.079
  217TIP3    H2  609   5.820   6.427   1.038
  218TIP3   OH2  610   4.718   0.373   2.786
  218TIP3    H1  611   4.693   0.365   2.878
  218TIP3    H2  612   4.650   0.428   2.748
  219TIP3   OH2  613   4.690   0.966   5.129
  219TIP3    H1  614   4.775   0.931   5.103
  219TIP3    H2  615   4.670   1.033   5.063
  220TIP3   OH2  616   2.894   5.666   0.856
  220TIP3    H1  617   2.958   5.641   0.789
  220TIP3    H2  618   2.923   5.620   0.935
  221TIP3   OH2  619   3.779   1.191   4.501
  221TIP3    H1  620   3.819   1.187   4.587
  221TIP3    H2  621   3.836   1.248   4.450
  222TIP3   OH2  622   3.080   3.176   0.924
  222TIP3    H1  623   3.160   3.126   0.911
  222TIP3    H2  624   3.048   3.194   0.836
  223TIP3   OH2  625   4.471   0.938   6.094
  223TIP3    H1  626   4.414   0.865   6.072
  223TIP3    H2  627   4.560   0.904   6.085
  224TIP3   OH2  628   3.029   3.974   4.168
  224TIP3    H1  629   3.119   3.941   4.170
  224TIP3    H2  630   2.975   3.898   4.190
  225TIP3   OH2  631   2.198   0.796   1.554
  225TIP3    H1  632   2.259   0.784   1.627
  225TIP3    H2  633   2.131   0.729   1.567
  226TIP3   OH2  634   5.562   5.734   6.154
  226TIP3    H1  635   5.569   5.733   6.249
  226TIP3    H2  636   5.594   5.648   6.127
  227TIP3   OH2  637   4.522   1.726   3.116
  227TIP3    H1  638   4.530   1.686   3.029
  227TIP3    H2  639   4.595   1.690   3.166
  228TIP3   OH2  640   0.293   2.982   3.714
  228TIP3    H1  641   0.348   2.934   3.777
  228TIP3    H2  642   0.204   2.957   3.738
  229TIP3   OH2  643   6.218   3.519   4.963
  229TIP3    H1  644   6.124   3.539   4.965
  229TIP3    H2  645   6.240   3.514   4.870
  230TIP3   OH2  646   3.814   3.929   4.933
  230TIP3    H1  647   3.825   3.835   4.944
  230TIP3    H2  648   3.733   3.949   4.982
  231TIP3   OH2  649   7.708   0.395   3.972
  231TIP3    H1  650   7.622   0.404   3.930
  231TIP3    H2  651   7.771   0.405   3.900
  232TIP3   OH2  652   6.049   6.969   6.727
  232TIP3    H1  653   6.094   6.937   6.649
  232TIP3    H2  654   5.975   6.910   6.739
  233TIP3   OH2  655   4.265   3.541   5.747
  233TIP3    H1  656   4.294   3.589   5.825
  233TIP3    H2  657   4.204   3.600   5.703
  234TIP3   OH2  658   3.531   4.237   3.370
  234TIP3    H1  659   3.505   4.310   3.314
  234TIP3    H2  660   3.558   4.168   3.310
  235TIP3   OH2  661   6.726   3.660   4.313
  235TIP3    H1  662   6.783   3.584   4.305
  235TIP3    H2  663   6.655   3.643   4.250
  236TIP3   OH2  664   5.657   6.985   3.614
  236TIP3    H1  665   5.642   7.079   3.618
  236TIP3    H2  666   5.607   6.949   3.686
  237TIP3   OH2  667   4.002   0.729   3.918
  237TIP3    H1  668   3.909   0.710   3.930
  237TIP3    H2  669   4.011   0.753   3.826
  238TIP3   OH2  670   8.300   6.780   1.923
  238TIP3    H1  671   8.254   6.812   2.001
  238TIP3    H2  672   8.247   6.707   1.893
  239TIP3   OH2  673   2.592   3.646   5.203
  239TIP3    H1  674   2.497   3.641   5.192
  239TIP3    H2  675   2.605   3.665   5.296
  240TIP3   OH2  676   0.716   4.488   3.135
  240TIP3    H1  677   0.665   4.448   3.206
  240TIP3    H2  678   0.651   4.508   3.067
  241TIP3   OH2  679   6.806   2.991   0.445
  241TIP3    H1  680   6.721   3.022   0.475
  241TIP3    H2  681   6.855   2.973   0.525
  242TIP3   OH2  682   4.765   0.292   1.781
  242TIP3    H1  683   4.674   0.320   1.776
  242TIP3    H2  684   4.807   0.332   1.705
  243TIP3   OH2  685   4.754   3.292  -0.025
  243TIP3    H1  686   4.806   3.253  -0.095
  243TIP3    H2  687   4.809   3.363   0.009
  244TIP3   OH2  688   2.170   3.662   2.163
  244TIP3    H1  689   2.220   3.723   2.217
  244TIP3    H2  690   2.156   3.585   2.219
  245TIP3   OH2  691   1.625   4.656   2.207
  245TIP3    H1  692   1.537   4.693   2.211
  245TIP3    H2  693   1.680   4.717   2.257
  246TIP3   OH2  694   3.628   4.037   6.458
  246TIP3    H1  695   3.607   3.949   6.426
  246TIP3    H2  696   3.545   4.084   6.454
  247TIP3   OH2  697   7.406   0.330   5.118
  247TIP3    H1  698   7.483   0.386   5.125
  247TIP3    H2  699   7.396   0.292   5.205
  248TIP3   OH2  700   1.391   6.177   6.172
  248TIP3    H1  701   1.378   6.180   6.078
  248TIP3    H2  702   1.484   6.197   6.185
  249TIP3   OH2  703   7.113   4.443   0.802
  249TIP3    H1  704   7.140   4.354   0.827
  249TIP3    H2  705   7.081   4.434   0.712
  250TIP3   OH2  706   8.255   0.561   6.602
  250TIP3    H1  707   8.304   0.594   6.527
  250TIP3    H2  708   8.178   0.520   6.564
  251TIP3   OH2  709   4.679   1.134   2.384
  251TIP3    H1  710   4.719   1.124   2.298
  251TIP3    H2  711   4.594   1.176   2.366
  252TIP3   OH2  712   2.256   6.410   4.040
  252TIP3    H1  713   2.335   6.463   4.050
  252TIP3    H2  714   2.214   6.413   4.126
  253TIP3   OH2  715   1.124   3.474   2.619
  253TIP3    H1  716   1.095   3.397   2.571
  253TIP3    H2  717   1.126   3.544   2.553
  254TIP3   OH2  718   0.604   5.573   5.218
  254TIP3    H1  719   0.553   5.653   5.232
  254TIP3    H2  720   0.565   5.509   5.279
  255TIP3   OH2  721   5.660   4.120   6.231
  255TIP3    H1  722   5.664   4.039   6.179
  255TIP3    H2  723   5.567   4.131   6.251
  256TIP3   OH2  724   2.532   4.168   6.429
  256TIP3    H1  725   2.539   4.260   6.455
  256TIP3    H2  726   2.614   4.128   6.459
  257TIP3   OH2  727   0.847   1.680   2.447
  257TIP3    H1  728   0.775   1.620   2.467
  257TIP3    H2  729   0.906   1.673   2.522
  258TIP3   OH2  730   0.757   4.145   3.422
  258TIP3    H1  731   0.823   4.103   3.477
  258TIP3    H2  732   0.757   4.094   3.341
  259TIP3   OH2  733   4.789   4.766   0.918
  259TIP3    H1  734   4.830   4.679   0.923
  259TIP3    H2  735   4.781   4.794   1.009
  260TIP3   OH2  736   3.926   6.764   3.389
  260TIP3    H1  737   3.895   6.677   3.416
  260TIP3    H2  738   4.019   6.764   3.411
  261TIP3   OH2  739   2.460   5.079   2.141
  261TIP3    H1  740   2.526   5.023   2.101
  261TIP3    H2  741   2.385   5.021   2.156
  262TIP3   OH2  742   5.645   2.381   3.688
  262TIP3    H1  743   5.726   2.332   3.675
  262TIP3    H2  744   5.580   2.334   3.635
  263TIP3   OH2  745   0.259   6.852   5.858
  263TIP3    H1  746   0.169   6.871   5.829
  263TIP3    H2  747   0.266   6.757   5.852
  264TIP3   OH2  748   3.571   2.022   3.693
  264TIP3    H1  749   3.518   1.943   3.709
  264TIP3    H2  750   3.522   2.092   3.736
  265TIP3   OH2  751   0.029   4.208   1.060
  265TIP3    H1  752   0.097   4.273   1.047
  265TIP3    H2  753  -0.003   4.225   1.149
  266TIP3   OH2  754   4.490   7.611   5.362
  266TIP3    H1  755   4.442   7.675   5.415
  266TIP3    H2  756   4.525   7.663   5.289
  267TIP3   OH2  757   8.097   5.348   2.538
  267TIP3    H1  758   8.157   5.336   2.464
  267TIP3    H2  759   8.123   5.432   2.576
  268TIP3   OH2  760   5.458   6.900   2.353
  268TIP3    H1  761   5.432   6.824   2.300
  268TIP3    H2  762   5.533   6.937   2.307
  269TIP3   OH2  763   1.936   2.392   3.197
  269TIP3    H1  764   1.899   2.479   3.186
  269TIP3    H2  765   1.895   2.339   3.128
  270TIP3   OH2  766   6.914   3.442   4.732
  270TIP3    H1  767   6.949   3.354   4.744
  270TIP3    H2  768   6.943   3.490   4.810
  271TIP3   OH2  769   2.556   0.542   2.142
  271TIP3    H1  770   2.495   0.529   2.215
  271TIP3    H2  771   2.512   0.605   2.085
  272TIP3   OH2  772   3.025   7.771   6.112
  272TIP3    H1  773   3.003   7.863   6.126
  272TIP3    H2  774   3.061   7.742   6.196
  273TIP3   OH2  775   3.853   7.447   0.752
  273TIP3    H1  776   3.762   7.475   0.755
  273TIP3    H2  777   3.849   7.351   0.756
  274TIP3   OH2  778   5.570   4.476   4.024
  274TIP3    H1  779   5.546   4.383   4.029
  274TIP3    H2  780   5.664   4.478   4.043
  275TIP3   OH2  781   7.368   7.350   4.661
  275TIP3    H1  782   7.303   7.399   4.610
  275TIP3    H2  783   7.452   7.376   4.624
  276TIP3   OH2  784   5.705   6.812   5.743
  276TIP3    H1  785   5.643   6.846   5.679
  276TIP3    H2  786   5.790   6.817   5.699
  277TIP3   OH2  787   4.902   3.802   2.445
  277TIP3    H1  788   4.885   3.715   2.482
  277TIP3    H2  789   4.902   3.860   2.521
  278TIP3   OH2  790   5.848   7.692   1.923
  278TIP3    H1  791   5.864   7.598   1.932
  278TIP3    H2  792   5.929   7.728   1.887
  279TIP3   OH2  793   3.683   0.626   0.723
  279TIP3    H1  794   3.773   0.647   0.747
  279TIP3    H2  795   3.675   0.532   0.737
  280TIP3   OH2  796   4.898   2.117   3.589
  280TIP3    H1  797   4.915   2.186   3.653
  280TIP3    H2  798   4.803   2.116   3.579
  281TIP3   OH2  799   3.040   7.779   6.386
  281TIP3    H1  800   3.078   7.867   6.384
  281TIP3    H2  801   3.097   7.729   6.444
  282TIP3   OH2  802   1.175   3.280   4.864
  282TIP3    H1  803   1.104   3.229   4.825
  282TIP3    H2  804   1.255   3.244   4.824
  283TIP3   OH2  805   6.289   0.069   5.996
  283TIP3    H1  806   6.360   0.084   6.059
  283TIP3    H2  807   6.322   0.105   5.914
  284TIP3   OH2  808   2.205   5.417   1.424
  284TIP3    H1  809   2.232   5.425   1.516
  284TIP3    H2  810   2.241   5.496   1.383
  285TIP3   OH2  811   7.122   2.704   5.882
  285TIP3    H1  812   7.170   2.636   5.929
  285TIP3    H2  813   7.181   2.730   5.811
  286TIP3   OH2  814   0.208   1.952   3.491
  286TIP3    H1  815   0.246   1.865   3.507
  286TIP3    H2  816   0.205   1.960   3.396
  287TIP3   OH2  817   3.597   6.245   6.528
  287TIP3    H1  818   3.655   6.320   6.537
  287TIP3    H2  819   3.620   6.207   6.443
  288TIP3   OH2  820   5.806   2.908   5.012
  288TIP3    H1  821   5.830   2.837   4.954
  288TIP3    H2  822   5.848   2.886   5.095
  289TIP3   OH2  823   3.434   5.149   3.489
  289TIP3    H1  824   3.350   5.190   3.507
  289TIP3    H2  825   3.417   5.055   3.496
  290TIP3   OH2  826   7.371   3.508   0.829
  290TIP3    H1  827   7.280   3.483   0.846
  290TIP3    H2  828   7.421   3.427   0.838
  291TIP3   OH2  829   6.963   6.606   4.554
  291TIP3    H1  830   7.011   6.547   4.496
  291TIP3    H2  831   6.956   6.687   4.505
  292TIP3   OH2  832   2.986   3.350   5.742
  292TIP3    H1  833   2.902   3.356   5.695
  292TIP3    H2  834   2.961   3.340   5.834
  293TIP3   OH2  835   0.282   1.872   1.498
  293TIP3    H1  836   0.330   1.846   1.419
  293TIP3    H2  837   0.335   1.941   1.537
  294TIP3   OH2  838   7.932   3.146   6.685
  294TIP3    H1  839   7.958   3.080   6.621
  294TIP3    H2  840   7.973   3.227   6.655
  295TIP3   OH2  841   2.543   2.591   3.675
  295TIP3    H1  842   2.546   2.672   3.625
  295TIP3    H2  843   2.596   2.608   3.753
  296TIP3   OH2  844   3.681   3.712   3.759
  296TIP3    H1  845   3.689   3.778   3.690
  296TIP3    H2  846   3.592   3.723   3.792
  297TIP3   OH2  847   2.809   1.180   4.523
  297TIP3    H1  848   2.893   1.144   4.552
  297TIP3    H2  849   2.768   1.211   4.603
  298TIP3   OH2  850   2.986   5.234   6.299
  298TIP3    H1  851   2.907   5.182   6.289
  298TIP3    H2  852   2.994   5.281   6.216
  299TIP3   OH2  853   5.869   6.530   0.601
  299TIP3    H1  854   5.839   6.478   0.527
  299TIP3    H2  855   5.931   6.473   0.647
  300TIP3   OH2  856   8.117   1.598   0.753
  300TIP3    H1  857   8.211   1.583   0.750
  300TIP3    H2  858   8.098   1.613   0.845
  301TIP3   OH2  859   2.503   7.464   5.906
  301TIP3    H1  860   2.412   7.492   5.917
  301TIP3    H2  861   2.554   7.533   5.949
  302TIP3   OH2  862   6.398   1.821   6.728
  302TIP3    H1  863   6.398   1.916   6.732
  302TIP3    H2  864   6.454   1.793   6.801
  303TIP3   OH2  865   4.420   0.156   3.437
  303TIP3    H1  866   4.424   0.117   3.350
  303TIP3    H2  867   4.511   0.166   3.463
  304TIP3   OH2  868   5.460   3.819   6.372
  304TIP3    H1  869   5.484   3.764   6.298
  304TIP3    H2  870   5.543   3.841   6.414
  305TIP3   OH2  871   7.689   2.028   0.342
  305TIP3    H1  872   7.699   2.073   0.259
  305TIP3    H2  873   7.682   2.097   0.407
  306TIP3   OH2  874   1.079   0.117   5.314
  306TIP3    H1  875   1.014   0.167   5.364
  306TIP3    H2  876   1.159   0.169   5.319
  307TIP3   OH2  877   4.436   2.248   6.402
  307TIP3    H1  878   4.531   2.239   6.410
  307TIP3    H2  879   4.417   2.334   6.439
  308TIP3   OH2  880   6.322   3.040   1.866
  308TIP3    H1  881   6.362   2.956   1.887
  308TIP3    H2  882   6.292   3.074   1.950
  309TIP3   OH2  883   4.967   6.910   4.701
  309TIP3    H1  884   4.947   6.996   4.665
  309TIP3    H2  885   5.036   6.927   4.766
  310TIP3   OH2  886   3.454   3.954   4.300
  310TIP3    H1  887   3.443   4.018   4.370
  310TIP3    H2  888   3.488   4.005   4.226
  311TIP3   OH2  889   1.160   0.269   2.935
  311TIP3    H1  890   1.130   0.260   3.025
  311TIP3    H2  891   1.233   0.331   2.940
  312TIP3   OH2  892   4.473   0.663   3.442
  312TIP3    H1  893   4.503   0.630   3.527
  312TIP3    H2  894   4.427   0.589   3.402
  313TIP3   OH2  895   2.223   4.427   0.006
  313TIP3    H1  896   2.303   4.474  -0.014
  313TIP3    H2  897   2.177   4.483   0.069
  314TIP3   OH2  898   6.882  -0.004   5.863
  314TIP3    H1  899   6.935   0.043   5.799
  314TIP3    H2  900   6.853   0.063   5.924
  315TIP3   OH2  901   5.430   7.161   3.700
  315TIP3    H1  902   5.454   7.068   3.702
  315TIP3    H2  903   5.403   7.181   3.789
  316TIP3   OH2  904   3.414   7.283   5.529
  316TIP3    H1  905   3.324   7.260   5.553
  316TIP3    H2  906   3.435   7.222   5.458
  317TIP3   OH2  907   2.082   3.527   5.586
  317TIP3    H1  908   2.176   3.540   5.574
  317TIP3    H2  909   2.041   3.607   5.552
  318TIP3   OH2  910   3.920   2.269   5.095
  318TIP3    H1  911   3.871   2.345   5.063
  318TIP3    H2  912   3.995   2.307   5.142
  319TIP3   OH2  913   3.650   0.200   3.220
  319TIP3    H1  914   3.684   0.147   3.149
  319TIP3    H2  915   3.668   0.290   3.194
  320TIP3   OH2  916   6.131   5.813   1.166
  320TIP3    H1  917   6.218   5.779   1.190
  320TIP3    H2  918   6.149   5.897   1.124
  321TIP3   OH2  919   4.488   0.712   2.075
  321TIP3    H1  920   4.451   0.728   1.989
  321TIP3    H2  921   4.490   0.798   2.118
  322TIP3   OH2  922   2.062   3.436   6.195
  322TIP3    H1  923   1.966   3.445   6.194
  322TIP3    H2  924   2.093   3.505   6.137
  323TIP3   OH2  925   3.532   3.875   4.733
  323TIP3    H1  926   3.581   3.951   4.703
  323TIP3    H2  927   3.544   3.875   4.828
  324TIP3   OH2  928   1.355   2.438   4.831
  324TIP3    H1  929   1.270   2.483   4.825
  324TIP3    H2  930   1.400   2.462   4.750
  325TIP3   OH2  931   2.351   1.821   1.578
  325TIP3    H1  932   2.259   1.794   1.576
  325TIP3    H2  933   2.357   1.888   1.509
  326TIP3   OH2  934   3.244   7.271   2.388
  326TIP3    H1  935   3.320   7.229   2.429
  326TIP3    H2  936   3.209   7.329   2.455
  327TIP3   OH2  937   0.133   6.208   5.627
  327TIP3    H1  938   0.219   6.168   5.613
  327TIP3    H2  939   0.083   6.142   5.675
  328TIP3   OH2  940   8.010   1.387   0.589
  328TIP3    H1  941   8.029   1.448   0.661
  328TIP3    H2  942   8.066   1.417   0.517
  329TIP3   OH2  943   3.286   1.792   1.631
  329TIP3    H1  944   3.363   1.774   1.686
  329TIP3    H2  945   3.301   1.879   1.596
  330TIP3   OH2  946   5.796   5.521   5.867
  330TIP3    H1  947   5.877   5.477   5.844
  330TIP3    H2  948   5.788   5.510   5.962
  331TIP3   OH2  949   7.185   0.525   5.355
  331TIP3    H1  950   7.157   0.434   5.356
  331TIP3    H2  951   7.105   0.575   5.344
  332TIP3   OH2  952   3.844   5.432   2.154
  332TIP3    H1  953   3.881   5.415   2.067
  332TIP3    H2  954   3.751   5.412   2.144
  333TIP3   OH2  955   7.618   7.729   6.558
  333TIP3    H1  956   7.630   7.708   6.465
  333TIP3    H2  957   7.573   7.653   6.594
  334TIP3   OH2  958   1.892   5.967   4.431
  334TIP3    H1  959   1.932   5.945   4.515
  334TIP3    H2  960   1.909   6.061   4.421
  335TIP3   OH2  961   0.161   3.964   6.102
  335TIP3    H1  962   0.134   3.967   6.011
  335TIP3    H2  963   0.240   4.020   6.106
  336TIP3   OH2  964   3.273   1.933   4.059
  336TIP3    H1  965   3.274   2.027   4.041
  336TIP3    H2  966   3.188   1.917   4.099
  337TIP3   OH2  967   6.461   6.994   0.395
  337TIP3    H1  968   6.529   6.973   0.330
  337TIP3    H2  969   6.379   6.975   0.351
  338TIP3   OH2  970   7.823   1.465   2.797
  338TIP3    H1  971   7.873   1.492   2.719
  338TIP3    H2  972   7.764   1.397   2.765
  339TIP3   OH2  973   3.360   2.000   5.388
  339TIP3    H1  974   3.275   2.013   5.431
  339TIP3    H2  975   3.422   1.984   5.459
  340TIP3   OH2  976   7.227   4.885   2.569
  340TIP3    H1  977   7.167   4.951   2.535
  340TIP3    H2  978   7.314   4.921   2.553
  341TIP3   OH2  979   7.713   5.831   6.097
  341TIP3    H1  980   7.647   5.890   6.061
  341TIP3    H2  981   7.719   5.854   6.189
  342TIP3   OH2  982   7.373   4.536   5.148
  342TIP3    H1  983   7.426   4.477   5.094
  342TIP3    H2  984   7.294   4.550   5.097
  343TIP3   OH2  985   7.948   7.231   5.318
  343TIP3    H1  986   7.973   7.149   5.275
  343TIP3    H2  987   7.889   7.204   5.388
  344TIP3   OH2  988   6.998   5.270   1.221
  344TIP3    H1  989   6.938   5.292   1.292
  344TIP3    H2  990   7.084   5.293   1.254
  345TIP3   OH2  991   7.325   1.937   5.205
  345TIP3    H1  992   7.339   1.876   5.132
  345TIP3    H2  993   7.232   1.958   5.202
  346TIP3   OH2  994   7.914   2.095   2.986
  346TIP3    H1  995   7.857   2.161   3.026
  346TIP3    H2  996   7.952   2.140   2.910
  347TIP3   OH2  997   1.932   6.096   5.398
  347TIP3    H1  998   1.886   6.081   5.316
  347TIP3    H2  999   1.891   6.175   5.434
  348TIP3   OH2 1000   4.623   5.167   3.292
  348TIP3    H1 1001   4.717   5.183   3.284
  348TIP3    H2 1002   4.585   5.252   3.313
  349TIP3   OH2 1003   0.553   6.638   3.752
  349TIP3    H1 1004   0.550   6.644   3.847
  349TIP3    H2 1005   0.461   6.635   3.726
  350TIP3   OH2 1006   2.589   6.204   6.482
  350TIP3    H1 1007   2.530   6.262   6.530
  350TIP3    H2 1008   2.671   6.208   6.530
  351TIP3   OH2 1009   3.179   3.525   4.578
  351TIP3    H1 1010   3.245   3.589   4.605
  351TIP3    H2 1011   3.096   3.567   4.598
  352TIP3   OH2 1012   0.286   6.170   2.689
  352TIP3    H1 1013   0.234   6.193   2.612
  352TIP3    H2 1014   0.350   6.107   2.657
  353TIP3   OH2 1015   7.052   1.570   2.108
  353TIP3    H1 1016   7.046   1.658   2.145
  353TIP3    H2 1017   7.106   1.580   2.030
  354TIP3   OH2 1018   5.399   2.219   0.278
  354TIP3    H1 1019   5.318   2.169   0.275
  354TIP3    H2 1020   5.419   2.227   0.372
  355TIP3   OH2 1021   1.783   3.502   6.221
  355TIP3    H1 1022   1.783   3.596   6.239
  355TIP3    H2 1023   1.748   3.463   6.301
  356TIP3   OH2 1024   5.411   4.583   5.982
  356TIP3    H1 1025   5.315   4.581   5.982
  356TIP3    H2 1026   5.436   4.499   6.020
  357TIP3   OH2 1027   7.604   0.931   0.895
  357TIP3    H1 1028   7.572   0.954   0.983
  357TIP3    H2 1029   7.686   0.980   0.886
  358TIP3   OH2 1030   6.648   1.950   4.539
  358TIP3    H1 1031   6.617   2.037   4.516
  358TIP3    H2 1032   6.733   1.965   4.582
  359TIP3   OH2 1033   5.220   7.520   2.366
  359TIP3    H1 1034   5.287   7.469   2.411
  359TIP3    H2 1035   5.183   7.460   2.301
  360TIP3   OH2 1036   4.768   6.720   2.462
  360TIP3    H1 1037   4.815   6.749   2.540
  360TIP3    H2 1038   4.836   6.713   2.395
  361TIP3   OH2 1039   1.036   6.311   0.730
  361TIP3    H1 1040   1.090   6.235   0.750
  361TIP3    H2 1041   1.098   6.378   0.702
  362TIP3   OH2 1042   4.570   5.927   5.158
  362TIP3    H1 1043   4.606   5.846   5.123
  362TIP3    H2 1044   4.636   5.993   5.141
  363TIP3   OH2 1045   1.690   4.383   0.961
  363TIP3    H1 1046   1.621   4.320   0.983
  363TIP3    H2 1047   1.722   4.414   1.046
  364TIP3   OH2 1048   7.453   4.510   5.755
  364TIP3    H1 1049   7.438   4.539   5.665
  364TIP3    H2 1050   7.497   4.584   5.797
  365TIP3   OH2 1051   2.805   6.967   1.495
  365TIP3    H1 1052   2.833   6.895   1.438
  365TIP3    H2 1053   2.712   6.951   1.509
  366TIP3   OH2 1054   4.488   4.254   5.904
  366TIP3    H1 1055   4.461   4.265   5.995
  366TIP3    H2 1056   4.577   4.217   5.910
  367TIP3   OH2 1057   1.607   7.451   0.378
  367TIP3    H1 1058   1.624   7.357   0.383
  367TIP3    H2 1059   1.689   7.492   0.405
  368TIP3   OH2 1060   7.676   6.676   5.669
  368TIP3    H1 1061   7.752   6.679   5.728
  368TIP3    H2 1062   7.713   6.646   5.585
  369TIP3   OH2 1063   2.301   2.234   2.373
  369TIP3    H1 1064   2.318   2.140   2.379
  369TIP3    H2 1065   2.340   2.270   2.453
  370TIP3   OH2 1066   0.798   3.260   2.375
  370TIP3    H1 1067   0.802   3.203   2.298
  370TIP3    H2 1068   0.738   3.330   2.350
  371TIP3   OH2 1069   2.406   4.224   5.930
  371TIP3    H1 1070   2.405   4.158   5.860
  371TIP3    H2 1071   2.452   4.182   6.002
  372TIP3   OH2 1072   3.241   4.906   6.748
  372TIP3    H1 1073   3.282   4.979   6.794
  372TIP3    H2 1074   3.147   4.918   6.761
  373TIP3   OH2 1075   1.489   6.422   6.653
  373TIP3    H1 1076   1.533   6.420   6.738
  373TIP3    H2 1077   1.426   6.350   6.657
  374TIP3   OH2 1078   6.629   5.683   2.524
  374TIP3    H1 1079   6.653   5.592   2.542
  374TIP3    H2 1080   6.539   5.677   2.491
  375TIP3   OH2 1081   7.870   3.858   5.999
  375TIP3    H1 1082   7.885   3.880   5.907
  375TIP3    H2 1083   7.912   3.929   6.048
  376TIP3   OH2 1084   1.601   1.619   6.191
  376TIP3    H1 1085   1.574   1.527   6.197
  376TIP3    H2 1086   1.691   1.616   6.158
  377TIP3   OH2 1087   4.033   7.256   6.345
  377TIP3    H1 1088   4.102   7.224   6.286
  377TIP3    H2 1089   4.050   7.350   6.353
  378TIP3   OH2 1090   5.396   7.287   1.023
  378TIP3    H1 1091   5.360   7.298   0.935
  378TIP3    H2 1092   5.379   7.370   1.067
  379TIP3   OH2 1093   3.631   4.703   2.785
  379TIP3    H1 1094   3.546   4.723   2.745
  379TIP3    H2 1095   3.609   4.668   2.871
  380TIP3   OH2 1096   4.382   5.889   4.625
  380TIP3    H1 1097   4.397   5.955   4.558
  380TIP3    H2 1098   4.314   5.927   4.681
  381TIP3   OH2 1099   5.604   0.339   5.412
  381TIP3    H1 1100   5.588   0.415   5.356
  381TIP3    H2 1101   5.685   0.300   5.378
  382TIP3   OH2 1102   1.399   4.373   6.634
  382TIP3    H1 1103   1.337   4.326   6.690
  382TIP3    H2 1104   1.485   4.355   6.671
  383TIP3   OH2 1105   8.287   1.602   4.633
  383TIP3    H1 1106   8.271   1.516   4.593
  383TIP3    H2 1107   8.236   1.601   4.714
  384TIP3   OH2 1108   4.809   4.642   6.247
  384TIP3    H1 1109   4.848   4.685   6.170
  384TIP3    H2 1110   4.873   4.657   6.316
  385TIP3   OH2 1111   7.817   2.573   3.087
  385TIP3    H1 1112   7.873   2.533   3.021
  385TIP3    H2 1113   7.870   2.575   3.166
  386TIP3   OH2 1114   4.999   4.841   3.877
  386TIP3    H1 1115   4.977   4.907   3.811
  386TIP3    H2 1116   5.068   4.881   3.930
  387TIP3   OH2 1117   1.796   7.802   0.818
  387TIP3    H1 1118   1.782   7.708   0.816
  387TIP3    H2 1119   1.863   7.818   0.752
  388TIP3   OH2 1120   4.751   6.488   2.250
  388TIP3    H1 1121   4.699   6.505   2.328
  388TIP3    H2 1122   4.741   6.394   2.235
  389TIP3   OH2 1123   0.718   5.782   0.579
  389TIP3    H1 1124   0.777   5.853   0.556
  389TIP3    H2 1125   0.720   5.778   0.674
  390TIP3   OH2 1126   6.890   4.267   3.572
  390TIP3    H1 1127   6.821   4.202   3.590
  390TIP3    H2 1128   6.897   4.317   3.654
  391TIP3   OH2 1129   7.085   0.376   6.428
  391TIP3    H1 1130   7.118   0.299   6.382
  391TIP3    H2 1131   7.017   0.342   6.486
  392TIP3   OH2 1132   4.352   4.068   4.212
  392TIP3    H1 1133   4.308   4.030   4.136
  392TIP3    H2 1134   4.304   4.148   4.231
  393TIP3   OH2 1135   1.091   2.299   1.275
  393TIP3    H1 1136   1.076   2.243   1.351
  393TIP3    H2 1137   1.039   2.378   1.292
  394TIP3   OH2 1138   6.209   0.588   0.535
  394TIP3    H1 1139   6.256   0.639   0.602
  394TIP3    H2 1140   6.278   0.539   0.490
  395TIP3   OH2 1141   1.400   6.919   0.215
  395TIP3    H1 1142   1.425   6.876   0.134
  395TIP3    H2 1143   1.435   6.864   0.284
  396TIP3   OH2 1144   3.669   1.960   4.944
  396TIP3    H1 1145   3.670   2.039   4.891
  396TIP3    H2 1146   3.615   1.898   4.894
  397TIP3   OH2 1147   1.377   4.072   3.055
  397TIP3    H1 1148   1.426   3.999   3.018
  397TIP3    H2 1149   1.317   4.032   3.118
  398TIP3   OH2 1150   5.999   5.623   6.106
  398TIP3    H1 1151   5.972   5.715   6.105
  398TIP3    H2 1152   5.968   5.589   6.189
  399TIP3   OH2 1153   5.891   6.863   4.116
  399TIP3    H1 1154   5.903   6.890   4.025
  399TIP3    H2 1155   5.961   6.907   4.164
  400TIP3   OH2 1156   6.139   7.064   1.903
  400TIP3    H1 1157   6.078   7.013   1.957
  400TIP3    H2 1158   6.205   7.096   1.964
  401TIP3   OH2 1159   1.780   4.946   3.082
  401TIP3    H1 1160   1.757   5.023   3.030
  401TIP3    H2 1161   1.875   4.954   3.095
  402TIP3   OH2 1162   7.594   3.311   6.554
  402TIP3    H1 1163   7.664   3.374   6.538
  402TIP3    H2 1164   7.514   3.363   6.555
  403TIP3   OH2 1165   1.175   4.751   4.090
  403TIP3    H1 1166   1.225   4.703   4.157
  403TIP3    H2 1167   1.089   4.710   4.092
  404TIP3   OH2 1168   4.419   0.626   0.679
  404TIP3    H1 1169   4.496   0.638   0.735
  404TIP3    H2 1170   4.351   0.594   0.738
  405TIP3   OH2 1171   7.466   1.103   5.155
  405TIP3    H1 1172   7.537   1.164   5.172
  405TIP3    H2 1173   7.493   1.022   5.199
  406TIP3   OH2 1174   6.190   3.008   3.881
  406TIP3    H1 1175   6.103   2.969   3.874
  406TIP3    H2 1176   6.232   2.985   3.798
  407TIP3   OH2 1177   5.215   3.910   6.441
  407TIP3    H1 1178   5.234   3.951   6.526
  407TIP3    H2 1179   5.299   3.876   6.411
  408TIP3   OH2 1180   0.288   1.206   2.051
  408TIP3    H1 1181   0.202   1.172   2.026
  408TIP3    H2 1182   0.348   1.170   1.985
  409TIP3   OH2 1183   2.480   0.530   3.744
  409TIP3    H1 1184   2.471   0.435   3.738
  409TIP3    H2 1185   2.398   0.559   3.784
  410TIP3   OH2 1186   4.313   4.873   1.517
  410TIP3    H1 1187   4.315   4.955   1.567
  410TIP3    H2 1188   4.337   4.806   1.581
  411TIP3   OH2 1189   8.053   0.099   2.807
  411TIP3    H1 1190   8.068   0.058   2.722
  411TIP3    H2 1191   7.971   0.147   2.797
  412TIP3   OH2 1192   6.266   3.135   4.619
  412TIP3    H1 1193   6.298   3.063   4.565
  412TIP3    H2 1194   6.227   3.196   4.556
  413TIP3   OH2 1195   4.220   5.539   6.100
  413TIP3    H1 1196   4.182   5.475   6.160
  413TIP3    H2 1197   4.274   5.486   6.040
  414TIP3   OH2 1198   3.275   3.543   4.852
  414TIP3    H1 1199   3.343   3.477   4.868
  414TIP3    H2 1200   3.301   3.584   4.770
  415TIP3   OH2 1201   4.980   7.372   2.275
  415TIP3    H1 1202   4.931   7.305   2.229
  415TIP3    H2 1203   4.976   7.345   2.367
  416TIP3   OH2 1204   4.997   6.840   0.558
  416TIP3    H1 1205   5.033   6.836   0.647
  416TIP3    H2 1206   5.019   6.754   0.520
  417TIP3   OH2 1207   1.530   1.875   1.567
  417TIP3    H1 1208   1.467   1.919   1.509
  417TIP3    H2 1209   1.580   1.947   1.607
  418TIP3   OH2 1210   5.264   1.030   0.817
  418TIP3    H1 1211   5.242   1.105   0.762
  418TIP3    H2 1212   5.310   0.970   0.759
  419TIP3   OH2 1213   2.058   4.036   4.403
  419TIP3    H1 1214   2.133   3.982   4.378
  419TIP3    H2 1215   2.097   4.111   4.449
  420TIP3   OH2 1216   1.059   0.967   2.298
  420TIP3    H1 1217   0.982   0.914   2.319
  420TIP3    H2 1218   1.128   0.902   2.282
  421TIP3   OH2 1219   0.252   6.581   4.733
  421TIP3    H1 1220   0.239   6.516   4.802
  421TIP3    H2 1221   0.182   6.645   4.747
  422TIP3   OH2 1222   4.844   2.930   4.021
  422TIP3    H1 1223   4.761   2.914   3.975
  422TIP3    H2 1224   4.819   2.984   4.096
  423TIP3   OH2 1225   1.845   2.924   2.953
  423TIP3    H1 1226   1.878   2.998   3.004
  423TIP3    H2 1227   1.791   2.964   2.885
  424TIP3   OH2 1228   3.183   4.514   2.736
  424TIP3    H1 1229   3.214   4.604   2.722
  424TIP3    H2 1230   3.103   4.524   2.788
  425TIP3   OH2 1231   4.433   7.663   3.199
  425TIP3    H1 1232   4.341   7.691   3.207
  425TIP3    H2 1233   4.478   7.707   3.271
  426TIP3   OH2 1234   1.910   0.337   1.241
  426TIP3    H1 1235   1.830   0.387   1.224
  426TIP3    H2 1236   1.947   0.319   1.155
  427TIP3   OH2 1237   1.078   5.931   3.902
  427TIP3    H1 1238   1.151   5.992   3.907
  427TIP3    H2 1239   1.064   5.902   3.992
  428TIP3   OH2 1240   5.139   1.121   5.623
  428TIP3    H1 1241   5.085   1.153   5.695
  428TIP3    H2 1242   5.094   1.043   5.591
  429TIP3   OH2 1243   7.047   0.245   4.955
  429TIP3    H1 1244   7.025   0.279   4.868
  429TIP3    H2 1245   7.108   0.309   4.991
  430TIP3   OH2 1246   4.371   4.131   4.559
  430TIP3    H1 1247   4.406   4.218   4.581
  430TIP3    H2 1248   4.289   4.150   4.514
  431TIP3   OH2 1249   2.955   2.060   5.169
  431TIP3    H1 1250   2.999   2.106   5.241
  431TIP3    H2 1251   3.021   2.056   5.099
  432TIP3   OH2 1252   0.951   1.369   0.958
  432TIP3    H1 1253   0.899   1.416   1.023
  432TIP3    H2 1254   0.910   1.284   0.951
  433TIP3   OH2 1255   7.171   7.805   2.541
  433TIP3    H1 1256   7.218   7.867   2.485
  433TIP3    H2 1257   7.191   7.835   2.630
  434TIP3   OH2 1258   7.505   0.028   3.891
  434TIP3    H1 1259   7.579  -0.033   3.892
  434TIP3    H2 1260   7.529   0.096   3.954
  435TIP3   OH2 1261   6.304   0.825   2.921
  435TIP3    H1 1262   6.264   0.800   3.004
  435TIP3    H2 1263   6.398   0.807   2.933
  436TIP3   OH2 1264   4.882   7.148   4.569
  436TIP3    H1 1265   4.942   7.218   4.542
  436TIP3    H2 1266   4.800   7.192   4.587
  437TIP3   OH2 1267   7.014   1.115   2.753
  437TIP3    H1 1268   7.041   1.034   2.710
  437TIP3    H2 1269   6.920   1.103   2.768
  438TIP3   OH2 1270   1.132   5.072   4.815
  438TIP3    H1 1271   1.061   5.029   4.766
  438TIP3    H2 1272   1.124   5.164   4.791
  439TIP3   OH2 1273   4.311   1.742   3.743
  439TIP3    H1 1274   4.301   1.810   3.809
  439TIP3    H2 1275   4.295   1.786   3.660
  440TIP3   OH2 1276   7.350   6.649   4.408
  440TIP3    H1 1277   7.411   6.614   4.343
  440TIP3    H2 1278   7.355   6.744   4.396
  441TIP3   OH2 1279   7.669   2.461   0.317
  441TIP3    H1 1280   7.750   2.411   0.305
  441TIP3    H2 1281   7.639   2.479   0.227
  442TIP3   OH2 1282   1.941   5.679   5.155
  442TIP3    H1 1283   1.881   5.734   5.205
  442TIP3    H2 1284   2.014   5.737   5.132
  443TIP3   OH2 1285   4.358   2.742   0.050
  443TIP3    H1 1286   4.402   2.688  -0.016
  443TIP3    H2 1287   4.358   2.830   0.013
  444TIP3   OH2 1288   8.041   4.796   1.496
  444TIP3    H1 1289   8.019   4.717   1.545
  444TIP3    H2 1290   8.027   4.773   1.404
  445TIP3   OH2 1291   4.930   0.347   6.472
  445TIP3    H1 1292   4.966   0.346   6.383
  445TIP3    H2 1293   4.948   0.259   6.506
  446TIP3   OH2 1294   5.792   5.688   3.824
  446TIP3    H1 1295   5.768   5.637   3.747
  446TIP3    H2 1296   5.735   5.654   3.893
  447TIP3   OH2 1297   6.613   0.862   1.982
  447TIP3    H1 1298   6.623   0.787   2.040
  447TIP3    H2 1299   6.518   0.876   1.978
  448TIP3   OH2 1300   1.687   5.099   2.480
  448TIP3    H1 1301   1.717   5.178   2.435
  448TIP3    H2 1302   1.633   5.053   2.416
  449TIP3   OH2 1303   7.952   3.344   1.955
  449TIP3    H1 1304   7.950   3.379   1.866
  449TIP3    H2 1305   7.987   3.255   1.945
  450TIP3   OH2 1306   1.301   0.985   4.694
  450TIP3    H1 1307   1.306   0.948   4.783
  450TIP3    H2 1308   1.364   1.056   4.694
  451TIP3   OH2 1309   2.969   3.651   0.008
  451TIP3    H1 1310   2.996   3.594   0.080
  451TIP3    H2 1311   2.935   3.591  -0.058
  452TIP3   OH2 1312   4.583   6.007   3.483
  452TIP3    H1 1313   4.560   5.994   3.575
  452TIP3    H2 1314   4.505   5.980   3.435
  453TIP3   OH2 1315   3.478   0.415   5.573
  453TIP3    H1 1316   3.446   0.422   5.483
  453TIP3    H2 1317   3.402   0.435   5.627
  454TIP3   OH2 1318   5.535   3.866   4.473
  454TIP3    H1 1319   5.536   3.791   4.413
  454TIP3    H2 1320   5.623   3.902   4.468
  455TIP3   OH2 1321   3.478   1.212   1.222
  455TIP3    H1 1322   3.431   1.256   1.293
  455TIP3    H2 1323   3.547   1.162   1.265
  456TIP3   OH2 1324   1.026   4.360   6.454
  456TIP3    H1 1325   1.100   4.367   6.394
  456TIP3    H2 1326   0.949   4.376   6.398
  457TIP3   OH2 1327   6.692   5.004   1.675
  457TIP3    H1 1328   6.716   4.990   1.583
  457TIP3    H2 1329   6.610   4.956   1.685
  458TIP3   OH2 1330   0.232   0.398   3.281
  458TIP3    H1 1331   0.217   0.484   3.242
  458TIP3    H2 1332   0.221   0.336   3.208
  459TIP3   OH2 1333   4.938   6.573   6.604
  459TIP3    H1 1334   4.856   6.610   6.571
  459TIP3    H2 1335   5.006   6.611   6.549
  460TIP3   OH2 1336   0.580   0.132   5.005
  460TIP3    H1 1337   0.581   0.222   4.971
  460TIP3    H2 1338   0.667   0.098   4.987
  461TIP3   OH2 1339   1.762   5.848   4.225
  461TIP3    H1 1340   1.743   5.756   4.244
  461TIP3    H2 1341   1.814   5.878   4.299
  462TIP3   OH2 1342   0.215   5.421   1.764
  462TIP3    H1 1343   0.301   5.382   1.750
  462TIP3    H2 1344   0.158   5.346   1.785
  463TIP3   OH2 1345   7.919   4.878   5.794
  463TIP3    H1 1346   7.963   4.908   5.715
  463TIP3    H2 1347   7.990   4.857   5.855
  464TIP3   OH2 1348   1.438   7.268   6.529
  464TIP3    H1 1349   1.366   7.316   6.571
  464TIP3    H2 1350   1.397   7.226   6.454
  465TIP3   OH2 1351   4.269   4.666   4.306
  465TIP3    H1 1352   4.232   4.727   4.370
  465TIP3    H2 1353   4.338   4.620   4.354
  466TIP3   OH2 1354   5.645   7.727   0.279
  466TIP3    H1 1355   5.740   7.732   0.281
  466TIP3    H2 1356   5.619   7.787   0.209
  467TIP3   OH2 1357   1.217   0.707   0.556
  467TIP3    H1 1358   1.158   0.632   0.548
  467TIP3    H2 1359   1.209   0.752   0.471
  468TIP3   OH2 1360   5.846   3.450   1.251
  468TIP3    H1 1361   5.918   3.478   1.195
  468TIP3    H2 1362   5.889   3.409   1.326
  469TIP3   OH2 1363   3.786   2.638   5.531
  469TIP3    H1 1364   3.721   2.579   5.492
  469TIP3    H2 1365   3.815   2.692   5.457
  470TIP3   OH2 1366   6.118   6.839   3.052
  470TIP3    H1 1367   6.176   6.884   2.991
  470TIP3    H2 1368   6.106   6.752   3.014
  471TIP3   OH2 1369   2.738   3.709   2.938
  471TIP3    H1 1370   2.747   3.678   3.028
  471TIP3    H2 1371   2.800   3.782   2.931
  472TIP3   OH2 1372   7.705   1.468   5.965
  472TIP3    H1 1373   7.790   1.453   6.004
  472TIP3    H2 1374   7.691   1.393   5.907
  473TIP3   OH2 1375   7.532   3.982   2.141
  473TIP3    H1 1376   7.505   4.033   2.066
  473TIP3    H2 1377   7.604   4.032   2.180
  474TIP3   OH2 1378   3.901   3.626   3.285
  474TIP3    H1 1379   3.872   3.575   3.360
  474TIP3    H2 1380   3.948   3.701   3.323
  475TIP3   OH2 1381   0.836   4.994   2.704
  475TIP3    H1 1382   0.793   5.001   2.789
  475TIP3    H2 1383   0.873   4.906   2.703
  476TIP3   OH2 1384   4.540   0.119   0.041
  476TIP3    H1 1385   4.610   0.184   0.039
  476TIP3    H2 1386   4.570   0.053   0.103
  477TIP3   OH2 1387   6.111   7.576   4.985
  477TIP3    H1 1388   6.121   7.643   4.917
  477TIP3    H2 1389   6.112   7.625   5.067
  478TIP3   OH2 1390   3.875   7.617   1.447
  478TIP3    H1 1391   3.948   7.650   1.396
  478TIP3    H2 1392   3.910   7.539   1.491
  479TIP3   OH2 1393   3.747   2.649   1.497
  479TIP3    H1 1394   3.743   2.691   1.583
  479TIP3    H2 1395   3.807   2.576   1.509
  480TIP3   OH2 1396   4.648   0.682   6.023
  480TIP3    H1 1397   4.734   0.671   6.063
  480TIP3    H2 1398   4.593   0.618   6.067
  481TIP3   OH2 1399   4.224   1.256   0.358
  481TIP3    H1 1400   4.137   1.286   0.331
  481TIP3    H2 1401   4.210   1.168   0.392
  482TIP3   OH2 1402   0.848   1.316   5.689
  482TIP3    H1 1403   0.927   1.293   5.640
  482TIP3    H2 1404   0.870   1.295   5.780
  483TIP3   OH2 1405   3.202   4.927   2.091
  483TIP3    H1 1406   3.195   4.993   2.159
  483TIP3    H2 1407   3.237   4.850   2.135
  484TIP3   OH2 1408   3.077   5.226   0.734
  484TIP3    H1 1409   3.012   5.169   0.691
  484TIP3    H2 1410   3.147   5.167   0.759
  485TIP3   OH2 1411   2.994   0.738   2.532
  485TIP3    H1 1412   3.089   0.744   2.538
  485TIP3    H2 1413   2.974   0.751   2.440
  486TIP3   OH2 1414   8.214   2.693   2.061
  486TIP3    H1 1415   8.157   2.750   2.111
  486TIP3    H2 1416   8.166   2.610   2.054
  487TIP3   OH2 1417   3.099   1.694   2.143
  487TIP3    H1 1418   3.062   1.664   2.060
  487TIP3    H2 1419   3.088   1.619   2.203
  488TIP3   OH2 1420   7.334   6.855   0.873
  488TIP3    H1 1421   7.370   6.800   0.942
  488TIP3    H2 1422   7.408   6.872   0.815
  489TIP3   OH2 1423   3.620   2.394   5.175
  489TIP3    H1 1424   3.604   2.394   5.081
  489TIP3    H2 1425   3.536   2.417   5.214
  490TIP3   OH2 1426   0.898   7.257   1.537
  490TIP3    H1 1427   0.944   7.254   1.621
  490TIP3    H2 1428   0.844   7.336   1.542
  491TIP3   OH2 1429   8.253   0.331   0.238
  491TIP3    H1 1430   8.221   0.409   0.194
  491TIP3    H2 1431   8.201   0.324   0.318
  492TIP3   OH2 1432   2.542   0.993   1.509
  492TIP3    H1 1433   2.492   0.938   1.569
  492TIP3    H2 1434   2.576   1.063   1.563
  493TIP3   OH2 1435   3.338   6.833   3.436
  493TIP3    H1 1436   3.282   6.876   3.501
  493TIP3    H2 1437   3.386   6.903   3.394
  494TIP3   OH2 1438   4.063   2.038   0.177
  494TIP3    H1 1439   3.986   2.069   0.130
  494TIP3    H2 1440   4.113   2.117   0.198
  495TIP3   OH2 1441   1.248   7.173   4.381
  495TIP3    H1 1442   1.292   7.143   4.302
  495TIP3    H2 1443   1.186   7.240   4.351
  496TIP3   OH2 1444   6.849   6.907   5.324
  496TIP3    H1 1445   6.795   6.970   5.276
  496TIP3    H2 1446   6.820   6.914   5.415
  497TIP3   OH2 1447   6.146   0.919   3.490
  497TIP3    H1 1448   6.073   0.974   3.461
  497TIP3    H2 1449   6.199   0.906   3.412
  498TIP3   OH2 1450   3.674   6.897   5.283
  498TIP3    H1 1451   3.753   6.906   5.230
  498TIP3    H2 1452   3.690   6.822   5.339
  499TIP3   OH2 1453   6.395   7.555   4.045
  499TIP3    H1 1454   6.323   7.607   4.009
  499TIP3    H2 1455   6.392   7.573   4.139
  500TIP3   OH2 1456   2.482   5.025   5.886
  500TIP3    H1 1457   2.485   5.032   5.982
  500TIP3    H2 1458   2.516   5.109   5.855
  501TIP3   OH2 1459   1.843   0.027   0.075
  501TIP3    H1 1460   1.912   0.038   0.010
  501TIP3    H2 1461   1.857   0.099   0.138
  502TIP3   OH2 1462   3.399   3.393   1.406
  502TIP3    H1 1463   3.443   3.472   1.435
  502TIP3    H2 1464   3.324   3.425   1.356
  503TIP3   OH2 1465   2.503   6.708   3.629
  503TIP3    H1 1466   2.421   6.748   3.601
  503TIP3    H2 1467   2.542   6.675   3.548
  504TIP3   OH2 1468   1.052   5.971   5.921
  504TIP3    H1 1469   1.072   6.058   5.887
  504TIP3    H2 1470   0.966   5.980   5.961
  505TIP3   OH2 1471   7.062   0.165   0.277
  505TIP3    H1 1472   7.134   0.228   0.269
  505TIP3    H2 1473   7.091   0.089   0.226
  506TIP3   OH2 1474   1.713   5.197   1.140
  506TIP3    H1 1475   1.690   5.265   1.077
  506TIP3    H2 1476   1.726   5.244   1.222
  507TIP3   OH2 1477   3.723   0.005   4.558
  507TIP3    H1 1478   3.647  -0.024   4.609
  507TIP3    H2 1479   3.747   0.089   4.597
  508TIP3   OH2 1480   3.456   4.512   0.616
  508TIP3    H1 1481   3.540   4.551   0.643
  508TIP3    H2 1482   3.395   4.586   0.614
  509TIP3   OH2 1483   3.293   7.107   6.532
  509TIP3    H1 1484   3.248   7.048   6.472
  509TIP3    H2 1485   3.327   7.049   6.601
  510TIP3   OH2 1486   8.023   2.398   2.538
  510TIP3    H1 1487   8.014   2.493   2.535
  510TIP3    H2 1488   8.064   2.380   2.622
  511TIP3   OH2 1489   6.844   5.800   4.516
  511TIP3    H1 1490   6.834   5.889   4.483
  511TIP3    H2 1491   6.936   5.793   4.541
  512TIP3   OH2 1492   8.037   7.688   1.161
  512TIP3    H1 1493   8.069   7.622   1.223
  512TIP3    H2 1494   8.111   7.748   1.150
  513TIP3   OH2 1495   6.316   3.822   3.486
  513TIP3    H1 1496   6.242   3.862   3.533
  513TIP3    H2 1497   6.282   3.805   3.398
  514TIP3   OH2 1498   7.981   2.766   5.349
  514TIP3    H1 1499   7.891   2.773   5.383
  514TIP3    H2 1500   7.972   2.711   5.271
  515TIP3   OH2 1501   2.241   5.693   5.265
  515TIP3    H1 1502   2.283   5.647   5.192
  515TIP3    H2 1503   2.250   5.634   5.339
  516TIP3   OH2 1504   0.936   0.134   4.476
  516TIP3    H1 1505   0.877   0.204   4.447
  516TIP3    H2 1506   1.017   0.180   4.498
  517TIP3   OH2 1507   0.711   5.707   0.203
  517TIP3    H1 1508   0.630   5.657   0.207
  517TIP3    H2 1509   0.754   5.677   0.123
  518TIP3   OH2 1510   6.540   1.517   6.181
  518TIP3    H1 1511   6.605   1.447   6.184
  518TIP3    H2 1512   6.530   1.536   6.088
  519TIP3   OH2 1513   1.569   2.447   2.693
  519TIP3    H1 1514   1.604   2.484   2.611
  519TIP3    H2 1515   1.581   2.517   2.758
  520TIP3   OH2 1516   3.579   4.557   3.910
  520TIP3    H1 1517   3.661   4.565   3.959
  520TIP3    H2 1518   3.605   4.568   3.819
  521TIP3   OH2 1519   7.338   7.480   0.421
  521TIP3    H1 1520   7.371   7.393   0.443
  521TIP3    H2 1521   7.324   7.522   0.505
  522TIP3   OH2 1522   4.978   6.155   0.031
  522TIP3    H1 1523   4.923   6.189  -0.039
  522TIP3    H2 1524   4.991   6.230   0.090
  523TIP3   OH2 1525   5.560   5.441   2.719
  523TIP3    H1 1526   5.482   5.441   2.775
  523TIP3    H2 1527   5.547   5.367   2.661
  524TIP3   OH2 1528   7.017   1.844   0.032
  524TIP3    H1 1529   7.113   1.843   0.035
  524TIP3    H2 1530   6.991   1.847   0.124
  525TIP3   OH2 1531   5.421   6.846   0.925
  525TIP3    H1 1532   5.374   6.805   0.998
  525TIP3    H2 1533   5.484   6.904   0.968
  526TIP3   OH2 1534   6.918   6.987   5.915
  526TIP3    H1 1535   6.984   7.026   5.971
  526TIP3    H2 1536   6.943   6.894   5.910
  527TIP3   OH2 1537   0.776   3.612   6.082
  527TIP3    H1 1538   0.724   3.539   6.048
  527TIP3    H2 1539   0.861   3.572   6.103
  528TIP3   OH2 1540   6.208   2.832   2.288
  528TIP3    H1 1541   6.189   2.902   2.227
  528TIP3    H2 1542   6.169   2.860   2.371
  529TIP3   OH2 1543   3.349   5.918   6.511
  529TIP3    H1 1544   3.341   5.900   6.418
  529TIP3    H2 1545   3.285   5.987   6.529
  530TIP3   OH2 1546   0.302   2.189   1.850
  530TIP3    H1 1547   0.252   2.258   1.893
  530TIP3    H2 1548   0.315   2.123   1.918
  531TIP3   OH2 1549   0.239   4.107   5.120
  531TIP3    H1 1550   0.274   4.060   5.045
  531TIP3    H2 1551   0.179   4.171   5.083
  532TIP3   OH2 1552   2.179   5.984   0.779
  532TIP3    H1 1553   2.237   6.029   0.717
  532TIP3    H2 1554   2.146   6.054   0.835
  533TIP3   OH2 1555   4.320   2.470   0.351
  533TIP3    H1 1556   4.303   2.561   0.376
  533TIP3    H2 1557   4.374   2.436   0.421
  534TIP3   OH2 1558   4.462   0.733   6.340
  534TIP3    H1 1559   4.475   0.648   6.300
  534TIP3    H2 1560   4.504   0.795   6.280
  535TIP3   OH2 1561   3.347   2.707   5.027
  535TIP3    H1 1562   3.392   2.700   5.111
  535TIP3    H2 1563   3.415   2.691   4.962
  536TIP3   OH2 1564   4.874   0.329   3.908
  536TIP3    H1 1565   4.838   0.291   3.988
  536TIP3    H2 1566   4.807   0.314   3.842
  537TIP3   OH2 1567   3.443   0.022   1.422
  537TIP3    H1 1568   3.358   0.004   1.381
  537TIP3    H2 1569   3.479   0.094   1.370
  538TIP3   OH2 1570   5.711   4.558   1.409
  538TIP3    H1 1571   5.701   4.617   1.334
  538TIP3    H2 1572   5.727   4.616   1.483
  539TIP3   OH2 1573   3.121   1.964   2.640
  539TIP3    H1 1574   3.079   1.890   2.684
  539TIP3    H2 1575   3.074   2.041   2.672
  540TIP3   OH2 1576   3.308   1.524   0.396
  540TIP3    H1 1577   3.334   1.448   0.448
  540TIP3    H2 1578   3.329   1.599   0.451
  541TIP3   OH2 1579   6.979   4.812   0.157
  541TIP3    H1 1580   7.005   4.846   0.071
  541TIP3    H2 1581   6.949   4.723   0.140
  542TIP3   OH2 1582   2.332   3.483   0.317
  542TIP3    H1 1583   2.246   3.461   0.354
  542TIP3    H2 1584   2.320   3.571   0.280
  543TIP3   OH2 1585   0.218   2.698   3.141
  543TIP3    H1 1586   0.279   2.771   3.126
  543TIP3    H2 1587   0.252   2.627   3.087
  544TIP3   OH2 1588   7.091   5.125   2.811
  544TIP3    H1 1589   7.124   5.172   2.888
  544TIP3    H2 1590   7.160   5.137   2.746
  545TIP3   OH2 1591   4.427   2.876   5.741
  545TIP3    H1 1592   4.342   2.834   5.755
  545TIP3    H2 1593   4.485   2.835   5.806
  546TIP3   OH2 1594   5.586   3.632   3.792
  546TIP3    H1 1595   5.522   3.680   3.739
  546TIP3    H2 1596   5.621   3.698   3.852
  547TIP3   OH2 1597   3.432   2.788   5.429
  547TIP3    H1 1598   3.417   2.876   5.463
  547TIP3    H2 1599   3.517   2.795   5.383
  548TIP3   OH2 1600   6.890   7.533   0.295
  548TIP3    H1 1601   6.941   7.461   0.259
  548TIP3    H2 1602   6.914   7.535   0.388
  549TIP3   OH2 1603   2.104   7.152   2.950
  549TIP3    H1 1604   2.059   7.166   2.866
  549TIP3    H2 1605   2.037   7.171   3.016
  550TIP3   OH2 1606   7.795   7.489   5.315
  550TIP3    H1 1607   7.721   7.457   5.367
  550TIP3    H2 1608   7.865   7.426   5.332
  551TIP3   OH2 1609   4.732   7.779   4.915
  551TIP3    H1 1610   4.661   7.842   4.907
  551TIP3    H2 1611   4.722   7.742   5.002
  552TIP3   OH2 1612   6.469   6.367   1.946
  552TIP3    H1 1613   6.462   6.394   1.855
  552TIP3    H2 1614   6.485   6.272   1.942
  553TIP3   OH2 1615   5.777   2.483   0.291
  553TIP3    H1 1616   5.709   2.512   0.352
  553TIP3    H2 1617   5.847   2.449   0.348
  554TIP3   OH2 1618   2.976   1.092   2.419
  554TIP3    H1 1619   2.957   1.119   2.508
  554TIP3    H2 1620   3.071   1.076   2.418
  555TIP3   OH2 1621   4.419   7.233   3.270
  555TIP3    H1 1622   4.464   7.285   3.337
  555TIP3    H2 1623   4.422   7.288   3.192
  556TIP3   OH2 1624   4.859   7.390   3.784
  556TIP3    H1 1625   4.817   7.429   3.861
  556TIP3    H2 1626   4.944   7.360   3.816
  557TIP3   OH2 1627   5.829   3.691   5.430
  557TIP3    H1 1628   5.909   3.638   5.427
  557TIP3    H2 1629   5.813   3.714   5.338
  558TIP3   OH2 1630   8.061   3.593   3.352
  558TIP3    H1 1631   8.147   3.597   3.394
  558TIP3    H2 1632   8.069   3.651   3.276
  559TIP3   OH2 1633   4.341   1.786   6.100
  559TIP3    H1 1634   4.252   1.806   6.127
  559TIP3    H2 1635   4.387   1.765   6.182
  560TIP3   OH2 1636   5.511   6.345   4.876
  560TIP3    H1 1637   5.604   6.357   4.895
  560TIP3    H2 1638   5.504   6.365   4.782
  561TIP3   OH2 1639   5.017   4.705   5.264
  561TIP3    H1 1640   5.024   4.699   5.360
  561TIP3    H2 1641   5.079   4.773   5.240
  562TIP3   OH2 1642   7.744   6.061   3.750
  562TIP3    H1 1643   7.833   6.037   3.779
  562TIP3    H2 1644   7.742   6.040   3.657
  563TIP3   OH2 1645   8.310   2.274   6.702
  563TIP3    H1 1646   8.364   2.326   6.643
  563TIP3    H2 1647   8.237   2.332   6.725
  564TIP3   OH2 1648   2.605   0.810   0.469
  564TIP3    H1 1649   2.532   0.863   0.502
  564TIP3    H2 1650   2.564   0.738   0.422
  565TIP3   OH2 1651   3.752   3.406   0.678
  565TIP3    H1 1652   3.714   3.432   0.594
  565TIP3    H2 1653   3.845   3.397   0.661
  566TIP3   OH2 1654   8.258   6.422   2.989
  566TIP3    H1 1655   8.349   6.415   2.960
  566TIP3    H2 1656   8.232   6.332   3.008
  567TIP3   OH2 1657   5.014   4.232   0.775
  567TIP3    H1 1658   4.962   4.298   0.731
  567TIP3    H2 1659   5.101   4.271   0.783
  568TIP3   OH2 1660   0.892   6.157   5.647
  568TIP3    H1 1661   0.810   6.194   5.680
  568TIP3    H2 1662   0.952   6.161   5.722
  569TIP3   OH2 1663   6.946   2.418   4.700
  569TIP3    H1 1664   7.001   2.373   4.764
  569TIP3    H2 1665   7.008   2.457   4.638
  570TIP3   OH2 1666   2.911   3.952   2.575
  570TIP3    H1 1667   2.989   3.978   2.624
  570TIP3    H2 1668   2.883   4.031   2.530
  571TIP3   OH2 1669   0.231   1.579   0.158
  571TIP3    H1 1670   0.288   1.569   0.082
  571TIP3    H2 1671   0.189   1.664   0.144
  572TIP3   OH2 1672   5.077   3.835   4.344
  572TIP3    H1 1673   5.061   3.786   4.424
  572TIP3    H2 1674   4.996   3.883   4.328
  573TIP3   OH2 1675   4.560   2.832   6.178
  573TIP3    H1 1676   4.651   2.807   6.192
  573TIP3    H2 1677   4.509   2.755   6.204
  574TIP3   OH2 1678   5.387   0.189   5.420
  574TIP3    H1 1679   5.465   0.244   5.417
  574TIP3    H2 1680   5.408   0.120   5.482
  575TIP3   OH2 1681   7.499   2.835   3.048
  575TIP3    H1 1682   7.517   2.915   3.097
  575TIP3    H2 1683   7.584   2.811   3.010
  576TIP3   OH2 1684   1.072   4.668   1.354
  576TIP3    H1 1685   1.101   4.698   1.440
  576TIP3    H2 1686   0.996   4.722   1.334
  577TIP3   OH2 1687   2.382   2.023   6.225
  577TIP3    H1 1688   2.339   1.973   6.295
  577TIP3    H2 1689   2.475   2.017   6.244
  578TIP3   OH2 1690   2.855   7.824   5.928
  578TIP3    H1 1691   2.836   7.757   5.862
  578TIP3    H2 1692   2.939   7.797   5.965
  579TIP3   OH2 1693   0.564   7.327   1.288
  579TIP3    H1 1694   0.594   7.265   1.354
  579TIP3    H2 1695   0.471   7.341   1.308
  580TIP3   OH2 1696   0.247   5.760   0.611
  580TIP3    H1 1697   0.169   5.710   0.634
  580TIP3    H2 1698   0.222   5.851   0.625
  581TIP3   OH2 1699   5.299   7.499   3.267
  581TIP3    H1 1700   5.238   7.572   3.280
  581TIP3    H2 1701   5.371   7.538   3.217
  582TIP3   OH2 1702   7.150   2.690   5.037
  582TIP3    H1 1703   7.172   2.610   4.989
  582TIP3    H2 1704   7.219   2.698   5.103
  583TIP3   OH2 1705   1.568   7.579   0.669
  583TIP3    H1 1706   1.649   7.580   0.618
  583TIP3    H2 1707   1.595   7.549   0.756
  584TIP3   OH2 1708   2.967   7.700   4.411
  584TIP3    H1 1709   3.034   7.634   4.395
  584TIP3    H2 1710   3.011   7.783   4.391
  585TIP3   OH2 1711   1.078   7.240   1.777
  585TIP3    H1 1712   1.161   7.263   1.736
  585TIP3    H2 1713   1.061   7.310   1.839
  586TIP3   OH2 1714   6.960   6.617   5.094
  586TIP3    H1 1715   6.992   6.650   5.178
  586TIP3    H2 1716   6.937   6.695   5.045
  587TIP3   OH2 1717   0.899   1.357   6.305
  587TIP3    H1 1718   0.952   1.405   6.241
  587TIP3    H2 1719   0.812   1.395   6.299
  588TIP3   OH2 1720   7.897   6.743   3.833
  588TIP3    H1 1721   7.833   6.768   3.899
  588TIP3    H2 1722   7.858   6.771   3.750
  589TIP3   OH2 1723   6.694   0.126   1.281
  589TIP3    H1 1724   6.628   0.160   1.220
  589TIP3    H2 1725   6.692   0.031   1.268
  590TIP3   OH2 1726   3.866   0.155   3.367
  590TIP3    H1 1727   3.797   0.186   3.308
  590TIP3    H2 1728   3.821   0.137   3.449
  591TIP3   OH2 1729   7.390   0.263   1.302
  591TIP3    H1 1730   7.317   0.218   1.261
  591TIP3    H2 1731   7.366   0.355   1.300
  592TIP3   OH2 1732   5.931   2.637   5.399
  592TIP3    H1 1733   5.937   2.661   5.307
  592TIP3    H2 1734   6.012   2.587   5.416
  593TIP3   OH2 1735   0.357   3.779   4.253
  593TIP3    H1 1736   0.411   3.700   4.260
  593TIP3    H2 1737   0.312   3.784   4.338
  594TIP3   OH2 1738   3.055   6.686   2.339
  594TIP3    H1 1739   3.125   6.744   2.309
  594TIP3    H2 1740   3.016   6.733   2.413
  595TIP3   OH2 1741   0.317   7.323   0.233
  595TIP3    H1 1742   0.385   7.267   0.198
  595TIP3    H2 1743   0.239   7.303   0.181
  596TIP3   OH2 1744   6.008   5.701   4.588
  596TIP3    H1 1745   6.011   5.666   4.499
  596TIP3    H2 1746   5.920   5.681   4.619
  597TIP3   OH2 1747   0.533   6.423   4.453
  597TIP3    H1 1748   0.445   6.400   4.423
  597TIP3    H2 1749   0.583   6.341   4.445
  598TIP3   OH2 1750   1.072   6.227   2.305
  598TIP3    H1 1751   1.123   6.307   2.316
  598TIP3    H2 1752   1.124   6.172   2.247
  599TIP3   OH2 1753   7.960   7.548   1.493
  599TIP3    H1 1754   7.869   7.578   1.488
  599TIP3    H2 1755   7.984   7.562   1.585
  600TIP3   OH2 1756   0.458   5.866   6.443
  600TIP3    H1 1757   0.380   5.862   6.499
  600TIP3    H2 1758   0.465   5.778   6.405
  601TIP3   OH2 1759   1.077   4.756   5.100
  601TIP3    H1 1760   1.171   4.741   5.103
  601TIP3    H2 1761   1.063   4.810   5.022
  602TIP3   OH2 1762   5.950   4.600   1.930
  602TIP3    H1 1763   5.877   4.650   1.965
  602TIP3    H2 1764   5.916   4.512   1.919
  603TIP3   OH2 1765   3.468   0.709   5.882
  603TIP3    H1 1766   3.561   0.730   5.881
  603TIP3    H2 1767   3.452   0.678   5.971
  604TIP3   OH2 1768   8.137   4.017   3.493
  604TIP3    H1 1769   8.156   3.937   3.542
  604TIP3    H2 1770   8.201   4.080   3.525
  605TIP3   OH2 1771   5.990   4.508   1.123
  605TIP3    H1 1772   5.966   4.459   1.202
  605TIP3    H2 1773   6.060   4.566   1.153
  606TIP3   OH2 1774   5.223   7.658   5.598
  606TIP3    H1 1775   5.318   7.671   5.597
  606TIP3    H2 1776   5.187   7.740   5.563
  607TIP3   OH2 1777   3.028   5.674   4.745
  607TIP3    H1 1778   3.077   5.621   4.807
  607TIP3    H2 1779   3.095   5.719   4.693
  608TIP3   OH2 1780   5.355   4.457   5.741
  608TIP3    H1 1781   5.368   4.519   5.813
  608TIP3    H2 1782   5.442   4.443   5.704
  609TIP3   OH2 1783   7.179   2.432   4.897
  609TIP3    H1 1784   7.233   2.354   4.911
  609TIP3    H2 1785   7.223   2.480   4.827
  610TIP3   OH2 1786   6.302   6.816   5.515
  610TIP3    H1 1787   6.288   6.850   5.426
  610TIP3    H2 1788   6.257   6.731   5.515
  611TIP3   OH2 1789   2.713   2.743   4.529
  611TIP3    H1 1790   2.698   2.792   4.449
  611TIP3    H2 1791   2.797   2.698   4.515
  612TIP3   OH2 1792   4.791   1.517   3.664
  612TIP3    H1 1793   4.861   1.564   3.708
  612TIP3    H2 1794   4.827   1.493   3.578
  613TIP3   OH2 1795   0.076   3.350   6.785
  613TIP3    H1 1796   0.144   3.397   6.737
  613TIP3    H2 1797   0.065   3.268   6.736
  614TIP3   OH2 1798   1.405   7.757   1.329
  614TIP3    H1 1799   1.324   7.803   1.352
  614TIP3    H2 1800   1.376   7.686   1.271
  615TIP3   OH2 1801   1.017   0.514   5.982
  615TIP3    H1 1802   1.092   0.542   5.930
  615TIP3    H2 1803   1.053   0.495   6.069
  616TIP3   OH2 1804   7.727   6.368   0.531
  616TIP3    H1 1805   7.735   6.456   0.570
  616TIP3    H2 1806   7.692   6.383   0.444
  617TIP3   OH2 1807   6.431   0.618   2.399
  617TIP3    H1 1808   6.450   0.606   2.306
  617TIP3    H2 1809   6.342   0.653   2.401
  618TIP3   OH2 1810   3.629   1.768   4.314
  618TIP3    H1 1811   3.702   1.810   4.268
  618TIP3    H2 1812   3.560   1.762   4.248
  619TIP3   OH2 1813   8.136   5.923   1.534
  619TIP3    H1 1814   8.183   5.996   1.574
  619TIP3    H2 1815   8.108   5.955   1.448
  620TIP3   OH2 1816   0.975   7.209   5.264
  620TIP3    H1 1817   0.899   7.196   5.207
  620TIP3    H2 1818   0.949   7.281   5.322
  621TIP3   OH2 1819   8.087   7.761   5.848
  621TIP3    H1 1820   8.059   7.828   5.785
  621TIP3    H2 1821   8.052   7.680   5.813
  622TIP3   OH2 1822   2.687   6.651   4.273
  622TIP3    H1 1823   2.671   6.662   4.367
  622TIP3    H2 1824   2.670   6.737   4.236
  623TIP3   OH2 1825   0.788   3.888   5.572
  623TIP3    H1 1826   0.845   3.892   5.495
  623TIP3    H2 1827   0.795   3.975   5.612
  624TIP3   OH2 1828   1.971   1.508   6.679
  624TIP3    H1 1829   2.011   1.438   6.729
  624TIP3    H2 1830   1.877   1.491   6.683
  625TIP3   OH2 1831   2.786   5.885   2.817
  625TIP3    H1 1832   2.768   5.908   2.726
  625TIP3    H2 1833   2.851   5.815   2.812
  626TIP3   OH2 1834   2.079   3.423   5.843
  626TIP3    H1 1835   2.001   3.466   5.877
  626TIP3    H2 1836   2.086   3.452   5.752
  627TIP3   OH2 1837   6.401   1.558   0.091
  627TIP3    H1 1838   6.479   1.532   0.042
  627TIP3    H2 1839   6.332   1.565   0.024
  628TIP3   OH2 1840   3.872   6.485   4.505
  628TIP3    H1 1841   3.878   6.510   4.597
  628TIP3    H2 1842   3.814   6.551   4.466
  629TIP3   OH2 1843   0.366   3.504   0.820
  629TIP3    H1 1844   0.284   3.551   0.804
  629TIP3    H2 1845   0.347   3.447   0.895
  630TIP3   OH2 1846   6.255   5.960   6.211
  630TIP3    H1 1847   6.219   5.946   6.123
  630TIP3    H2 1848   6.180   5.959   6.269
  631TIP3   OH2 1849   2.084   7.775   1.486
  631TIP3    H1 1850   2.041   7.814   1.410
  631TIP3    H2 1851   2.150   7.717   1.448
  632TIP3   OH2 1852   4.111   3.439   3.557
  632TIP3    H1 1853   4.026   3.439   3.513
  632TIP3    H2 1854   4.127   3.347   3.578
  633TIP3   OH2 1855   4.224   7.797   2.340
  633TIP3    H1 1856   4.179   7.753   2.412
  633TIP3    H2 1857   4.302   7.744   2.324
  634TIP3   OH2 1858   7.645   5.839   3.488
  634TIP3    H1 1859   7.655   5.752   3.527
  634TIP3    H2 1860   7.734   5.874   3.484
  635TIP3   OH2 1861   4.667   1.963   0.252
  635TIP3    H1 1862   4.690   1.902   0.322
  635TIP3    H2 1863   4.571   1.964   0.252
  636TIP3   OH2 1864   2.323   6.345   1.744
  636TIP3    H1 1865   2.378   6.367   1.669
  636TIP3    H2 1866   2.364   6.389   1.818
  637TIP3   OH2 1867   5.078   2.405   5.926
  637TIP3    H1 1868   5.122   2.320   5.931
  637TIP3    H2 1869   5.095   2.446   6.010
  638TIP3   OH2 1870   4.635   0.204   1.033
  638TIP3    H1 1871   4.658   0.134   0.971
  638TIP3    H2 1872   4.540   0.212   1.026
  639TIP3   OH2 1873   6.113   0.413   2.449
  639TIP3    H1 1874   6.038   0.353   2.451
  639TIP3    H2 1875   6.116   0.451   2.536
  640TIP3   OH2 1876   3.273   5.330   4.979
  640TIP3    H1 1877   3.191   5.339   5.028
  640TIP3    H2 1878   3.257   5.377   4.897
  641TIP3   OH2 1879   7.355   2.770   5.226
  641TIP3    H1 1880   7.406   2.825   5.286
  641TIP3    H2 1881   7.417   2.746   5.157
  642TIP3   OH2 1882   6.130   3.335   2.515
  642TIP3    H1 1883   6.176   3.307   2.595
  642TIP3    H2 1884   6.112   3.254   2.468
  643TIP3   OH2 1885   7.194   4.192   2.011
  643TIP3    H1 1886   7.098   4.187   2.018
  643TIP3    H2 1887   7.217   4.269   2.063
  644TIP3   OH2 1888   6.260   2.737   5.861
  644TIP3    H1 1889   6.165   2.734   5.845
  644TIP3    H2 1890   6.294   2.661   5.815
  645TIP3   OH2 1891   3.478   5.463   6.174
  645TIP3    H1 1892   3.554   5.509   6.209
  645TIP3    H2 1893   3.461   5.506   6.089
  646TIP3   OH2 1894   6.594   0.638   1.439
  646TIP3    H1 1895   6.592   0.718   1.386
  646TIP3    H2 1896   6.679   0.642   1.485
  647TIP3   OH2 1897   4.580   0.158   2.032
  647TIP3    H1 1898   4.630   0.171   1.951
  647TIP3    H2 1899   4.644   0.173   2.102
  648TIP3   OH2 1900   0.272   5.937   5.966
  648TIP3    H1 1901   0.360   5.921   6.000
  648TIP3    H2 1902   0.271   5.890   5.882
  649TIP3   OH2 1903   3.351   3.134   1.450
  649TIP3    H1 1904   3.268   3.149   1.405
  649TIP3    H2 1905   3.386   3.222   1.467
  650TIP3   OH2 1906   8.149   7.684   2.028
  650TIP3    H1 1907   8.220   7.621   2.017
  650TIP3    H2 1908   8.193   7.769   2.027
  651TIP3   OH2 1909   5.510   4.155   4.642
  651TIP3    H1 1910   5.505   4.214   4.568
  651TIP3    H2 1911   5.429   4.104   4.638
  652TIP3   OH2 1912   5.330   5.407   2.899
  652TIP3    H1 1913   5.352   5.418   2.991
  652TIP3    H2 1914   5.288   5.321   2.894
  653TIP3   OH2 1915   2.098   3.827   4.892
  653TIP3    H1 1916   2.010   3.793   4.875
  653TIP3    H2 1917   2.085   3.897   4.955
  654TIP3   OH2 1918   3.028   7.555   3.514
  654TIP3    H1 1919   3.037   7.460   3.518
  654TIP3    H2 1920   3.005   7.574   3.423
  655TIP3   OH2 1921   7.582   2.489   2.300
  655TIP3    H1 1922   7.569   2.394   2.307
  655TIP3    H2 1923   7.675   2.502   2.322
  656TIP3   OH2 1924   3.307   1.249   6.356
  656TIP3    H1 1925   3.392   1.221   6.324
  656TIP3    H2 1926   3.245   1.220   6.290
  657TIP3   OH2 1927   4.853   4.443   3.375
  657TIP3    H1 1928   4.771   4.486   3.400
  657TIP3    H2 1929   4.912   4.460   3.448
  658TIP3   OH2 1930   0.651   2.325   3.264
  658TIP3    H1 1931   0.681   2.238   3.238
  658TIP3    H2 1932   0.621   2.365   3.182
  659TIP3   OH2 1933   6.349   3.984   0.522
  659TIP3    H1 1934   6.420   3.934   0.483
  659TIP3    H2 1935   6.372   3.991   0.614
  660TIP3   OH2 1936   6.957   6.631   5.579
  660TIP3    H1 1937   7.030   6.650   5.637
  660TIP3    H2 1938   6.884   6.682   5.613
  661TIP3   OH2 1939   0.507   6.465   2.941
  661TIP3    H1 1940   0.510   6.428   2.853
  661TIP3    H2 1941   0.499   6.559   2.928
  662TIP3   OH2 1942   3.422   6.535   5.347
  662TIP3    H1 1943   3.464   6.597   5.289
  662TIP3    H2 1944   3.432   6.573   5.434
  663TIP3   OH2 1945   1.091   6.303   6.088
  663TIP3    H1 1946   1.048   6.359   6.153
  663TIP3    H2 1947   1.115   6.224   6.136
  664TIP3   OH2 1948   1.793   2.241   3.016
  664TIP3    H1 1949   1.753   2.154   3.024
  664TIP3    H2 1950   1.838   2.240   2.932
  665TIP3   OH2 1951   8.176   7.702   3.153
  665TIP3    H1 1952   8.191   7.704   3.248
  665TIP3    H2 1953   8.263   7.690   3.116
  666TIP3   OH2 1954   2.510   3.830   0.036
  666TIP3    H1 1955   2.436   3.873  -0.006
  666TIP3    H2 1956   2.474   3.748   0.071
  667TIP3   OH2 1957   0.459   5.294   6.437
  667TIP3    H1 1958   0.414   5.210   6.425
  667TIP3    H2 1959   0.547   5.270   6.465
  668TIP3   OH2 1960   0.566   4.606   0.365
  668TIP3    H1 1961   0.621   4.674   0.404
  668TIP3    H2 1962   0.623   4.529   0.359
  669TIP3   OH2 1963   8.201   5.822   4.909
  669TIP3    H1 1964   8.165   5.903   4.944
  669TIP3    H2 1965   8.237   5.777   4.986
  670TIP3   OH2 1966   0.336   0.483   1.204
  670TIP3    H1 1967   0.354   0.549   1.271
  670TIP3    H2 1968   0.421   0.466   1.163
  671TIP3   OH2 1969   5.326   7.822   2.543
  671TIP3    H1 1970   5.414   7.858   2.557
  671TIP3    H2 1971   5.316   7.819   2.448
  672TIP3   OH2 1972   4.454   3.381   3.546
  672TIP3    H1 1973   4.399   3.305   3.528
  672TIP3    H2 1974   4.422   3.415   3.629
  673TIP3   OH2 1975   6.176   0.183   1.030
  673TIP3    H1 1976   6.160   0.143   1.116
  673TIP3    H2 1977   6.226   0.117   0.982
  674TIP3   OH2 1978   2.218   1.936   6.413
  674TIP3    H1 1979   2.133   1.904   6.384
  674TIP3    H2 1980   2.246   1.874   6.480
  675TIP3   OH2 1981   4.604   1.905   6.241
  675TIP3    H1 1982   4.629   1.828   6.189
  675TIP3    H2 1983   4.681   1.924   6.295
  676TIP3   OH2 1984   6.282   3.924   4.780
  676TIP3    H1 1985   6.195   3.884   4.777
  676TIP3    H2 1986   6.318   3.909   4.693
  677TIP3   OH2 1987   3.429   5.845   4.828
  677TIP3    H1 1988   3.429   5.779   4.897
  677TIP3    H2 1989   3.510   5.828   4.778
  678TIP3   OH2 1990   2.165   1.796   0.846
  678TIP3    H1 1991   2.096   1.801   0.780
  678TIP3    H2 1992   2.185   1.703   0.852
  679TIP3   OH2 1993   1.744   6.670   4.511
  679TIP3    H1 1994   1.689   6.690   4.435
  679TIP3    H2 1995   1.683   6.632   4.575
  680TIP3   OH2 1996   0.325   3.070   6.723
  680TIP3    H1 1997   0.403   3.124   6.716
  680TIP3    H2 1998   0.356   2.981   6.703
  681TIP3   OH2 1999   4.989   5.969   4.714
  681TIP3    H1 2000   4.939   5.903   4.666
  681TIP3    H2 2001   4.923   6.021   4.759
  682TIP3   OH2 2002   3.688   7.599   3.234
  682TIP3    H1 2003   3.618   7.661   3.218
  682TIP3    H2 2004   3.727   7.583   3.148
  683TIP3   OH2 2005   5.517   2.377   5.285
  683TIP3    H1 2006   5.591   2.352   5.229
  683TIP3    H2 2007   5.446   2.397   5.224
  684TIP3   OH2 2008   6.873   0.108   4.057
  684TIP3    H1 2009   6.864   0.099   3.962
  684TIP3    H2 2010   6.837   0.027   4.093
  685TIP3   OH2 2011   7.202   4.608   0.412
  685TIP3    H1 2012   7.139   4.572   0.474
  685TIP3    H2 2013   7.201   4.547   0.339
  686TIP3   OH2 2014   6.314   4.201   3.600
  686TIP3    H1 2015   6.336   4.293   3.613
  686TIP3    H2 2016   6.302   4.192   3.505
  687TIP3   OH2 2017   7.546   3.119   6.364
  687TIP3    H1 2018   7.457   3.102   6.335
  687TIP3    H2 2019   7.540   3.202   6.412
  688TIP3   OH2 2020   3.768   4.382   6.246
  688TIP3    H1 2021   3.768   4.361   6.339
  688TIP3    H2 2022   3.789   4.299   6.202
  689TIP3   OH2 2023   7.286   4.905   3.049
  689TIP3    H1 2024   7.264   4.872   3.136
  689TIP3    H2 2025   7.228   4.857   2.990
  690TIP3   OH2 2026   7.033   4.756   4.295
  690TIP3    H1 2027   7.121   4.752   4.332
  690TIP3    H2 2028   7.047   4.771   4.202
  691TIP3   OH2 2029   1.665   6.135   2.820
  691TIP3    H1 2030   1.680   6.048   2.783
  691TIP3    H2 2031   1.613   6.119   2.899
  692TIP3   OH2 2032   3.716   7.323   5.857
  692TIP3    H1 2033   3.766   7.339   5.937
  692TIP3    H2 2034   3.723   7.229   5.842
  693TIP3   OH2 2035   4.975   0.461   1.163
  693TIP3    H1 2036   4.989   0.376   1.205
  693TIP3    H2 2037   5.058   0.482   1.122
  694TIP3   OH2 2038   2.618   4.714   3.800
  694TIP3    H1 2039   2.544   4.769   3.775
  694TIP3    H2 2040   2.592   4.674   3.882
  695TIP3   OH2 2041   3.480   1.003   3.492
  695TIP3    H1 2042   3.463   1.052   3.572
  695TIP3    H2 2043   3.572   0.977   3.500
  696TIP3   OH2 2044   2.276   4.904   3.225
  696TIP3    H1 2045   2.222   4.833   3.260
  696TIP3    H2 2046   2.354   4.904   3.282
  697TIP3   OH2 2047   2.526   1.213   2.555
  697TIP3    H1 2048   2.620   1.231   2.560
  697TIP3    H2 2049   2.509   1.200   2.461
  698TIP3   OH2 2050   5.218   1.687   6.255
  698TIP3    H1 2051   5.133   1.729   6.270
  698TIP3    H2 2052   5.270   1.754   6.211
  699TIP3   OH2 2053   6.127   6.771   3.364
  699TIP3    H1 2054   6.103   6.795   3.275
  699TIP3    H2 2055   6.044   6.768   3.412
  700TIP3   OH2 2056   4.722   0.458   1.045
  700TIP3    H1 2057   4.812   0.462   1.078
  700TIP3    H2 2058   4.704   0.364   1.035
  701TIP3   OH2 2059   2.619   3.502   0.853
  701TIP3    H1 2060   2.586   3.533   0.769
  701TIP3    H2 2061   2.650   3.413   0.836
  702TIP3   OH2 2062   6.441   2.226   6.157
  702TIP3    H1 2063   6.440   2.200   6.064
  702TIP3    H2 2064   6.533   2.217   6.183
  703TIP3   OH2 2065   0.889   0.901   5.353
  703TIP3    H1 2066   0.950   0.937   5.417
  703TIP3    H2 2067   0.812   0.957   5.360
  704TIP3   OH2 2068   4.118   4.246   4.510
  704TIP3    H1 2069   4.082   4.174   4.458
  704TIP3    H2 2070   4.116   4.321   4.451
  705TIP3   OH2 2071   4.149   4.145   2.311
  705TIP3    H1 2072   4.207   4.119   2.382
  705TIP3    H2 2073   4.061   4.129   2.346
  706TIP3   OH2 2074   3.233   1.445   6.581
  706TIP3    H1 2075   3.159   1.397   6.620
  706TIP3    H2 2076   3.252   1.397   6.500
  707TIP3   OH2 2077   0.196   0.110   0.814
  707TIP3    H1 2078   0.155   0.149   0.736
  707TIP3    H2 2079   0.277   0.160   0.826
  708TIP3   OH2 2080   8.223   1.894   5.781
  708TIP3    H1 2081   8.131   1.903   5.805
  708TIP3    H2 2082   8.261   1.842   5.851
  709TIP3   OH2 2083   2.952   2.701   4.409
  709TIP3    H1 2084   3.021   2.645   4.444
  709TIP3    H2 2085   2.989   2.789   4.410
  710TIP3   OH2 2086   5.809   0.968   3.595
  710TIP3    H1 2087   5.856   0.983   3.513
  710TIP3    H2 2088   5.877   0.938   3.656
  711TIP3   OH2 2089   6.172   0.215   0.415
  711TIP3    H1 2090   6.202   0.296   0.372
  711TIP3    H2 2091   6.155   0.155   0.342
  712TIP3   OH2 2092   5.683   6.090   6.420
  712TIP3    H1 2093   5.701   6.077   6.513
  712TIP3    H2 2094   5.769   6.111   6.382
  713TIP3   OH2 2095   1.476   1.787   0.237
  713TIP3    H1 2096   1.482   1.812   0.330
  713TIP3    H2 2097   1.555   1.736   0.221
  714TIP3   OH2 2098   4.531   1.255   5.169
  714TIP3    H1 2099   4.599   1.299   5.117
  714TIP3    H2 2100   4.579   1.192   5.222
  715TIP3   OH2 2101   1.358   6.905   4.778
  715TIP3    H1 2102   1.374   6.998   4.769
  715TIP3    H2 2103   1.336   6.875   4.690
  716TIP3   OH2 2104   8.079   5.746   1.195
  716TIP3    H1 2105   8.085   5.789   1.280
  716TIP3    H2 2106   8.149   5.784   1.143
  717TIP3   OH2 2107   5.390   3.839   6.018
  717TIP3    H1 2108   5.400   3.745   6.027
  717TIP3    H2 2109   5.299   3.856   6.044
  718TIP3   OH2 2110   4.903   3.021   3.173
  718TIP3    H1 2111   4.840   3.059   3.112
  718TIP3    H2 2112   4.883   2.927   3.174
  719TIP3   OH2 2113   2.043   5.979   2.305
  719TIP3    H1 2114   2.103   5.924   2.254
  719TIP3    H2 2115   1.998   6.032   2.239
  720TIP3   OH2 2116   3.653   5.658   1.442
  720TIP3    H1 2117   3.676   5.747   1.468
  720TIP3    H2 2118   3.733   5.624   1.401
  721TIP3   OH2 2119   1.558   6.574   4.691
  721TIP3    H1 2120   1.598   6.507   4.746
  721TIP3    H2 2121   1.464   6.556   4.696
  722TIP3   OH2 2122   0.665   6.320   5.585
  722TIP3    H1 2123   0.738   6.376   5.558
  722TIP3    H2 2124   0.589   6.379   5.584
  723TIP3   OH2 2125   1.014   2.706   6.451
  723TIP3    H1 2126   0.957   2.654   6.394
  723TIP3    H2 2127   0.954   2.754   6.508
  724TIP3   OH2 2128   1.211   1.399   1.245
  724TIP3    H1 2129   1.152   1.433   1.178
  724TIP3    H2 2130   1.235   1.312   1.215
  725TIP3   OH2 2131   4.043   5.874   0.293
  725TIP3    H1 2132   3.981   5.946   0.306
  725TIP3    H2 2133   4.103   5.906   0.226
  726TIP3   OH2 2134   1.361   3.351   2.390
  726TIP3    H1 2135   1.287   3.306   2.347
  726TIP3    H2 2136   1.438   3.302   2.362
  727TIP3   OH2 2137   1.857   6.607   5.130
  727TIP3    H1 2138   1.860   6.620   5.225
  727TIP3    H2 2139   1.883   6.691   5.093
  728TIP3   OH2 2140   0.569   0.065   6.211
  728TIP3    H1 2141   0.645   0.030   6.166
  728TIP3    H2 2142   0.570   0.159   6.190
  729TIP3   OH2 2143   7.036   3.638   4.921
  729TIP3    H1 2144   6.991   3.633   5.005
  729TIP3    H2 2145   7.125   3.665   4.944
  730TIP3   OH2 2146   7.163   2.965   5.203
  730TIP3    H1 2147   7.219   2.894   5.233
  730TIP3    H2 2148   7.177   3.035   5.267
  731TIP3   OH2 2149   7.497   2.133   5.133
  731TIP3    H1 2150   7.543   2.166   5.211
  731TIP3    H2 2151   7.484   2.040   5.152
  732TIP3   OH2 2152   5.633   0.009   1.266
  732TIP3    H1 2153   5.634  -0.057   1.197
  732TIP3    H2 2154   5.573   0.077   1.234
  733TIP3   OH2 2155   8.176   2.672   3.466
  733TIP3    H1 2156   8.237   2.719   3.409
  733TIP3    H2 2157   8.166   2.729   3.543
  734TIP3   OH2 2158   3.523   6.350   2.030
  734TIP3    H1 2159   3.444   6.378   1.984
  734TIP3    H2 2160   3.560   6.432   2.064
  735TIP3   OH2 2161   3.566   3.801   4.032
  735TIP3    H1 2162   3.512   3.866   4.075
  735TIP3    H2 2163   3.508   3.758   3.970
  736TIP3   OH2 2164   1.237   7.402   3.206
  736TIP3    H1 2165   1.330   7.380   3.199
  736TIP3    H2 2166   1.194   7.318   3.219
  737TIP3   OH2 2167   3.631   7.782   3.923
  737TIP3    H1 2168   3.623   7.687   3.930
  737TIP3    H2 2169   3.712   7.796   3.875
  738TIP3   OH2 2170   2.483   6.431   1.537
  738TIP3    H1 2171   2.402   6.462   1.497
  738TIP3    H2 2172   2.552   6.463   1.479
  739TIP3   OH2 2173   5.192   4.970   2.814
  739TIP3    H1 2174   5.229   5.001   2.731
  739TIP3    H2 2175   5.097   4.975   2.802
  740TIP3   OH2 2176   5.011   5.886   1.350
  740TIP3    H1 2177   5.048   5.834   1.278
  740TIP3    H2 2178   4.968   5.822   1.406
  741TIP3   OH2 2179   3.969   3.372   1.567
  741TIP3    H1 2180   3.993   3.297   1.620
  741TIP3    H2 2181   4.049   3.395   1.520
  742TIP3   OH2 2182   2.799   4.656   5.001
  742TIP3    H1 2183   2.808   4.586   5.066
  742TIP3    H2 2184   2.771   4.612   4.921
  743TIP3   OH2 2185   0.218   7.423   5.933
  743TIP3    H1 2186   0.214   7.509   5.893
  743TIP3    H2 2187   0.190   7.363   5.863
  744TIP3   OH2 2188   1.991   6.778   6.224
  744TIP3    H1 2189   1.896   6.789   6.233
  744TIP3    H2 2190   2.027   6.856   6.267
  745TIP3   OH2 2191   5.006   4.608   6.436
  745TIP3    H1 2192   5.075   4.575   6.378
  745TIP3    H2 2193   5.051   4.669   6.495
  746TIP3   OH2 2194   5.313   5.113   3.048
  746TIP3    H1 2195   5.393   5.145   3.006
  746TIP3    H2 2196   5.262   5.074   2.977
  747TIP3   OH2 2197   1.476   4.003   3.917
  747TIP3    H1 2198   1.539   3.949   3.964
  747TIP3    H2 2199   1.502   4.093   3.937
  748TIP3   OH2 2200   5.582   0.135   5.642
  748TIP3    H1 2201   5.524   0.062   5.619
  748TIP3    H2 2202   5.668   0.109   5.607
  749TIP3   OH2 2203   3.838   4.851   4.062
  749TIP3    H1 2204   3.856   4.810   3.977
  749TIP3    H2 2205   3.922   4.851   4.107
  750TIP3   OH2 2206   1.193   3.801   1.619
  750TIP3    H1 2207   1.246   3.723   1.607
  750TIP3    H2 2208   1.113   3.784   1.570
  751TIP3   OH2 2209   1.278   7.463   0.139
  751TIP3    H1 2210   1.337   7.391   0.160
  751TIP3    H2 2211   1.329   7.520   0.081
  752TIP3   OH2 2212   3.191   6.089   2.857
  752TIP3    H1 2213   3.156   6.040   2.932
  752TIP3    H2 2214   3.122   6.085   2.791
  753TIP3   OH2 2215   3.312   2.146   0.493
  753TIP3    H1 2216   3.384   2.094   0.457
  753TIP3    H2 2217   3.294   2.107   0.578
  754TIP3   OH2 2218   3.249   6.426   1.968
  754TIP3    H1 2219   3.182   6.493   1.979
  754TIP3    H2 2220   3.200   6.343   1.966
  755TIP3   OH2 2221   5.570   4.033   0.976
  755TIP3    H1 2222   5.596   3.955   1.024
  755TIP3    H2 2223   5.483   4.013   0.942
  756TIP3   OH2 2224   7.474   5.300   3.867
  756TIP3    H1 2225   7.550   5.300   3.925
  756TIP3    H2 2226   7.468   5.390   3.836
  757TIP3   OH2 2227   6.082   1.500   3.547
  757TIP3    H1 2228   6.043   1.444   3.613
  757TIP3    H2 2229   6.146   1.553   3.594
  758TIP3   OH2 2230   3.185   0.278   5.580
  758TIP3    H1 2231   3.239   0.232   5.515
  758TIP3    H2 2232   3.180   0.217   5.654
  759TIP3   OH2 2233   1.894   4.144   0.621
  759TIP3    H1 2234   1.817   4.101   0.658
  759TIP3    H2 2235   1.967   4.086   0.642
  760TIP3   OH2 2236   6.969   0.974   4.431
  760TIP3    H1 2237   7.049   0.925   4.413
  760TIP3    H2 2238   6.918   0.967   4.351
  761TIP3   OH2 2239   7.732   1.608   1.895
  761TIP3    H1 2240   7.792   1.540   1.927
  761TIP3    H2 2241   7.647   1.564   1.891
  762TIP3   OH2 2242   7.699   0.704   3.994
  762TIP3    H1 2243   7.644   0.630   4.019
  762TIP3    H2 2244   7.787   0.668   3.987
  763TIP3   OH2 2245   3.560   0.365   3.621
  763TIP3    H1 2246   3.494   0.409   3.675
  763TIP3    H2 2247   3.643   0.381   3.666
  764TIP3   OH2 2248   1.431   0.686   4.271
  764TIP3    H1 2249   1.496   0.670   4.202
  764TIP3    H2 2250   1.378   0.758   4.236
  765TIP3   OH2 2251   5.053   1.263   1.195
  765TIP3    H1 2252   5.087   1.189   1.145
  765TIP3    H2 2253   5.039   1.332   1.130
  766TIP3   OH2 2254   3.373   5.789   0.852
  766TIP3    H1 2255   3.454   5.754   0.889
  766TIP3    H2 2256   3.349   5.726   0.784
  767TIP3   OH2 2257   2.082   2.994   1.762
  767TIP3    H1 2258   2.035   2.997   1.845
  767TIP3    H2 2259   2.143   3.068   1.766
  768TIP3   OH2 2260   2.568   1.920   0.898
  768TIP3    H1 2261   2.485   1.966   0.885
  768TIP3    H2 2262   2.577   1.914   0.993
  769TIP3   OH2 2263   4.856   2.194   0.121
  769TIP3    H1 2264   4.918   2.243   0.176
  769TIP3    H2 2265   4.784   2.173   0.180
  770TIP3   OH2 2266   0.133   5.110   2.165
  770TIP3    H1 2267   0.149   5.091   2.258
  770TIP3    H2 2268   0.171   5.197   2.152
  771TIP3   OH2 2269   0.864   2.418   3.022
  771TIP3    H1 2270   0.824   2.460   2.946
  771TIP3    H2 2271   0.833   2.328   3.019
  772TIP3   OH2 2272   1.479   6.931   1.525
  772TIP3    H1 2273   1.504   7.022   1.510
  772TIP3    H2 2274   1.386   6.935   1.548
  773TIP3   OH2 2275   2.272  -0.049   4.766
  773TIP3    H1 2276   2.280  -0.099   4.847
  773TIP3    H2 2277   2.243   0.038   4.793
  774TIP3   OH2 2278   3.242   0.507   0.947
  774TIP3    H1 2279   3.152   0.537   0.957
  774TIP3    H2 2280   3.292   0.585   0.925
  775TIP3   OH2 2281   2.920   4.489   2.851
  775TIP3    H1 2282   2.906   4.411   2.905
  775TIP3    H2 2283   2.847   4.547   2.873
  776TIP3   OH2 2284   7.837   2.788   3.518
  776TIP3    H1 2285   7.821   2.774   3.612
  776TIP3    H2 2286   7.869   2.878   3.513
  777TIP3   OH2 2287   0.801   4.891   2.064
  777TIP3    H1 2288   0.803   4.805   2.107
  777TIP3    H2 2289   0.874   4.888   2.003
  778TIP3   OH2 2290   3.563   5.432   2.152
  778TIP3    H1 2291   3.490   5.380   2.119
  778TIP3    H2 2292   3.552   5.517   2.110
  779TIP3   OH2 2293   5.493   2.501   1.425
  779TIP3    H1 2294   5.440   2.470   1.498
  779TIP3    H2 2295   5.480   2.595   1.424
  780TIP3   OH2 2296   6.424   6.671   4.404
  780TIP3    H1 2297   6.503   6.714   4.372
  780TIP3    H2 2298   6.444   6.578   4.403
  781TIP3   OH2 2299   0.199   1.584   2.028
  781TIP3    H1 2300   0.188   1.675   2.001
  781TIP3    H2 2301   0.110   1.550   2.038
  782TIP3   OH2 2302   2.530   3.560   1.718
  782TIP3    H1 2303   2.529   3.577   1.812
  782TIP3    H2 2304   2.447   3.594   1.686
  783TIP3   OH2 2305   1.537   2.675   2.259
  783TIP3    H1 2306   1.451   2.679   2.217
  783TIP3    H2 2307   1.594   2.727   2.201
  784TIP3   OH2 2308   2.869   3.321   2.493
  784TIP3    H1 2309   2.833   3.239   2.526
  784TIP3    H2 2310   2.920   3.296   2.416
  785TIP3   OH2 2311   1.304   5.115   3.734
  785TIP3    H1 2312   1.284   5.146   3.646
  785TIP3    H2 2313   1.320   5.022   3.723
  786TIP3   OH2 2314   0.451   6.049   3.140
  786TIP3    H1 2315   0.485   6.039   3.228
  786TIP3    H2 2316   0.379   6.112   3.149
  787TIP3   OH2 2317   7.094   6.158   6.503
  787TIP3    H1 2318   7.109   6.253   6.509
  787TIP3    H2 2319   7.010   6.144   6.547
  788TIP3   OH2 2320   5.905   4.196   5.554
  788TIP3    H1 2321   5.856   4.219   5.475
  788TIP3    H2 2322   5.845   4.140   5.604
  789TIP3   OH2 2323   1.665   2.735   1.878
  789TIP3    H1 2324   1.754   2.756   1.908
  789TIP3    H2 2325   1.675   2.713   1.785
  790TIP3   OH2 2326   1.613   0.265   5.142
  790TIP3    H1 2327   1.702   0.243   5.169
  790TIP3    H2 2328   1.602   0.223   5.057
  791TIP3   OH2 2329   7.895   2.869   3.822
  791TIP3    H1 2330   7.824   2.810   3.848
  791TIP3    H2 2331   7.967   2.848   3.882
  792TIP3   OH2 2332   1.631   4.478   3.003
  792TIP3    H1 2333   1.672   4.401   2.963
  792TIP3    H2 2334   1.588   4.444   3.081
  793TIP3   OH2 2335   2.202   6.597   3.641
  793TIP3    H1 2336   2.177   6.516   3.685
  793TIP3    H2 2337   2.120   6.632   3.607
  794TIP3   OH2 2338   6.596   2.612   2.306
  794TIP3    H1 2339   6.568   2.527   2.339
  794TIP3    H2 2340   6.520   2.668   2.316
  795TIP3   OH2 2341   3.462   0.902   6.717
  795TIP3    H1 2342   3.373   0.880   6.687
  795TIP3    H2 2343   3.450   0.930   6.808
  796TIP3   OH2 2344   4.675   5.662   0.105
  796TIP3    H1 2345   4.639   5.745   0.074
  796TIP3    H2 2346   4.661   5.601   0.033
  797TIP3   OH2 2347   4.830   6.179   6.147
  797TIP3    H1 2348   4.827   6.174   6.051
  797TIP3    H2 2349   4.921   6.198   6.168
  798TIP3   OH2 2350   5.216   1.098   6.697
  798TIP3    H1 2351   5.197   1.010   6.663
  798TIP3    H2 2352   5.145   1.153   6.662
  799TIP3   OH2 2353   0.279   2.683   0.983
  799TIP3    H1 2354   0.359   2.644   0.949
  799TIP3    H2 2355   0.306   2.728   1.063
  800TIP3   OH2 2356   1.475   1.826   5.320
  800TIP3    H1 2357   1.412   1.853   5.387
  800TIP3    H2 2358   1.517   1.907   5.292
  801TIP3   OH2 2359   3.999   3.138   3.363
  801TIP3    H1 2360   4.011   3.142   3.458
  801TIP3    H2 2361   3.954   3.055   3.348
  802TIP3   OH2 2362   8.320   1.751   0.077
  802TIP3    H1 2363   8.229   1.756   0.105
  802TIP3    H2 2364   8.320   1.782  -0.013
  803TIP3   OH2 2365   0.206   7.453   6.224
  803TIP3    H1 2366   0.192   7.447   6.130
  803TIP3    H2 2367   0.128   7.415   6.263
  804TIP3   OH2 2368   3.392   6.540   1.006
  804TIP3    H1 2369   3.349   6.459   1.034
  804TIP3    H2 2370   3.421   6.523   0.917
  805TIP3   OH2 2371   2.088   4.495   3.538
  805TIP3    H1 2372   2.024   4.447   3.486
  805TIP3    H2 2373   2.083   4.455   3.625
  806TIP3   OH2 2374   2.124   3.978   0.737
  806TIP3    H1 2375   2.150   4.031   0.812
  806TIP3    H2 2376   2.190   3.908   0.733
  807TIP3   OH2 2377   4.320   5.475   2.994
  807TIP3    H1 2378   4.289   5.482   2.904
  807TIP3    H2 2379   4.306   5.383   3.017
  808TIP3   OH2 2380   5.608   4.048   4.205
  808TIP3    H1 2381   5.668   3.984   4.166
  808TIP3    H2 2382   5.526   4.000   4.216
  809TIP3   OH2 2383   0.145   5.633   4.839
  809TIP3    H1 2384   0.182   5.625   4.927
  809TIP3    H2 2385   0.050   5.638   4.854
  810TIP3   OH2 2386   0.489   7.342   1.689
  810TIP3    H1 2387   0.527   7.259   1.661
  810TIP3    H2 2388   0.503   7.344   1.784
  811TIP3   OH2 2389   6.960   0.817   4.715
  811TIP3    H1 2390   7.056   0.823   4.719
  811TIP3    H2 2391   6.942   0.769   4.635
  812TIP3   OH2 2392   1.550   7.565   4.373
  812TIP3    H1 2393   1.492   7.602   4.306
  812TIP3    H2 2394   1.625   7.624   4.374
  813TIP3   OH2 2395   0.870   4.481   5.325
  813TIP3    H1 2396   0.867   4.387   5.304
  813TIP3    H2 2397   0.778   4.508   5.326
  814TIP3   OH2 2398   4.264   0.578   5.135
  814TIP3    H1 2399   4.247   0.514   5.204
  814TIP3    H2 2400   4.301   0.653   5.180
  815TIP3   OH2 2401   3.266   1.375   1.336
  815TIP3    H1 2402   3.179   1.405   1.311
  815TIP3    H2 2403   3.300   1.445   1.393
  816TIP3   OH2 2404   3.830   5.498   2.416
  816TIP3    H1 2405   3.813   5.501   2.322
  816TIP3    H2 2406   3.781   5.422   2.447
  817TIP3   OH2 2407   5.455   4.802   5.669
  817TIP3    H1 2408   5.367   4.775   5.694
  817TIP3    H2 2409   5.472   4.756   5.587
  818TIP3   OH2 2410   2.263   4.129   0.491
  818TIP3    H1 2411   2.262   4.207   0.436
  818TIP3    H2 2412   2.224   4.157   0.574
  819TIP3   OH2 2413   2.528   6.436   4.382
  819TIP3    H1 2414   2.534   6.498   4.309
  819TIP3    H2 2415   2.435   6.418   4.391
  820TIP3   OH2 2416   7.019   5.391   0.660
  820TIP3    H1 2417   6.956   5.324   0.634
  820TIP3    H2 2418   7.034   5.375   0.753
  821TIP3   OH2 2419   5.048   4.801   4.847
  821TIP3    H1 2420   5.021   4.764   4.763
  821TIP3    H2 2421   5.034   4.895   4.836
  822TIP3   OH2 2422   5.306   1.896   1.239
  822TIP3    H1 2423   5.290   1.904   1.145
  822TIP3    H2 2424   5.289   1.984   1.273
  823TIP3   OH2 2425   1.280   3.637   2.380
  823TIP3    H1 2426   1.312   3.549   2.402
  823TIP3    H2 2427   1.320   3.693   2.447
  824TIP3   OH2 2428   0.645   3.484   1.915
  824TIP3    H1 2429   0.698   3.546   1.865
  824TIP3    H2 2430   0.631   3.411   1.854
  825TIP3   OH2 2431   6.705   2.205   5.491
  825TIP3    H1 2432   6.793   2.236   5.471
  825TIP3    H2 2433   6.658   2.211   5.408
  826TIP3   OH2 2434   8.309   6.398   1.267
  826TIP3    H1 2435   8.224   6.431   1.296
  826TIP3    H2 2436   8.322   6.438   1.181
  827TIP3   OH2 2437   3.355   0.666   1.958
  827TIP3    H1 2438   3.363   0.578   1.922
  827TIP3    H2 2439   3.320   0.719   1.886
  828TIP3   OH2 2440   3.932   4.133   3.754
  828TIP3    H1 2441   3.857   4.183   3.722
  828TIP3    H2 2442   3.896   4.071   3.817
  829TIP3   OH2 2443   3.240   0.188   4.812
  829TIP3    H1 2444   3.286   0.199   4.895
  829TIP3    H2 2445   3.175   0.258   4.811
  830TIP3   OH2 2446   3.565   1.886   3.177
  830TIP3    H1 2447   3.616   1.951   3.129
  830TIP3    H2 2448   3.627   1.815   3.195
  831TIP3   OH2 2449   7.060   7.617   2.862
  831TIP3    H1 2450   7.008   7.689   2.827
  831TIP3    H2 2451   7.149   7.634   2.830
  832TIP3   OH2 2452   8.129   3.464   2.696
  832TIP3    H1 2453   8.204   3.497   2.646
  832TIP3    H2 2454   8.157   3.377   2.725
  833TIP3   OH2 2455   2.968   7.495   6.358
  833TIP3    H1 2456   2.963   7.491   6.263
  833TIP3    H2 2457   2.940   7.584   6.381
  834TIP3   OH2 2458   5.822   3.924   3.690
  834TIP3    H1 2459   5.903   3.949   3.645
  834TIP3    H2 2460   5.758   3.914   3.619
  835TIP3   OH2 2461   7.651   2.883   6.518
  835TIP3    H1 2462   7.638   2.937   6.596
  835TIP3    H2 2463   7.613   2.934   6.446
  836TIP3   OH2 2464   5.391   7.585   2.983
  836TIP3    H1 2465   5.462   7.531   3.018
  836TIP3    H2 2466   5.403   7.582   2.888
  837TIP3   OH2 2467   3.478   4.406   6.644
  837TIP3    H1 2468   3.489   4.315   6.672
  837TIP3    H2 2469   3.528   4.457   6.707
  838TIP3   OH2 2470   8.255   5.529   2.680
  838TIP3    H1 2471   8.327   5.470   2.657
  838TIP3    H2 2472   8.209   5.484   2.751
  839TIP3   OH2 2473   5.320   4.978   5.300
  839TIP3    H1 2474   5.392   4.995   5.240
  839TIP3    H2 2475   5.243   4.969   5.243
  840TIP3   OH2 2476   4.727   1.524   4.023
  840TIP3    H1 2477   4.775   1.561   3.950
  840TIP3    H2 2478   4.636   1.548   4.007
  841TIP3   OH2 2479   5.061   1.594   2.730
  841TIP3    H1 2480   5.000   1.635   2.791
  841TIP3    H2 2481   5.025   1.614   2.643
  842TIP3   OH2 2482   2.632   5.529   1.904
  842TIP3    H1 2483   2.600   5.558   1.819
  842TIP3    H2 2484   2.597   5.440   1.914
  843TIP3   OH2 2485   2.379   4.405   5.701
  843TIP3    H1 2486   2.455   4.462   5.702
  843TIP3    H2 2487   2.379   4.362   5.787
  844TIP3   OH2 2488   7.018   2.369   3.558
  844TIP3    H1 2489   6.978   2.309   3.621
  844TIP3    H2 2490   6.946   2.392   3.499
  845TIP3   OH2 2491   2.695   6.223   6.235
  845TIP3    H1 2492   2.649   6.207   6.317
  845TIP3    H2 2493   2.761   6.154   6.231
  846TIP3   OH2 2494   0.316   4.672   5.920
  846TIP3    H1 2495   0.398   4.653   5.875
  846TIP3    H2 2496   0.329   4.640   6.009
  847TIP3   OH2 2497   1.536   6.017   4.412
  847TIP3    H1 2498   1.499   5.929   4.414
  847TIP3    H2 2499   1.541   6.039   4.319
  848TIP3   OH2 2500   1.942   6.467   6.208
  848TIP3    H1 2501   1.976   6.408   6.141
  848TIP3    H2 2502   1.961   6.555   6.174
  849TIP3   OH2 2503   4.764   1.109   1.868
  849TIP3    H1 2504   4.834   1.171   1.852
  849TIP3    H2 2505   4.790   1.030   1.820
  850TIP3   OH2 2506   6.224   4.051   1.314
  850TIP3    H1 2507   6.269   3.968   1.332
  850TIP3    H2 2508   6.187   4.077   1.398
  851TIP3   OH2 2509   4.466   2.295   3.773
  851TIP3    H1 2510   4.416   2.367   3.811
  851TIP3    H2 2511   4.496   2.245   3.848
  852TIP3   OH2 2512   1.027   4.592   6.621
  852TIP3    H1 2513   1.043   4.524   6.556
  852TIP3    H2 2514   1.056   4.553   6.704
  853TIP3   OH2 2515   0.492   3.277   3.116
  853TIP3    H1 2516   0.527   3.278   3.027
  853TIP3    H2 2517   0.432   3.352   3.120
  854TIP3   OH2 2518   0.273   7.754   1.563
  854TIP3    H1 2519   0.187   7.797   1.572
  854TIP3    H2 2520   0.304   7.781   1.477
  855TIP3   OH2 2521   7.560   3.707   2.689
  855TIP3    H1 2522   7.569   3.732   2.597
  855TIP3    H2 2523   7.636   3.748   2.732
  856TIP3   OH2 2524   2.479   6.584   4.091
  856TIP3    H1 2525   2.554   6.633   4.125
  856TIP3    H2 2526   2.508   6.552   4.006
  857TIP3   OH2 2527   7.767   0.095   5.749
  857TIP3    H1 2528   7.780   0.095   5.654
  857TIP3    H2 2529   7.789   0.007   5.777
  858TIP3   OH2 2530   6.195   0.717   3.675
  858TIP3    H1 2531   6.182   0.781   3.605
  858TIP3    H2 2532   6.259   0.655   3.639
  859TIP3   OH2 2533   4.291   7.232   6.193
  859TIP3    H1 2534   4.318   7.250   6.102
  859TIP3    H2 2535   4.358   7.172   6.226
  860TIP3   OH2 2536   3.670   5.221   5.999
  860TIP3    H1 2537   3.578   5.219   5.975
  860TIP3    H2 2538   3.678   5.158   6.071
  861TIP3   OH2 2539   6.441   1.530   0.586
  861TIP3    H1 2540   6.401   1.520   0.499
  861TIP3    H2 2541   6.409   1.614   0.618
  862TIP3   OH2 2542   2.309   1.509   5.224
  862TIP3    H1 2543   2.372   1.439   5.205
  862TIP3    H2 2544   2.226   1.463   5.238
  863TIP3   OH2 2545   6.511   5.374   1.840
  863TIP3    H1 2546   6.486   5.293   1.795
  863TIP3    H2 2547   6.429   5.407   1.877
  864TIP3   OH2 2548   8.199   5.167   0.248
  864TIP3    H1 2549   8.280   5.212   0.272
  864TIP3    H2 2550   8.140   5.183   0.321
  865TIP3   OH2 2551   1.304   2.694   0.164
  865TIP3    H1 2552   1.242   2.727   0.230
  865TIP3    H2 2553   1.335   2.611   0.200
  866TIP3   OH2 2554   6.245   5.077   4.178
  866TIP3    H1 2555   6.338   5.062   4.162
  866TIP3    H2 2556   6.222   5.149   4.119
  867TIP3   OH2 2557   6.933   0.392   2.892
  867TIP3    H1 2558   7.007   0.337   2.866
  867TIP3    H2 2559   6.933   0.388   2.988
  868TIP3   OH2 2560   3.360   5.403   1.126
  868TIP3    H1 2561   3.320   5.420   1.041
  868TIP3    H2 2562   3.391   5.489   1.155
  869TIP3   OH2 2563   5.651   7.610   1.213
  869TIP3    H1 2564   5.708   7.543   1.250
  869TIP3    H2 2565   5.695   7.638   1.133
  870TIP3   OH2 2566   3.949   1.621   2.566
  870TIP3    H1 2567   3.931   1.647   2.476
  870TIP3    H2 2568   3.879   1.560   2.588
  871TIP3   OH2 2569   0.254   5.297   3.894
  871TIP3    H1 2570   0.221   5.384   3.918
  871TIP3    H2 2571   0.328   5.282   3.953
  872TIP3   OH2 2572   0.160   6.338   3.584
  872TIP3    H1 2573   0.150   6.398   3.657
  872TIP3    H2 2574   0.234   6.282   3.608
  873TIP3   OH2 2575   7.543   1.255   0.120
  873TIP3    H1 2576   7.459   1.274   0.163
  873TIP3    H2 2577   7.560   1.331   0.066
  874TIP3   OH2 2578   2.481   6.861   3.873
  874TIP3    H1 2579   2.507   6.822   3.790
  874TIP3    H2 2580   2.385   6.864   3.871
  875TIP3   OH2 2581   6.985   3.983   3.181
  875TIP3    H1 2582   7.032   4.037   3.246
  875TIP3    H2 2583   7.055   3.934   3.136
  876TIP3   OH2 2584   2.743   3.231   2.837
  876TIP3    H1 2585   2.804   3.303   2.854
  876TIP3    H2 2586   2.685   3.264   2.769
  877TIP3   OH2 2587   6.153   6.699   0.515
  877TIP3    H1 2588   6.169   6.604   0.518
  877TIP3    H2 2589   6.076   6.709   0.460
  878TIP3   OH2 2590   2.808   3.967   3.426
  878TIP3    H1 2591   2.811   3.871   3.416
  878TIP3    H2 2592   2.740   3.982   3.492
  879TIP3   OH2 2593   1.397   6.555   6.069
  879TIP3    H1 2594   1.377   6.639   6.111
  879TIP3    H2 2595   1.455   6.579   5.996
  880TIP3   OH2 2596   1.858   4.946   1.103
  880TIP3    H1 2597   1.826   5.035   1.117
  880TIP3    H2 2598   1.912   4.952   1.024
  881TIP3   OH2 2599   3.125   4.409   2.126
  881TIP3    H1 2600   3.153   4.324   2.092
  881TIP3    H2 2601   3.048   4.389   2.179
  882TIP3   OH2 2602   5.752   3.043   1.500
  882TIP3    H1 2603   5.716   3.125   1.466
  882TIP3    H2 2604   5.806   3.070   1.574
  883TIP3   OH2 2605   2.349   4.471   3.061
  883TIP3    H1 2606   2.284   4.450   3.128
  883TIP3    H2 2607   2.323   4.419   2.985
  884TIP3   OH2 2608   2.980   5.368   6.045
  884TIP3    H1 2609   2.888   5.387   6.063
  884TIP3    H2 2610   2.978   5.310   5.969
  885TIP3   OH2 2611   6.829   3.761   6.677
  885TIP3    H1 2612   6.881   3.799   6.606
  885TIP3    H2 2613   6.777   3.693   6.636
  886TIP3   OH2 2614   5.469   2.966   4.633
  886TIP3    H1 2615   5.470   3.054   4.672
  886TIP3    H2 2616   5.403   2.971   4.564
  887TIP3   OH2 2617   0.488   0.278   4.668
  887TIP3    H1 2618   0.447   0.205   4.622
  887TIP3    H2 2619   0.435   0.291   4.746
  888TIP3   OH2 2620   7.860   2.521   2.284
  888TIP3    H1 2621   7.915   2.482   2.216
  888TIP3    H2 2622   7.922   2.569   2.340
  889TIP3   OH2 2623   5.890   4.585   2.485
  889TIP3    H1 2624   5.889   4.509   2.427
  889TIP3    H2 2625   5.814   4.637   2.457
  890TIP3   OH2 2626   4.749   4.320   4.261
  890TIP3    H1 2627   4.756   4.402   4.213
  890TIP3    H2 2628   4.709   4.344   4.344
  891TIP3   OH2 2629   7.807   0.237   5.230
  891TIP3    H1 2630   7.809   0.149   5.267
  891TIP3    H2 2631   7.795   0.223   5.136
  892TIP3   OH2 2632   3.939   0.057   0.629
  892TIP3    H1 2633   3.906   0.134   0.582
  892TIP3    H2 2634   3.892   0.057   0.712
  893TIP3   OH2 2635   5.383   6.166   1.713
  893TIP3    H1 2636   5.439   6.243   1.723
  893TIP3    H2 2637   5.295   6.198   1.734
  894TIP3   OH2 2638   6.325   5.655   5.497
  894TIP3    H1 2639   6.341   5.603   5.419
  894TIP3    H2 2640   6.231   5.672   5.496
  895TIP3   OH2 2641   6.400   4.269   3.892
  895TIP3    H1 2642   6.358   4.355   3.887
  895TIP3    H2 2643   6.362   4.220   3.818
  896TIP3   OH2 2644   3.441   1.134   3.743
  896TIP3    H1 2645   3.410   1.223   3.757
  896TIP3    H2 2646   3.407   1.084   3.817
  897TIP3   OH2 2647   5.545   2.417   4.368
  897TIP3    H1 2648   5.602   2.474   4.315
  897TIP3    H2 2649   5.578   2.329   4.350
  898TIP3   OH2 2650   2.965   1.193   0.438
  898TIP3    H1 2651   2.963   1.272   0.492
  898TIP3    H2 2652   2.878   1.154   0.449
  899TIP3   OH2 2653   3.289   2.232   4.118
  899TIP3    H1 2654   3.315   2.251   4.208
  899TIP3    H2 2655   3.210   2.285   4.105
  900TIP3   OH2 2656   0.446   0.739   3.316
  900TIP3    H1 2657   0.469   0.673   3.251
  900TIP3    H2 2658   0.448   0.822   3.268
  901TIP3   OH2 2659   6.962   7.545   1.311
  901TIP3    H1 2660   7.026   7.475   1.297
  901TIP3    H2 2661   6.981   7.609   1.242
  902TIP3   OH2 2662   4.769   6.563   0.627
  902TIP3    H1 2663   4.784   6.481   0.580
  902TIP3    H2 2664   4.837   6.565   0.695
  903TIP3   OH2 2665   6.212   7.560   6.550
  903TIP3    H1 2666   6.203   7.466   6.563
  903TIP3    H2 2667   6.126   7.589   6.520
  904TIP3   OH2 2668   1.886   1.205   5.349
  904TIP3    H1 2669   1.936   1.123   5.341
  904TIP3    H2 2670   1.807   1.190   5.296
  905TIP3   OH2 2671   1.390   6.839   5.421
  905TIP3    H1 2672   1.443   6.887   5.483
  905TIP3    H2 2673   1.442   6.762   5.399
  906TIP3   OH2 2674   6.714   0.402   4.444
  906TIP3    H1 2675   6.757   0.391   4.359
  906TIP3    H2 2676   6.629   0.360   4.434
  907TIP3   OH2 2677   2.364   2.068   3.057
  907TIP3    H1 2678   2.270   2.082   3.067
  907TIP3    H2 2679   2.381   1.986   3.105
  908TIP3   OH2 2680   6.839   4.602   1.753
  908TIP3    H1 2681   6.794   4.535   1.806
  908TIP3    H2 2682   6.814   4.685   1.794
  909TIP3   OH2 2683   7.039   5.439   4.659
  909TIP3    H1 2684   7.073   5.528   4.666
  909TIP3    H2 2685   7.112   5.383   4.686
  910TIP3   OH2 2686   1.959   3.861  -0.007
  910TIP3    H1 2687   2.044   3.904  -0.017
  910TIP3    H2 2688   1.939   3.871   0.086
  911TIP3   OH2 2689   1.843   3.528   5.939
  911TIP3    H1 2690   1.813   3.524   6.030
  911TIP3    H2 2691   1.767   3.502   5.888
  912TIP3   OH2 2692   6.144   2.950   2.549
  912TIP3    H1 2693   6.233   2.985   2.547
  912TIP3    H2 2694   6.092   3.020   2.590
  913TIP3   OH2 2695   3.345   7.069   5.094
  913TIP3    H1 2696   3.295   7.004   5.045
  913TIP3    H2 2697   3.359   7.141   5.032
  914TIP3   OH2 2698   2.027   5.833   1.451
  914TIP3    H1 2699   2.093   5.806   1.387
  914TIP3    H2 2700   2.011   5.754   1.503
  915TIP3   OH2 2701   3.850   0.115   5.222
  915TIP3    H1 2702   3.865   0.143   5.313
  915TIP3    H2 2703   3.884   0.187   5.169
  916TIP3   OH2 2704   5.041   2.787   3.349
  916TIP3    H1 2705   5.071   2.866   3.394
  916TIP3    H2 2706   5.119   2.751   3.309
  917TIP3   OH2 2707   4.556   2.624   1.064
  917TIP3    H1 2708   4.576   2.543   1.018
  917TIP3    H2 2709   4.476   2.656   1.022
  918TIP3   OH2 2710   4.634   4.587   1.351
  918TIP3    H1 2711   4.674   4.636   1.423
  918TIP3    H2 2712   4.599   4.655   1.292
  919TIP3   OH2 2713   5.839   6.583   5.874
  919TIP3    H1 2714   5.800   6.508   5.828
  919TIP3    H2 2715   5.862   6.645   5.805
  920TIP3   OH2 2716   3.630   3.683   4.946
  920TIP3    H1 2717   3.584   3.659   5.026
  920TIP3    H2 2718   3.722   3.669   4.965
  921TIP3   OH2 2719   6.707   4.399   5.025
  921TIP3    H1 2720   6.635   4.426   4.968
  921TIP3    H2 2721   6.695   4.305   5.036
  922TIP3   OH2 2722   2.521   7.438   2.742
  922TIP3    H1 2723   2.465   7.455   2.818
  922TIP3    H2 2724   2.472   7.474   2.668
  923TIP3   OH2 2725   4.763   3.482   1.106
  923TIP3    H1 2726   4.671   3.496   1.126
  923TIP3    H2 2727   4.797   3.570   1.088
  924TIP3   OH2 2728   4.779   7.223   0.059
  924TIP3    H1 2729   4.694   7.182   0.074
  924TIP3    H2 2730   4.835   7.189   0.129
  925TIP3   OH2 2731   7.782   7.430   2.187
  925TIP3    H1 2732   7.752   7.501   2.244
  925TIP3    H2 2733   7.726   7.356   2.209
  926TIP3   OH2 2734   7.178   1.432   5.729
  926TIP3    H1 2735   7.228   1.461   5.652
  926TIP3    H2 2736   7.245   1.406   5.792
  927TIP3   OH2 2737   5.916   1.853   6.664
  927TIP3    H1 2738   6.000   1.811   6.681
  927TIP3    H2 2739   5.874   1.860   6.749
  928TIP3   OH2 2740   4.434   1.399   4.860
  928TIP3    H1 2741   4.456   1.361   4.945
  928TIP3    H2 2742   4.459   1.491   4.866
  929TIP3   OH2 2743   2.437   4.908   3.735
  929TIP3    H1 2744   2.371   4.974   3.753
  929TIP3    H2 2745   2.395   4.847   3.674
  930TIP3   OH2 2746   6.203   6.301   4.257
  930TIP3    H1 2747   6.114   6.267   4.253
  930TIP3    H2 2748   6.204   6.375   4.197
  931TIP3   OH2 2749   7.562   6.294   5.626
  931TIP3    H1 2750   7.600   6.214   5.661
  931TIP3    H2 2751   7.611   6.311   5.545
  932TIP3   OH2 2752   1.274   6.241   6.598
  932TIP3    H1 2753   1.286   6.146   6.597
  932TIP3    H2 2754   1.239   6.261   6.511
  933TIP3   OH2 2755   3.903   5.596   1.339
  933TIP3    H1 2756   3.901   5.529   1.271
  933TIP3    H2 2757   3.997   5.613   1.353
  934TIP3   OH2 2758   1.297   5.025   0.584
  934TIP3    H1 2759   1.270   4.935   0.602
  934TIP3    H2 2760   1.242   5.079   0.641
  935TIP3   OH2 2761   1.516   2.487   1.342
  935TIP3    H1 2762   1.532   2.570   1.298
  935TIP3    H2 2763   1.604   2.451   1.358
  936TIP3   OH2 2764   2.884   0.755   3.882
  936TIP3    H1 2765   2.976   0.778   3.871
  936TIP3    H2 2766   2.881   0.711   3.968
  937TIP3   OH2 2767   5.302   1.085   4.745
  937TIP3    H1 2768   5.244   1.136   4.689
  937TIP3    H2 2769   5.311   1.137   4.825
  938TIP3   OH2 2770   4.436   3.239   6.446
  938TIP3    H1 2771   4.426   3.326   6.407
  938TIP3    H2 2772   4.492   3.192   6.384
  939TIP3   OH2 2773   4.360   6.475   2.338
  939TIP3    H1 2774   4.392   6.559   2.307
  939TIP3    H2 2775   4.394   6.411   2.276
  940TIP3   OH2 2776   8.064   7.838   2.559
  940TIP3    H1 2777   8.150   7.880   2.562
  940TIP3    H2 2778   8.069   7.767   2.624
  941TIP3   OH2 2779   3.513   5.109   1.589
  941TIP3    H1 2780   3.473   5.169   1.652
  941TIP3    H2 2781   3.450   5.105   1.517
  942TIP3   OH2 2782   0.976   4.265   1.593
  942TIP3    H1 2783   1.054   4.313   1.566
  942TIP3    H2 2784   0.905   4.305   1.543
  943TIP3   OH2 2785   8.025   1.387   2.371
  943TIP3    H1 2786   7.952   1.387   2.309
  943TIP3    H2 2787   8.009   1.462   2.428
  944TIP3   OH2 2788   4.702   6.198   2.182
  944TIP3    H1 2789   4.674   6.107   2.196
  944TIP3    H2 2790   4.620   6.247   2.175
  945TIP3   OH2 2791   5.393   2.024   5.589
  945TIP3    H1 2792   5.469   2.001   5.642
  945TIP3    H2 2793   5.429   2.065   5.511
  946TIP3   OH2 2794   4.378   7.379   6.441
  946TIP3    H1 2795   4.397   7.287   6.456
  946TIP3    H2 2796   4.454   7.412   6.393
  947TIP3   OH2 2797   4.556   7.560   6.655
  947TIP3    H1 2798   4.561   7.566   6.560
  947TIP3    H2 2799   4.611   7.632   6.687
  948TIP3   OH2 2800   8.249   2.701   4.642
  948TIP3    H1 2801   8.186   2.701   4.570
  948TIP3    H2 2802   8.302   2.622   4.627
  949TIP3   OH2 2803   4.756   5.625   1.261
  949TIP3    H1 2804   4.693   5.559   1.290
  949TIP3    H2 2805   4.814   5.637   1.336
  950TIP3   OH2 2806   0.461   4.228   5.865
  950TIP3    H1 2807   0.542   4.191   5.901
  950TIP3    H2 2808   0.472   4.322   5.874
  951TIP3   OH2 2809   0.847   4.171   1.062
  951TIP3    H1 2810   0.923   4.217   1.097
  951TIP3    H2 2811   0.867   4.158   0.969
  952TIP3   OH2 2812   1.013   1.026   6.240
  952TIP3    H1 2813   1.041   1.114   6.217
  952TIP3    H2 2814   1.050   0.970   6.172
  953TIP3   OH2 2815   8.170   5.352   0.045
  953TIP3    H1 2816   8.209   5.330  -0.040
  953TIP3    H2 2817   8.191   5.279   0.102
  954TIP3   OH2 2818   2.459   4.157   6.746
  954TIP3    H1 2819   2.378   4.181   6.701
  954TIP3    H2 2820   2.506   4.239   6.756
  955TIP3   OH2 2821   5.967   1.639   4.028
  955TIP3    H1 2822   5.925   1.553   4.034
  955TIP3    H2 2823   6.049   1.623   3.982
  956TIP3   OH2 2824   7.461   0.270   0.060
  956TIP3    H1 2825   7.535   0.330   0.053
  956TIP3    H2 2826   7.457   0.227  -0.025
  957TIP3   OH2 2827   6.289   4.033   0.786
  957TIP3    H1 2828   6.278   4.121   0.749
  957TIP3    H2 2829   6.290   4.047   0.880
  958TIP3   OH2 2830   3.122   1.479   0.174
  958TIP3    H1 2831   3.156   1.395   0.205
  958TIP3    H2 2832   3.183   1.544   0.209
  959TIP3   OH2 2833   3.453   7.086   6.221
  959TIP3    H1 2834   3.438   7.114   6.131
  959TIP3    H2 2835   3.548   7.097   6.233
  960TIP3   OH2 2836   6.027   5.156   6.517
  960TIP3    H1 2837   6.084   5.079   6.524
  960TIP3    H2 2838   5.939   5.120   6.528
  961TIP3   OH2 2839   7.480   2.164   1.075
  961TIP3    H1 2840   7.411   2.139   1.137
  961TIP3    H2 2841   7.554   2.188   1.130
  962TIP3   OH2 2842   3.919   2.718   6.088
  962TIP3    H1 2843   3.840   2.770   6.102
  962TIP3    H2 2844   3.888   2.627   6.088
  963TIP3   OH2 2845   1.561   4.335   2.402
  963TIP3    H1 2846   1.539   4.425   2.377
  963TIP3    H2 2847   1.582   4.291   2.320
  964TIP3   OH2 2848   3.618   4.222   0.729
  964TIP3    H1 2849   3.577   4.215   0.643
  964TIP3    H2 2850   3.711   4.239   0.711
  965TIP3   OH2 2851   3.398   4.178   6.459
  965TIP3    H1 2852   3.377   4.269   6.481
  965TIP3    H2 2853   3.361   4.165   6.372
  966TIP3   OH2 2854   4.114   2.157   3.306
  966TIP3    H1 2855   4.152   2.237   3.342
  966TIP3    H2 2856   4.055   2.126   3.375
  967TIP3   OH2 2857   7.384   6.205   5.828
  967TIP3    H1 2858   7.397   6.276   5.765
  967TIP3    H2 2859   7.351   6.132   5.776
  968TIP3   OH2 2860   3.585   7.290   0.912
  968TIP3    H1 2861   3.528   7.219   0.942
  968TIP3    H2 2862   3.656   7.292   0.975
  969TIP3   OH2 2863   3.294   5.441   5.727
  969TIP3    H1 2864   3.251   5.521   5.758
  969TIP3    H2 2865   3.261   5.429   5.638
  970TIP3   OH2 2866   5.682   6.217   4.639
  970TIP3    H1 2867   5.622   6.289   4.618
  970TIP3    H2 2868   5.708   6.183   4.554
  971TIP3   OH2 2869   0.571   7.037   0.619
  971TIP3    H1 2870   0.635   7.104   0.596
  971TIP3    H2 2871   0.618   6.978   0.678
  972TIP3   OH2 2872   3.697   6.940   0.439
  972TIP3    H1 2873   3.661   6.852   0.430
  972TIP3    H2 2874   3.769   6.931   0.502
  973TIP3   OH2 2875   1.013   5.643   0.165
  973TIP3    H1 2876   1.038   5.557   0.131
  973TIP3    H2 2877   0.967   5.623   0.247
  974TIP3   OH2 2878   6.883   4.471   1.283
  974TIP3    H1 2879   6.932   4.446   1.204
  974TIP3    H2 2880   6.817   4.403   1.293
  975TIP3   OH2 2881   2.244   5.576   6.611
  975TIP3    H1 2882   2.242   5.636   6.536
  975TIP3    H2 2883   2.322   5.523   6.597
  976TIP3   OH2 2884   5.086   6.238   6.202
  976TIP3    H1 2885   5.105   6.265   6.292
  976TIP3    H2 2886   5.114   6.312   6.148
  977TIP3   OH2 2887   2.385   6.847   2.600
  977TIP3    H1 2888   2.335   6.781   2.648
  977TIP3    H2 2889   2.351   6.931   2.632
  978TIP3   OH2 2890   5.788   0.614   4.467
  978TIP3    H1 2891   5.737   0.543   4.429
  978TIP3    H2 2892   5.733   0.648   4.538
  979TIP3   OH2 2893   5.623   1.709   4.759
  979TIP3    H1 2894   5.685   1.688   4.828
  979TIP3    H2 2895   5.614   1.628   4.709
  980TIP3   OH2 2896   4.331   7.652   3.860
  980TIP3    H1 2897   4.243   7.614   3.852
  980TIP3    H2 2898   4.338   7.713   3.786
  981TIP3   OH2 2899   7.001   2.868   4.913
  981TIP3    H1 2900   7.064   2.885   4.843
  981TIP3    H2 2901   7.039   2.796   4.964
  982TIP3   OH2 2902   3.540   0.222   1.269
  982TIP3    H1 2903   3.505   0.267   1.192
  982TIP3    H2 2904   3.621   0.180   1.238
  983TIP3   OH2 2905   1.434   2.169   1.300
  983TIP3    H1 2906   1.430   2.263   1.284
  983TIP3    H2 2907   1.525   2.153   1.326
  984TIP3   OH2 2908   4.118   5.979   5.242
  984TIP3    H1 2909   4.132   5.894   5.200
  984TIP3    H2 2910   4.203   6.023   5.236
  985TIP3   OH2 2911   2.357   2.048   6.685
  985TIP3    H1 2912   2.297   2.122   6.696
  985TIP3    H2 2913   2.431   2.085   6.637
  986TIP3   OH2 2914   0.331  -0.034   0.124
  986TIP3    H1 2915   0.421  -0.008   0.147
  986TIP3    H2 2916   0.281   0.047   0.130
  987TIP3   OH2 2917   7.325   4.029   6.533
  987TIP3    H1 2918   7.345   4.122   6.540
  987TIP3    H2 2919   7.337   3.995   6.621
  988TIP3   OH2 2920   0.542   7.188   6.634
  988TIP3    H1 2921   0.497   7.251   6.690
  988TIP3    H2 2922   0.599   7.140   6.694
  989TIP3   OH2 2923   1.822   2.823   1.344
  989TIP3    H1 2924   1.858   2.903   1.384
  989TIP3    H2 2925   1.888   2.798   1.279
  990TIP3   OH2 2926   0.663   4.217   3.830
  990TIP3    H1 2927   0.694   4.135   3.791
  990TIP3    H2 2928   0.696   4.214   3.920
  991TIP3   OH2 2929   0.376   1.661   1.656
  991TIP3    H1 2930   0.361   1.746   1.614
  991TIP3    H2 2931   0.453   1.675   1.712
  992TIP3   OH2 2932   0.956   6.664   1.263
  992TIP3    H1 2933   1.039   6.710   1.273
  992TIP3    H2 2934   0.981   6.572   1.255
  993TIP3   OH2 2935   2.738   2.134   4.892
  993TIP3    H1 2936   2.770   2.187   4.819
  993TIP3    H2 2937   2.796   2.156   4.965
  994TIP3   OH2 2938   3.011   1.545   5.522
  994TIP3    H1 2939   2.968   1.570   5.605
  994TIP3    H2 2940   2.940   1.512   5.468
  995TIP3   OH2 2941   6.112   4.038   1.586
  995TIP3    H1 2942   6.045   3.972   1.606
  995TIP3    H2 2943   6.070   4.122   1.605
  996TIP3   OH2 2944   5.862   4.093   4.432
  996TIP3    H1 2945   5.930   4.154   4.462
  996TIP3    H2 2946   5.811   4.074   4.510
  997TIP3   OH2 2947   1.609   7.497   3.166
  997TIP3    H1 2948   1.583   7.437   3.096
  997TIP3    H2 2949   1.587   7.584   3.134
  998TIP3   OH2 2950   6.757   7.493   3.773
  998TIP3    H1 2951   6.782   7.537   3.692
  998TIP3    H2 2952   6.697   7.424   3.745
  999TIP3   OH2 2953   4.867   2.404   2.926
  999TIP3    H1 2954   4.886   2.468   2.996
  999TIP3    H2 2955   4.862   2.457   2.846
 1000TIP3   OH2 2956   0.784   6.133   1.511
 1000TIP3    H1 2957   0.729   6.080   1.568
 1000TIP3    H2 2958   0.756   6.223   1.529
 1001TIP3   OH2 2959   4.949   7.481   1.409
 1001TIP3    H1 2960   4.990   7.470   1.496
 1001TIP3    H2 2961   4.883   7.549   1.423
 1002TIP3   OH2 2962   6.041   6.422   3.671
 1002TIP3    H1 2963   6.073   6.345   3.623
 1002TIP3    H2 2964   5.986   6.386   3.740
 1003TIP3   OH2 2965   5.013   7.821   6.186
 1003TIP3    H1 2966   5.030   7.878   6.261
 1003TIP3    H2 2967   4.974   7.742   6.224
 1004TIP3   OH2 2968   0.865   0.397   0.413
 1004TIP3    H1 2969   0.846   0.402   0.506
 1004TIP3    H2 2970   0.816   0.469   0.374
 1005TIP3   OH2 2971   2.366   7.500   0.967
 1005TIP3    H1 2972   2.403   7.460   0.889
 1005TIP3    H2 2973   2.285   7.542   0.937
 1006TIP3   OH2 2974   6.496   3.936   4.293
 1006TIP3    H1 2975   6.592   3.935   4.289
 1006TIP3    H2 2976   6.470   3.990   4.218
 1007TIP3   OH2 2977   2.227   0.114   3.640
 1007TIP3    H1 2978   2.176   0.137   3.562
 1007TIP3    H2 2979   2.238   0.019   3.634
 1008TIP3   OH2 2980   0.578   3.515   1.286
 1008TIP3    H1 2981   0.595   3.426   1.258
 1008TIP3    H2 2982   0.483   3.520   1.297
 1009TIP3   OH2 2983   7.678   1.505   1.602
 1009TIP3    H1 2984   7.660   1.412   1.617
 1009TIP3    H2 2985   7.592   1.547   1.608
 1010TIP3   OH2 2986   0.216   1.325   3.277
 1010TIP3    H1 2987   0.165   1.297   3.201
 1010TIP3    H2 2988   0.153   1.373   3.331
 1011TIP3   OH2 2989   7.597   1.908   2.884
 1011TIP3    H1 2990   7.657   1.889   2.956
 1011TIP3    H2 2991   7.541   1.831   2.879
 1012TIP3   OH2 2992   6.632   3.360   4.868
 1012TIP3    H1 2993   6.611   3.349   4.961
 1012TIP3    H2 2994   6.720   3.323   4.859
 1013TIP3   OH2 2995   4.422   5.461   1.668
 1013TIP3    H1 2996   4.445   5.400   1.598
 1013TIP3    H2 2997   4.447   5.547   1.634
 1014TIP3   OH2 2998   2.020   5.650   3.493
 1014TIP3    H1 2999   1.939   5.601   3.478
 1014TIP3    H2 3000   2.018   5.721   3.428
 1015TIP3   OH2 3001   6.824   7.682   6.220
 1015TIP3    H1 3002   6.919   7.692   6.223
 1015TIP3    H2 3003   6.806   7.656   6.129
 1016TIP3   OH2 3004   6.424   2.596   6.620
 1016TIP3    H1 3005   6.412   2.623   6.712
 1016TIP3    H2 3006   6.517   2.577   6.612
 1017TIP3   OH2 3007   3.760   5.176   1.474
 1017TIP3    H1 3008   3.672   5.160   1.508
 1017TIP3    H2 3009   3.746   5.230   1.396
 1018TIP3   OH2 3010   3.178   2.447   4.742
 1018TIP3    H1 3011   3.153   2.447   4.834
 1018TIP3    H2 3012   3.211   2.359   4.726
 1019TIP3   OH2 3013   8.292   1.088   3.680
 1019TIP3    H1 3014   8.321   1.102   3.590
 1019TIP3    H2 3015   8.306   1.173   3.723
 1020TIP3   OH2 3016   3.025   2.771   4.136
 1020TIP3    H1 3017   3.028   2.675   4.144
 1020TIP3    H2 3018   2.935   2.794   4.155
 1021TIP3   OH2 3019   3.365   5.172   1.351
 1021TIP3    H1 3020   3.409   5.256   1.339
 1021TIP3    H2 3021   3.357   5.136   1.263
 1022TIP3   OH2 3022   5.356   2.467   5.495
 1022TIP3    H1 3023   5.394   2.397   5.443
 1022TIP3    H2 3024   5.280   2.496   5.444
 1023TIP3   OH2 3025   3.017   3.015   2.685
 1023TIP3    H1 3026   3.089   3.011   2.622
 1023TIP3    H2 3027   2.938   3.001   2.632
 1024TIP3   OH2 3028   2.425   5.635   1.532
 1024TIP3    H1 3029   2.509   5.605   1.499
 1024TIP3    H2 3030   2.395   5.565   1.590
 1025TIP3   OH2 3031   5.622   0.136   3.898
 1025TIP3    H1 3032   5.589   0.145   3.987
 1025TIP3    H2 3033   5.675   0.056   3.900
 1026TIP3   OH2 3034   7.558   0.298   2.969
 1026TIP3    H1 3035   7.628   0.323   3.029
 1026TIP3    H2 3036   7.485   0.356   2.991
 1027TIP3   OH2 3037   2.951   6.341   5.260
 1027TIP3    H1 3038   3.020   6.277   5.274
 1027TIP3    H2 3039   2.997   6.425   5.249
 1028TIP3   OH2 3040   6.894   4.806   2.820
 1028TIP3    H1 3041   6.839   4.842   2.889
 1028TIP3    H2 3042   6.904   4.714   2.842
 1029TIP3   OH2 3043   4.802   4.402   1.587
 1029TIP3    H1 3044   4.857   4.326   1.604
 1029TIP3    H2 3045   4.790   4.402   1.492
 1030TIP3   OH2 3046   3.984   5.861   4.830
 1030TIP3    H1 3047   4.027   5.875   4.746
 1030TIP3    H2 3048   4.008   5.937   4.882
 1031TIP3   OH2 3049   0.293   4.283   6.394
 1031TIP3    H1 3050   0.308   4.239   6.310
 1031TIP3    H2 3051   0.219   4.237   6.432
 1032TIP3   OH2 3052   3.846   0.081   0.896
 1032TIP3    H1 3053   3.784   0.139   0.853
 1032TIP3    H2 3054   3.820   0.083   0.988
 1033TIP3   OH2 3055   3.670   3.457   0.207
 1033TIP3    H1 3056   3.586   3.433   0.167
 1033TIP3    H2 3057   3.732   3.395   0.170
 1034TIP3   OH2 3058   5.730   4.905   4.371
 1034TIP3    H1 3059   5.739   4.815   4.401
 1034TIP3    H2 3060   5.669   4.899   4.298
 1035TIP3   OH2 3061   4.069   2.832   5.213
 1035TIP3    H1 3062   4.080   2.750   5.260
 1035TIP3    H2 3063   3.994   2.817   5.155
 1036TIP3   OH2 3064   8.329   1.304   4.798
 1036TIP3    H1 3065   8.240   1.293   4.832
 1036TIP3    H2 3066   8.325   1.268   4.709
 1037TIP3   OH2 3067   7.775   7.049   2.797
 1037TIP3    H1 3068   7.720   7.024   2.872
 1037TIP3    H2 3069   7.721   7.031   2.720
 1038TIP3   OH2 3070   0.330   6.961   5.618
 1038TIP3    H1 3071   0.357   7.052   5.624
 1038TIP3    H2 3072   0.323   6.932   5.710
 1039TIP3   OH2 3073   4.232   0.014   3.578
 1039TIP3    H1 3074   4.284   0.062   3.514
 1039TIP3    H2 3075   4.297  -0.025   3.638
 1040TIP3   OH2 3076   1.871   7.570   3.050
 1040TIP3    H1 3077   1.783   7.601   3.069
 1040TIP3    H2 3078   1.865   7.532   2.962
 1041TIP3   OH2 3079   3.414   3.653   3.451
 1041TIP3    H1 3080   3.394   3.717   3.520
 1041TIP3    H2 3081   3.492   3.688   3.407
 1042TIP3   OH2 3082   4.106   5.642   6.446
 1042TIP3    H1 3083   4.103   5.733   6.418
 1042TIP3    H2 3084   4.021   5.606   6.421
 1043TIP3   OH2 3085   0.701   3.512   4.695
 1043TIP3    H1 3086   0.729   3.507   4.786
 1043TIP3    H2 3087   0.776   3.549   4.648
 1044TIP3   OH2 3088   2.081   6.289   1.924
 1044TIP3    H1 3089   2.066   6.202   1.961
 1044TIP3    H2 3090   2.156   6.278   1.865
 1045TIP3   OH2 3091   7.611   7.159   4.345
 1045TIP3    H1 3092   7.568   7.117   4.271
 1045TIP3    H2 3093   7.653   7.237   4.307
 1046TIP3   OH2 3094   1.545   5.020   4.108
 1046TIP3    H1 3095   1.533   4.935   4.066
 1046TIP3    H2 3096   1.571   4.998   4.198
 1047TIP3   OH2 3097   0.913   5.696   1.452
 1047TIP3    H1 3098   0.893   5.695   1.546
 1047TIP3    H2 3099   0.832   5.668   1.410
 1048TIP3   OH2 3100   2.749   6.876   3.542
 1048TIP3    H1 3101   2.689   6.931   3.492
 1048TIP3    H2 3102   2.725   6.892   3.633
 1049TIP3   OH2 3103   0.421   6.638   0.901
 1049TIP3    H1 3104   0.395   6.580   0.973
 1049TIP3    H2 3105   0.460   6.580   0.836
 1050TIP3   OH2 3106   1.135   3.279   6.269
 1050TIP3    H1 3107   1.055   3.317   6.307
 1050TIP3    H2 3108   1.162   3.212   6.331
 1051TIP3   OH2 3109   8.207   0.442   3.060
 1051TIP3    H1 3110   8.223   0.535   3.078
 1051TIP3    H2 3111   8.269   0.420   2.990
 1052TIP3   OH2 3112   2.566   6.978   1.910
 1052TIP3    H1 3113   2.631   7.003   1.975
 1052TIP3    H2 3114   2.482   6.994   1.952
 1053TIP3   OH2 3115   3.260   3.711   3.035
 1053TIP3    H1 3116   3.334   3.756   2.995
 1053TIP3    H2 3117   3.216   3.667   2.962
 1054TIP3   OH2 3118   3.776   5.277   4.819
 1054TIP3    H1 3119   3.727   5.304   4.896
 1054TIP3    H2 3120   3.839   5.213   4.851
 1055TIP3   OH2 3121   1.798   0.078   2.357
 1055TIP3    H1 3122   1.823   0.151   2.300
 1055TIP3    H2 3123   1.806   0.001   2.302
 1056TIP3   OH2 3124   2.185   6.773   2.239
 1056TIP3    H1 3125   2.113   6.756   2.300
 1056TIP3    H2 3126   2.142   6.797   2.157
 1057TIP3   OH2 3127   3.986   4.549   6.558
 1057TIP3    H1 3128   3.952   4.484   6.496
 1057TIP3    H2 3129   3.934   4.628   6.540
 1058TIP3   OH2 3130   4.064   6.289   5.327
 1058TIP3    H1 3131   4.041   6.196   5.321
 1058TIP3    H2 3132   3.984   6.335   5.301
 1059TIP3   OH2 3133   6.711   1.073   0.575
 1059TIP3    H1 3134   6.710   1.165   0.547
 1059TIP3    H2 3135   6.791   1.065   0.627
 1060TIP3   OH2 3136   5.722   7.326   1.049
 1060TIP3    H1 3137   5.702   7.339   0.956
 1060TIP3    H2 3138   5.663   7.255   1.076
 1061TIP3   OH2 3139   1.193   6.162   1.920
 1061TIP3    H1 3140   1.282   6.152   1.885
 1061TIP3    H2 3141   1.138   6.115   1.858
 1062TIP3   OH2 3142   0.767   2.087   0.175
 1062TIP3    H1 3143   0.815   2.058   0.098
 1062TIP3    H2 3144   0.691   2.133   0.140
 1063TIP3   OH2 3145   6.281   4.215   2.465
 1063TIP3    H1 3146   6.295   4.265   2.545
 1063TIP3    H2 3147   6.356   4.155   2.460
 1064TIP3   OH2 3148   8.166   2.294   6.384
 1064TIP3    H1 3149   8.178   2.301   6.289
 1064TIP3    H2 3150   8.161   2.385   6.414
 1065TIP3   OH2 3151   7.735   7.204   1.734
 1065TIP3    H1 3152   7.681   7.279   1.761
 1065TIP3    H2 3153   7.824   7.228   1.760
 1066TIP3   OH2 3154   0.969   0.057   6.458
 1066TIP3    H1 3155   0.878   0.072   6.484
 1066TIP3    H2 3156   1.020   0.075   6.537
 1067TIP3   OH2 3157   1.243   5.953   0.118
 1067TIP3    H1 3158   1.182   5.890   0.154
 1067TIP3    H2 3159   1.210   5.972   0.030
 1068TIP3   OH2 3160   3.996   3.772   1.012
 1068TIP3    H1 3161   3.961   3.697   1.060
 1068TIP3    H2 3162   4.079   3.791   1.055
 1069TIP3   OH2 3163   5.618   5.691   3.526
 1069TIP3    H1 3164   5.687   5.757   3.533
 1069TIP3    H2 3165   5.549   5.734   3.476
 1070TIP3   OH2 3166   7.929   0.231   2.509
 1070TIP3    H1 3167   7.901   0.220   2.418
 1070TIP3    H2 3168   7.945   0.141   2.540
 1071TIP3   OH2 3169   4.952   4.029   4.568
 1071TIP3    H1 3170   4.960   4.070   4.481
 1071TIP3    H2 3171   5.007   3.951   4.563
 1072TIP3   OH2 3172   4.870   7.811   0.007
 1072TIP3    H1 3173   4.867   7.737   0.068
 1072TIP3    H2 3174   4.961   7.840   0.009
 1073TIP3   OH2 3175   2.688   4.741   1.172
 1073TIP3    H1 3176   2.751   4.755   1.102
 1073TIP3    H2 3177   2.647   4.658   1.151
 1074TIP3   OH2 3178   3.992   2.548   4.871
 1074TIP3    H1 3179   4.037   2.596   4.801
 1074TIP3    H2 3180   4.061   2.499   4.915
 1075TIP3   OH2 3181   0.827   0.719   5.955
 1075TIP3    H1 3182   0.890   0.753   5.891
 1075TIP3    H2 3183   0.856   0.628   5.970
 1076TIP3   OH2 3184   3.306   0.182   0.362
 1076TIP3    H1 3185   3.224   0.186   0.410
 1076TIP3    H2 3186   3.369   0.230   0.416
 1077TIP3   OH2 3187   6.867   2.218   0.419
 1077TIP3    H1 3188   6.960   2.198   0.405
 1077TIP3    H2 3189   6.822   2.178   0.344
 1078TIP3   OH2 3190   4.705   0.703   4.939
 1078TIP3    H1 3191   4.772   0.729   4.875
 1078TIP3    H2 3192   4.748   0.714   5.024
 1079TIP3   OH2 3193   6.712   2.712   3.330
 1079TIP3    H1 3194   6.726   2.733   3.422
 1079TIP3    H2 3195   6.763   2.778   3.283
 1080TIP3   OH2 3196   3.830   1.974   2.540
 1080TIP3    H1 3197   3.766   1.921   2.493
 1080TIP3    H2 3198   3.779   2.022   2.605
 1081TIP3   OH2 3199   1.903   0.028   3.008
 1081TIP3    H1 3200   1.941   0.085   3.074
 1081TIP3    H2 3201   1.978  -0.018   2.969
 1082TIP3   OH2 3202   6.893   6.959   0.315
 1082TIP3    H1 3203   6.882   7.047   0.350
 1082TIP3    H2 3204   6.807   6.918   0.322
 1083TIP3   OH2 3205   7.282   5.244   2.621
 1083TIP3    H1 3206   7.310   5.335   2.635
 1083TIP3    H2 3207   7.213   5.251   2.555
 1084TIP3   OH2 3208   1.136   0.075   1.527
 1084TIP3    H1 3209   1.167   0.090   1.438
 1084TIP3    H2 3210   1.200   0.118   1.583
 1085TIP3   OH2 3211   1.332   2.031   3.896
 1085TIP3    H1 3212   1.317   1.940   3.871
 1085TIP3    H2 3213   1.344   2.078   3.813
 1086TIP3   OH2 3214   5.944   5.650   4.971
 1086TIP3    H1 3215   5.886   5.645   5.047
 1086TIP3    H2 3216   5.884   5.658   4.896
 1087TIP3   OH2 3217   0.312   6.304   4.198
 1087TIP3    H1 3218   0.363   6.227   4.224
 1087TIP3    H2 3219   0.240   6.268   4.146
 1088TIP3   OH2 3220   3.656   3.044   3.234
 1088TIP3    H1 3221   3.567   3.016   3.214
 1088TIP3    H2 3222   3.697   3.057   3.148
 1089TIP3   OH2 3223   2.712   1.938   0.662
 1089TIP3    H1 3224   2.650   1.921   0.733
 1089TIP3    H2 3225   2.797   1.919   0.700
 1090TIP3   OH2 3226   7.465   5.551   3.760
 1090TIP3    H1 3227   7.477   5.643   3.783
 1090TIP3    H2 3228   7.374   5.544   3.732
 1091TIP3   OH2 3229   3.047   0.615   2.854
 1091TIP3    H1 3230   3.012   0.704   2.861
 1091TIP3    H2 3231   3.022   0.573   2.937
 1092TIP3   OH2 3232   6.456   2.202   3.668
 1092TIP3    H1 3233   6.409   2.154   3.736
 1092TIP3    H2 3234   6.445   2.149   3.589
 1093TIP3   OH2 3235   6.053   5.318   5.289
 1093TIP3    H1 3236   6.138   5.293   5.326
 1093TIP3    H2 3237   6.075   5.362   5.206
 1094TIP3   OH2 3238   5.232   6.940   3.728
 1094TIP3    H1 3239   5.311   6.909   3.771
 1094TIP3    H2 3240   5.165   6.939   3.798
 1095TIP3   OH2 3241   7.991   5.889   0.589
 1095TIP3    H1 3242   8.058   5.937   0.636
 1095TIP3    H2 3243   7.913   5.944   0.595
 1096TIP3   OH2 3244   3.273   5.935   2.450
 1096TIP3    H1 3245   3.232   5.983   2.378
 1096TIP3    H2 3246   3.206   5.934   2.519
 1097TIP3   OH2 3247   2.337   7.021   2.070
 1097TIP3    H1 3248   2.247   6.990   2.063
 1097TIP3    H2 3249   2.377   6.965   2.136
 1098TIP3   OH2 3250   7.737   1.863   3.301
 1098TIP3    H1 3251   7.832   1.863   3.292
 1098TIP3    H2 3252   7.720   1.831   3.389
 1099TIP3   OH2 3253   1.225   1.158   2.431
 1099TIP3    H1 3254   1.158   1.224   2.447
 1099TIP3    H2 3255   1.177   1.079   2.407
 1100TIP3   OH2 3256   3.893   2.547   0.267
 1100TIP3    H1 3257   3.947   2.624   0.255
 1100TIP3    H2 3258   3.858   2.528   0.179
 1101TIP3   OH2 3259   4.140   5.571   3.596
 1101TIP3    H1 3260   4.123   5.476   3.593
 1101TIP3    H2 3261   4.077   5.608   3.534
 1102TIP3   OH2 3262   2.044   1.548   5.041
 1102TIP3    H1 3263   2.136   1.527   5.026
 1102TIP3    H2 3264   2.044   1.641   5.062
 1103TIP3   OH2 3265   6.014   2.505   2.418
 1103TIP3    H1 3266   6.027   2.573   2.484
 1103TIP3    H2 3267   6.003   2.425   2.469
 1104TIP3   OH2 3268   4.200   5.211   3.031
 1104TIP3    H1 3269   4.177   5.153   2.958
 1104TIP3    H2 3270   4.117   5.249   3.059
 1105TIP3   OH2 3271   8.122   1.553   4.282
 1105TIP3    H1 3272   8.054   1.487   4.293
 1105TIP3    H2 3273   8.122   1.572   4.188
 1106TIP3   OH2 3274   7.848   4.475   5.530
 1106TIP3    H1 3275   7.763   4.450   5.493
 1106TIP3    H2 3276   7.911   4.458   5.459
 1107TIP3   OH2 3277   3.739   4.244   5.664
 1107TIP3    H1 3278   3.699   4.256   5.751
 1107TIP3    H2 3279   3.833   4.254   5.679
 1108TIP3   OH2 3280   4.960   5.491   0.200
 1108TIP3    H1 3281   4.894   5.425   0.181
 1108TIP3    H2 3282   4.927   5.537   0.277
 1109TIP3   OH2 3283   7.468   0.650   1.145
 1109TIP3    H1 3284   7.506   0.717   1.202
 1109TIP3    H2 3285   7.389   0.622   1.192
 1110TIP3   OH2 3286   2.270   5.530   5.484
 1110TIP3    H1 3287   2.300   5.505   5.572
 1110TIP3    H2 3288   2.181   5.497   5.479
 1111TIP3   OH2 3289   6.930   5.909   2.055
 1111TIP3    H1 3290   6.946   5.930   2.147
 1111TIP3    H2 3291   6.921   5.814   2.053
 1112TIP3   OH2 3292   1.553   0.075   6.552
 1112TIP3    H1 3293   1.620   0.126   6.507
 1112TIP3    H2 3294   1.516   0.019   6.484
 1113TIP3   OH2 3295   4.399   3.394   0.493
 1113TIP3    H1 3296   4.445   3.440   0.563
 1113TIP3    H2 3297   4.448   3.312   0.483
 1114TIP3   OH2 3298   7.931   1.504   3.824
 1114TIP3    H1 3299   7.919   1.520   3.918
 1114TIP3    H2 3300   7.935   1.591   3.785
 1115TIP3   OH2 3301   2.472   1.333   0.742
 1115TIP3    H1 3302   2.468   1.252   0.792
 1115TIP3    H2 3303   2.469   1.403   0.807
 1116TIP3   OH2 3304   8.331   3.553   1.359
 1116TIP3    H1 3305   8.249   3.526   1.401
 1116TIP3    H2 3306   8.310   3.556   1.266
 1117TIP3   OH2 3307   3.862   0.999   0.745
 1117TIP3    H1 3308   3.948   1.014   0.706
 1117TIP3    H2 3309   3.806   0.973   0.672
 1118TIP3   OH2 3310   6.332   1.613   5.119
 1118TIP3    H1 3311   6.348   1.546   5.052
 1118TIP3    H2 3312   6.338   1.696   5.072
 1119TIP3   OH2 3313   6.130   1.634   2.111
 1119TIP3    H1 3314   6.147   1.543   2.088
 1119TIP3    H2 3315   6.216   1.676   2.108
 1120TIP3   OH2 3316   4.786   3.278   5.165
 1120TIP3    H1 3317   4.812   3.246   5.252
 1120TIP3    H2 3318   4.703   3.233   5.147
 1121TIP3   OH2 3319   5.777   6.327   5.707
 1121TIP3    H1 3320   5.706   6.271   5.737
 1121TIP3    H2 3321   5.738   6.379   5.637
 1122TIP3   OH2 3322   1.325   5.308   4.095
 1122TIP3    H1 3323   1.345   5.282   4.005
 1122TIP3    H2 3324   1.242   5.355   4.088
 1123TIP3   OH2 3325   7.012   2.036   4.195
 1123TIP3    H1 3326   7.089   1.994   4.233
 1123TIP3    H2 3327   7.043   2.123   4.168
 1124TIP3   OH2 3328   2.538   3.251   2.658
 1124TIP3    H1 3329   2.556   3.164   2.694
 1124TIP3    H2 3330   2.454   3.240   2.612
 1125TIP3   OH2 3331   2.903   5.014   1.620
 1125TIP3    H1 3332   2.845   5.090   1.629
 1125TIP3    H2 3333   2.977   5.047   1.570
 1126TIP3   OH2 3334   2.617   3.878   2.343
 1126TIP3    H1 3335   2.699   3.828   2.344
 1126TIP3    H2 3336   2.596   3.887   2.250
 1127TIP3   OH2 3337   7.024   6.534   1.917
 1127TIP3    H1 3338   6.953   6.552   1.855
 1127TIP3    H2 3339   7.010   6.444   1.944
 1128TIP3   OH2 3340   1.039   7.268   1.025
 1128TIP3    H1 3341   0.992   7.281   1.108
 1128TIP3    H2 3342   0.981   7.212   0.974
 1129TIP3   OH2 3343   5.115   0.987   3.733
 1129TIP3    H1 3344   5.062   1.027   3.663
 1129TIP3    H2 3345   5.055   0.926   3.775
 1130TIP3   OH2 3346   4.398   1.716   0.144
 1130TIP3    H1 3347   4.370   1.798   0.103
 1130TIP3    H2 3348   4.388   1.732   0.238
 1131TIP3   OH2 3349   3.500   1.683   0.994
 1131TIP3    H1 3350   3.424   1.714   1.043
 1131TIP3    H2 3351   3.468   1.604   0.949
 1132TIP3   OH2 3352   4.363   5.628   0.243
 1132TIP3    H1 3353   4.359   5.547   0.193
 1132TIP3    H2 3354   4.437   5.617   0.302
 1133TIP3   OH2 3355   7.126   0.597   3.020
 1133TIP3    H1 3356   7.056   0.662   3.024
 1133TIP3    H2 3357   7.110   0.540   3.095
 1134TIP3   OH2 3358   7.227   1.869   2.783
 1134TIP3    H1 3359   7.208   1.813   2.707
 1134TIP3    H2 3360   7.169   1.837   2.852
 1135TIP3   OH2 3361   2.058   5.843   0.192
 1135TIP3    H1 3362   2.099   5.892   0.263
 1135TIP3    H2 3363   2.094   5.881   0.112
 1136TIP3   OH2 3364   1.750   5.568   6.463
 1136TIP3    H1 3365   1.752   5.475   6.485
 1136TIP3    H2 3366   1.661   5.596   6.484
 1137TIP3   OH2 3367   4.428   2.237   5.388
 1137TIP3    H1 3368   4.439   2.154   5.434
 1137TIP3    H2 3369   4.517   2.269   5.377
 1138TIP3   OH2 3370   7.067   0.283   5.945
 1138TIP3    H1 3371   7.049   0.362   5.892
 1138TIP3    H2 3372   7.159   0.290   5.968
 1139TIP3   OH2 3373   3.597   5.386   5.734
 1139TIP3    H1 3374   3.568   5.312   5.787
 1139TIP3    H2 3375   3.530   5.396   5.667
 1140TIP3   OH2 3376   6.988   2.687   5.435
 1140TIP3    H1 3377   6.984   2.781   5.449
 1140TIP3    H2 3378   6.901   2.663   5.403
 1141TIP3   OH2 3379   4.185   6.099   2.390
 1141TIP3    H1 3380   4.153   6.130   2.305
 1141TIP3    H2 3381   4.176   6.004   2.386
 1142TIP3   OH2 3382   7.977   7.158   4.422
 1142TIP3    H1 3383   7.914   7.228   4.439
 1142TIP3    H2 3384   8.054   7.204   4.389
 1143TIP3   OH2 3385   6.292   0.142   1.629
 1143TIP3    H1 3386   6.275   0.054   1.596
 1143TIP3    H2 3387   6.362   0.175   1.573
 1144TIP3   OH2 3388   8.201   3.993   1.440
 1144TIP3    H1 3389   8.287   3.958   1.417
 1144TIP3    H2 3390   8.185   3.960   1.529
 1145TIP3   OH2 3391   2.561   0.280   1.513
 1145TIP3    H1 3392   2.546   0.369   1.480
 1145TIP3    H2 3393   2.495   0.227   1.469
 1146TIP3   OH2 3394   1.069   2.858   1.434
 1146TIP3    H1 3395   1.002   2.814   1.485
 1146TIP3    H2 3396   1.140   2.874   1.496
 1147TIP3   OH2 3397   4.930   1.501   3.434
 1147TIP3    H1 3398   4.937   1.477   3.341
 1147TIP3    H2 3399   5.019   1.490   3.468
 1148TIP3   OH2 3400   8.122   7.782   1.492
 1148TIP3    H1 3401   8.064   7.858   1.503
 1148TIP3    H2 3402   8.063   7.709   1.474
 1149TIP3   OH2 3403   3.388   3.207   4.477
 1149TIP3    H1 3404   3.328   3.153   4.528
 1149TIP3    H2 3405   3.467   3.212   4.532
 1150TIP3   OH2 3406   3.792   0.403   2.179
 1150TIP3    H1 3407   3.753   0.323   2.144
 1150TIP3    H2 3408   3.834   0.445   2.104
 1151TIP3   OH2 3409   0.134   0.947   2.109
 1151TIP3    H1 3410   0.131   0.852   2.117
 1151TIP3    H2 3411   0.133   0.963   2.015
 1152TIP3   OH2 3412   2.996   6.141   2.589
 1152TIP3    H1 3413   2.912   6.183   2.605
 1152TIP3    H2 3414   2.977   6.047   2.587
 1153TIP3   OH2 3415   1.797   5.780   3.038
 1153TIP3    H1 3416   1.712   5.801   2.999
 1153TIP3    H2 3417   1.846   5.737   2.968
 1154TIP3   OH2 3418   7.776   5.577   3.329
 1154TIP3    H1 3419   7.736   5.570   3.416
 1154TIP3    H2 3420   7.868   5.599   3.346
 1155TIP3   OH2 3421   2.354   3.492   5.520
 1155TIP3    H1 3422   2.429   3.551   5.526
 1155TIP3    H2 3423   2.384   3.411   5.562
 1156TIP3   OH2 3424   8.189   2.750   0.617
 1156TIP3    H1 3425   8.095   2.754   0.605
 1156TIP3    H2 3426   8.213   2.659   0.599
 1157TIP3   OH2 3427   7.195   1.823   3.167
 1157TIP3    H1 3428   7.216   1.730   3.167
 1157TIP3    H2 3429   7.279   1.867   3.179
 1158TIP3   OH2 3430   3.504   0.159   3.453
 1158TIP3    H1 3431   3.551   0.178   3.372
 1158TIP3    H2 3432   3.518   0.237   3.508
 1159TIP3   OH2 3433   8.264   5.746   0.641
 1159TIP3    H1 3434   8.283   5.839   0.629
 1159TIP3    H2 3435   8.179   5.744   0.684
 1160TIP3   OH2 3436   5.039   2.626   2.807
 1160TIP3    H1 3437   5.096   2.701   2.790
 1160TIP3    H2 3438   5.039   2.617   2.902
 1161TIP3   OH2 3439   0.623   1.507   3.321
 1161TIP3    H1 3440   0.651   1.427   3.276
 1161TIP3    H2 3441   0.663   1.578   3.271
 1162TIP3   OH2 3442   3.461   0.482   6.444
 1162TIP3    H1 3443   3.554   0.501   6.427
 1162TIP3    H2 3444   3.448   0.510   6.535
 1163TIP3   OH2 3445   7.749   2.798   5.923
 1163TIP3    H1 3446   7.758   2.834   6.011
 1163TIP3    H2 3447   7.654   2.790   5.910
 1164TIP3   OH2 3448   5.486   5.781   2.143
 1164TIP3    H1 3449   5.491   5.780   2.048
 1164TIP3    H2 3450   5.392   5.786   2.162
 1165TIP3   OH2 3451   2.597   2.470   3.093
 1165TIP3    H1 3452   2.692   2.461   3.105
 1165TIP3    H2 3453   2.559   2.423   3.167
 1166TIP3   OH2 3454   3.524   6.382   2.354
 1166TIP3    H1 3455   3.506   6.289   2.368
 1166TIP3    H2 3456   3.445   6.415   2.310
 1167TIP3   OH2 3457   4.644   3.070   3.058
 1167TIP3    H1 3458   4.664   2.981   3.028
 1167TIP3    H2 3459   4.551   3.067   3.081
 1168TIP3   OH2 3460   2.137   0.911   2.663
 1168TIP3    H1 3461   2.178   0.981   2.612
 1168TIP3    H2 3462   2.048   0.906   2.627
 1169TIP3   OH2 3463   7.670   6.975   5.675
 1169TIP3    H1 3464   7.693   7.012   5.760
 1169TIP3    H2 3465   7.648   6.883   5.693
 1170TIP3   OH2 3466   6.575   0.074   6.139
 1170TIP3    H1 3467   6.581  -0.021   6.151
 1170TIP3    H2 3468   6.609   0.111   6.220
 1171TIP3   OH2 3469   5.856   7.643   4.271
 1171TIP3    H1 3470   5.826   7.600   4.352
 1171TIP3    H2 3471   5.783   7.632   4.210
 1172TIP3   OH2 3472   1.942   6.435   0.229
 1172TIP3    H1 3473   2.001   6.484   0.172
 1172TIP3    H2 3474   1.991   6.426   0.312
 1173TIP3   OH2 3475   2.442   2.736   2.143
 1173TIP3    H1 3476   2.501   2.811   2.135
 1173TIP3    H2 3477   2.490   2.674   2.198
 1174TIP3   OH2 3478   6.467   6.223   3.136
 1174TIP3    H1 3479   6.424   6.200   3.218
 1174TIP3    H2 3480   6.493   6.139   3.098
 1175TIP3   OH2 3481   2.318   1.660   2.524
 1175TIP3    H1 3482   2.280   1.729   2.579
 1175TIP3    H2 3483   2.247   1.596   2.516
 1176TIP3   OH2 3484   7.649   0.023   5.288
 1176TIP3    H1 3485   7.606  -0.062   5.295
 1176TIP3    H2 3486   7.612   0.062   5.209
 1177TIP3   OH2 3487   2.843   3.026   0.915
 1177TIP3    H1 3488   2.836   2.976   0.996
 1177TIP3    H2 3489   2.925   3.074   0.923
 1178TIP3   OH2 3490   7.374   4.197   6.045
 1178TIP3    H1 3491   7.350   4.212   5.954
 1178TIP3    H2 3492   7.469   4.204   6.047
 1179TIP3   OH2 3493   7.335   4.717   1.739
 1179TIP3    H1 3494   7.316   4.773   1.664
 1179TIP3    H2 3495   7.255   4.665   1.752
 1180TIP3   OH2 3496   4.253   1.545   5.878
 1180TIP3    H1 3497   4.231   1.631   5.913
 1180TIP3    H2 3498   4.205   1.483   5.934
 1181TIP3   OH2 3499   7.170   6.904   6.448
 1181TIP3    H1 3500   7.175   6.972   6.515
 1181TIP3    H2 3501   7.077   6.894   6.431
 1182TIP3   OH2 3502   2.341   7.751   4.047
 1182TIP3    H1 3503   2.258   7.778   4.007
 1182TIP3    H2 3504   2.332   7.776   4.139
 1183TIP3   OH2 3505   1.140   3.619   0.312
 1183TIP3    H1 3506   1.192   3.697   0.333
 1183TIP3    H2 3507   1.103   3.639   0.225
 1184TIP3   OH2 3508   2.298   0.856   5.764
 1184TIP3    H1 3509   2.208   0.874   5.790
 1184TIP3    H2 3510   2.348   0.930   5.799
 1185TIP3   OH2 3511   0.922   2.488   1.868
 1185TIP3    H1 3512   0.975   2.412   1.892
 1185TIP3    H2 3513   0.986   2.555   1.841
 1186TIP3   OH2 3514   2.516   7.719   3.453
 1186TIP3    H1 3515   2.577   7.701   3.525
 1186TIP3    H2 3516   2.447   7.773   3.491
 1187TIP3   OH2 3517   2.183   2.532   3.020
 1187TIP3    H1 3518   2.114   2.466   3.026
 1187TIP3    H2 3519   2.136   2.615   3.014
 1188TIP3   OH2 3520   2.913   3.443   2.761
 1188TIP3    H1 3521   2.887   3.428   2.670
 1188TIP3    H2 3522   2.890   3.534   2.778
 1189TIP3   OH2 3523   7.702   4.341   0.002
 1189TIP3    H1 3524   7.644   4.351   0.077
 1189TIP3    H2 3525   7.675   4.410  -0.059
 1190TIP3   OH2 3526   0.324   2.350   5.795
 1190TIP3    H1 3527   0.307   2.444   5.793
 1190TIP3    H2 3528   0.415   2.343   5.825
 1191TIP3   OH2 3529   1.237   1.948   0.170
 1191TIP3    H1 3530   1.235   2.017   0.104
 1191TIP3    H2 3531   1.318   1.900   0.152
 1192TIP3   OH2 3532   2.159   5.247   1.788
 1192TIP3    H1 3533   2.160   5.170   1.731
 1192TIP3    H2 3534   2.106   5.221   1.863
 1193TIP3   OH2 3535   8.076   4.382   5.376
 1193TIP3    H1 3536   8.065   4.299   5.329
 1193TIP3    H2 3537   8.157   4.371   5.425
 1194TIP3   OH2 3538   5.763   6.898   0.196
 1194TIP3    H1 3539   5.701   6.896   0.123
 1194TIP3    H2 3540   5.823   6.969   0.174
 1195TIP3   OH2 3541   6.115   7.782   4.370
 1195TIP3    H1 3542   6.047   7.773   4.304
 1195TIP3    H2 3543   6.067   7.788   4.453
 1196TIP3   OH2 3544   4.288   0.811   0.319
 1196TIP3    H1 3545   4.242   0.727   0.327
 1196TIP3    H2 3546   4.286   0.831   0.225
 1197TIP3   OH2 3547   3.325   7.176   3.622
 1197TIP3    H1 3548   3.281   7.101   3.660
 1197TIP3    H2 3549   3.418   7.153   3.624
 1198TIP3   OH2 3550   2.513   3.173   4.333
 1198TIP3    H1 3551   2.432   3.124   4.319
 1198TIP3    H2 3552   2.524   3.224   4.253
 1199TIP3   OH2 3553   1.441   7.364   2.440
 1199TIP3    H1 3554   1.480   7.442   2.400
 1199TIP3    H2 3555   1.413   7.393   2.527
 1200TIP3   OH2 3556   1.229   3.442   6.570
 1200TIP3    H1 3557   1.283   3.396   6.505
 1200TIP3    H2 3558   1.163   3.488   6.518
 1201TIP3   OH2 3559   7.813   6.017   1.572
 1201TIP3    H1 3560   7.757   6.004   1.496
 1201TIP3    H2 3561   7.852   5.931   1.588
 1202TIP3   OH2 3562   3.350   2.908   5.884
 1202TIP3    H1 3563   3.378   2.877   5.970
 1202TIP3    H2 3564   3.420   2.881   5.825
 1203TIP3   OH2 3565   0.333   3.835   4.625
 1203TIP3    H1 3566   0.390   3.775   4.576
 1203TIP3    H2 3567   0.352   3.921   4.589
 1204TIP3   OH2 3568   3.449   4.539   0.321
 1204TIP3    H1 3569   3.520   4.475   0.313
 1204TIP3    H2 3570   3.371   4.487   0.339
 1205TIP3   OH2 3571   4.277   3.352   4.760
 1205TIP3    H1 3572   4.298   3.439   4.794
 1205TIP3    H2 3573   4.277   3.364   4.665
 1206TIP3   OH2 3574   4.712   1.667   3.302
 1206TIP3    H1 3575   4.699   1.573   3.307
 1206TIP3    H2 3576   4.774   1.687   3.372
 1207TIP3   OH2 3577   6.346   0.360   0.837
 1207TIP3    H1 3578   6.414   0.298   0.863
 1207TIP3    H2 3579   6.281   0.307   0.791
 1208TIP3   OH2 3580   3.241   7.021   0.521
 1208TIP3    H1 3581   3.264   7.080   0.450
 1208TIP3    H2 3582   3.268   7.066   0.601
 1209TIP3   OH2 3583   0.867   5.096   0.720
 1209TIP3    H1 3584   0.792   5.148   0.747
 1209TIP3    H2 3585   0.865   5.096   0.625
 1210TIP3   OH2 3586   3.981   3.392   0.540
 1210TIP3    H1 3587   4.018   3.476   0.568
 1210TIP3    H2 3588   4.052   3.330   0.551
 1211TIP3   OH2 3589   6.579   5.257   1.417
 1211TIP3    H1 3590   6.674   5.260   1.403
 1211TIP3    H2 3591   6.561   5.332   1.474
 1212TIP3   OH2 3592   6.333   6.163   2.763
 1212TIP3    H1 3593   6.394   6.097   2.796
 1212TIP3    H2 3594   6.378   6.247   2.778
 1213TIP3   OH2 3595   2.799   5.748   0.096
 1213TIP3    H1 3596   2.766   5.760   0.185
 1213TIP3    H2 3597   2.796   5.653   0.081
 1214TIP3   OH2 3598   3.707   4.049   0.499
 1214TIP3    H1 3599   3.763   3.984   0.457
 1214TIP3    H2 3600   3.671   4.101   0.427
 1215TIP3   OH2 3601   3.231   4.036   6.273
 1215TIP3    H1 3602   3.293   3.982   6.224
 1215TIP3    H2 3603   3.210   3.984   6.351
 1216TIP3   OH2 3604   5.174   6.367   3.440
 1216TIP3    H1 3605   5.081   6.368   3.418
 1216TIP3    H2 3606   5.189   6.282   3.480
 1217TIP3   OH2 3607   4.666   2.956   2.012
 1217TIP3    H1 3608   4.574   2.930   2.010
 1217TIP3    H2 3609   4.706   2.898   2.078
 1218TIP3   OH2 3610   7.250   1.244   2.746
 1218TIP3    H1 3611   7.255   1.283   2.659
 1218TIP3    H2 3612   7.170   1.192   2.745
 1219TIP3   OH2 3613   8.181   6.471   4.971
 1219TIP3    H1 3614   8.229   6.401   4.928
 1219TIP3    H2 3615   8.229   6.488   5.052
 1220TIP3   OH2 3616   8.001   2.700   2.448
 1220TIP3    H1 3617   7.929   2.721   2.507
 1220TIP3    H2 3618   8.079   2.703   2.504
 1221TIP3   OH2 3619   2.795   4.211   1.625
 1221TIP3    H1 3620   2.891   4.211   1.631
 1221TIP3    H2 3621   2.778   4.206   1.531
 1222TIP3   OH2 3622   6.855   0.271   0.047
 1222TIP3    H1 3623   6.864   0.265   0.142
 1222TIP3    H2 3624   6.876   0.183   0.015
 1223TIP3   OH2 3625   7.345   6.556   0.944
 1223TIP3    H1 3626   7.333   6.505   1.024
 1223TIP3    H2 3627   7.257   6.577   0.915
 1224TIP3   OH2 3628   2.686   7.117   2.384
 1224TIP3    H1 3629   2.715   7.204   2.410
 1224TIP3    H2 3630   2.710   7.060   2.457
 1225TIP3   OH2 3631   4.788   0.479   2.436
 1225TIP3    H1 3632   4.838   0.557   2.459
 1225TIP3    H2 3633   4.811   0.462   2.344
 1226TIP3   OH2 3634   1.032   2.958   2.200
 1226TIP3    H1 3635   1.019   2.905   2.122
 1226TIP3    H2 3636   0.946   2.994   2.220
 1227TIP3   OH2 3637   2.689   3.427   3.058
 1227TIP3    H1 3638   2.660   3.481   2.984
 1227TIP3    H2 3639   2.691   3.487   3.132
 1228TIP3   OH2 3640   5.226   7.087   0.719
 1228TIP3    H1 3641   5.260   7.095   0.630
 1228TIP3    H2 3642   5.204   7.176   0.745
 1229TIP3   OH2 3643   8.211   0.520   4.357
 1229TIP3    H1 3644   8.261   0.589   4.315
 1229TIP3    H2 3645   8.201   0.453   4.290
 1230TIP3   OH2 3646   5.570   7.250   4.749
 1230TIP3    H1 3647   5.634   7.312   4.785
 1230TIP3    H2 3648   5.533   7.296   4.673
 1231TIP3   OH2 3649   1.427   7.206   4.036
 1231TIP3    H1 3650   1.442   7.168   3.950
 1231TIP3    H2 3651   1.374   7.284   4.019
 1232TIP3   OH2 3652   0.348   0.320   6.721
 1232TIP3    H1 3653   0.318   0.409   6.700
 1232TIP3    H2 3654   0.443   0.323   6.709
 1233TIP3   OH2 3655   5.208   3.019   5.969
 1233TIP3    H1 3656   5.296   3.043   6.000
 1233TIP3    H2 3657   5.165   3.103   5.953
 1234TIP3   OH2 3658   0.221   1.720   4.543
 1234TIP3    H1 3659   0.154   1.687   4.603
 1234TIP3    H2 3660   0.206   1.671   4.462
 1235TIP3   OH2 3661   7.335   6.955   0.417
 1235TIP3    H1 3662   7.269   6.972   0.351
 1235TIP3    H2 3663   7.291   6.902   0.483
 1236TIP3   OH2 3664   8.261   6.904   5.384
 1236TIP3    H1 3665   8.262   6.895   5.288
 1236TIP3    H2 3666   8.169   6.920   5.405
 1237TIP3   OH2 3667   5.564   7.110   1.100
 1237TIP3    H1 3668   5.533   7.113   1.190
 1237TIP3    H2 3669   5.503   7.165   1.051
 1238TIP3   OH2 3670   6.268   2.667   4.621
 1238TIP3    H1 3671   6.200   2.713   4.671
 1238TIP3    H2 3672   6.349   2.709   4.648
 1239TIP3   OH2 3673   0.030   2.943   6.406
 1239TIP3    H1 3674   0.050   2.857   6.371
 1239TIP3    H2 3675  -0.060   2.936   6.438
 1240TIP3   OH2 3676   6.636   4.992   3.210
 1240TIP3    H1 3677   6.669   5.082   3.223
 1240TIP3    H2 3678   6.702   4.937   3.252
 1241TIP3   OH2 3679   3.777   7.578   0.110
 1241TIP3    H1 3680   3.870   7.581   0.090
 1241TIP3    H2 3681   3.770   7.515   0.182
 1242TIP3   OH2 3682   4.501   2.274   2.779
 1242TIP3    H1 3683   4.531   2.354   2.737
 1242TIP3    H2 3684   4.537   2.278   2.868
 1243TIP3   OH2 3685   3.128   0.893   1.270
 1243TIP3    H1 3686   3.068   0.823   1.245
 1243TIP3    H2 3687   3.175   0.915   1.189
 1244TIP3   OH2 3688   7.191   4.086   0.014
 1244TIP3    H1 3689   7.104   4.125   0.021
 1244TIP3    H2 3690   7.175   3.992   0.006
 1245TIP3   OH2 3691   3.066   1.308   5.648
 1245TIP3    H1 3692   3.066   1.398   5.616
 1245TIP3    H2 3693   3.050   1.255   5.570
 1246TIP3   OH2 3694   2.074   6.720   4.767
 1246TIP3    H1 3695   2.156   6.712   4.817
 1246TIP3    H2 3696   2.008   6.741   4.833
 1247TIP3   OH2 3697   7.451   0.760   3.554
 1247TIP3    H1 3698   7.543   0.761   3.581
 1247TIP3    H2 3699   7.403   0.733   3.633
 1248TIP3   OH2 3700   0.389   4.185   3.797
 1248TIP3    H1 3701   0.336   4.252   3.840
 1248TIP3    H2 3702   0.478   4.200   3.829
 1249TIP3   OH2 3703   5.219   1.338   3.775
 1249TIP3    H1 3704   5.165   1.361   3.851
 1249TIP3    H2 3705   5.256   1.252   3.797
 1250TIP3   OH2 3706   7.662   2.352   3.382
 1250TIP3    H1 3707   7.692   2.353   3.473
 1250TIP3    H2 3708   7.671   2.443   3.353
 1251TIP3   OH2 3709   6.432   5.307   5.065
 1251TIP3    H1 3710   6.485   5.243   5.112
 1251TIP3    H2 3711   6.435   5.279   4.974
 1252TIP3   OH2 3712   4.282   3.094   6.155
 1252TIP3    H1 3713   4.229   3.022   6.189
 1252TIP3    H2 3714   4.319   3.061   6.073
 1253TIP3   OH2 3715   0.012   3.776   2.033
 1253TIP3    H1 3716   0.080   3.843   2.035
 1253TIP3    H2 3717  -0.070   3.825   2.040
 1254TIP3   OH2 3718   2.842   7.759   1.538
 1254TIP3    H1 3719   2.794   7.676   1.536
 1254TIP3    H2 3720   2.858   7.780   1.446
 1255TIP3   OH2 3721   3.687   2.240   6.335
 1255TIP3    H1 3722   3.689   2.259   6.429
 1255TIP3    H2 3723   3.685   2.144   6.330
 1256TIP3   OH2 3724   2.319   1.983   3.975
 1256TIP3    H1 3725   2.245   2.016   3.923
 1256TIP3    H2 3726   2.341   1.899   3.935
 1257TIP3   OH2 3727   1.562   7.536   1.123
 1257TIP3    H1 3728   1.554   7.630   1.135
 1257TIP3    H2 3729   1.578   7.525   1.029
 1258TIP3   OH2 3730   6.206   5.380   4.475
 1258TIP3    H1 3731   6.269   5.443   4.441
 1258TIP3    H2 3732   6.258   5.303   4.496
 1259TIP3   OH2 3733   4.497   0.003   5.193
 1259TIP3    H1 3734   4.509   0.088   5.235
 1259TIP3    H2 3735   4.413  -0.028   5.226
 1260TIP3   OH2 3736   7.072   7.325   5.857
 1260TIP3    H1 3737   7.012   7.345   5.785
 1260TIP3    H2 3738   7.144   7.386   5.847
 1261TIP3   OH2 3739   3.557   5.958   1.275
 1261TIP3    H1 3740   3.543   6.052   1.263
 1261TIP3    H2 3741   3.472   5.925   1.303
 1262TIP3   OH2 3742   2.761   7.713   6.311
 1262TIP3    H1 3743   2.684   7.675   6.354
 1262TIP3    H2 3744   2.784   7.788   6.366
 1263TIP3   OH2 3745   6.699   2.551   1.048
 1263TIP3    H1 3746   6.735   2.485   1.107
 1263TIP3    H2 3747   6.772   2.611   1.031
 1264TIP3   OH2 3748   2.029   3.645   0.692
 1264TIP3    H1 3749   1.948   3.657   0.741
 1264TIP3    H2 3750   2.086   3.595   0.750
 1265TIP3   OH2 3751   7.476   6.517   3.780
 1265TIP3    H1 3752   7.557   6.468   3.792
 1265TIP3    H2 3753   7.427   6.466   3.716
 1266TIP3   OH2 3754   0.354   0.515   4.500
 1266TIP3    H1 3755   0.265   0.481   4.503
 1266TIP3    H2 3756   0.406   0.451   4.547
 1267TIP3   OH2 3757   5.716   1.522   5.545
 1267TIP3    H1 3758   5.708   1.606   5.591
 1267TIP3    H2 3759   5.655   1.464   5.591
 1268TIP3   OH2 3760   2.453   2.350   1.858
 1268TIP3    H1 3761   2.483   2.303   1.936
 1268TIP3    H2 3762   2.408   2.427   1.892
 1269TIP3   OH2 3763   5.172   0.172   2.487
 1269TIP3    H1 3764   5.178   0.090   2.439
 1269TIP3    H2 3765   5.101   0.221   2.444
 1270TIP3   OH2 3766   3.561   1.351   1.517
 1270TIP3    H1 3767   3.644   1.304   1.524
 1270TIP3    H2 3768   3.570   1.404   1.438
 1271TIP3   OH2 3769   1.230   1.048   0.879
 1271TIP3    H1 3770   1.252   1.084   0.965
 1271TIP3    H2 3771   1.167   1.111   0.843
 1272TIP3   OH2 3772   1.655   5.931   0.960
 1272TIP3    H1 3773   1.710   6.009   0.945
 1272TIP3    H2 3774   1.581   5.963   1.011
 1273TIP3   OH2 3775   3.133   2.841   1.560
 1273TIP3    H1 3776   3.206   2.806   1.508
 1273TIP3    H2 3777   3.096   2.764   1.604
 1274TIP3   OH2 3778   1.758   2.820   2.645
 1274TIP3    H1 3779   1.752   2.912   2.669
 1274TIP3    H2 3780   1.681   2.805   2.590
 1275TIP3   OH2 3781   6.530   2.850   5.281
 1275TIP3    H1 3782   6.555   2.925   5.228
 1275TIP3    H2 3783   6.509   2.886   5.367
 1276TIP3   OH2 3784   3.541   4.442   4.273
 1276TIP3    H1 3785   3.603   4.484   4.212
 1276TIP3    H2 3786   3.587   4.441   4.357
 1277TIP3   OH2 3787   3.584   0.254   6.518
 1277TIP3    H1 3788   3.517   0.319   6.499
 1277TIP3    H2 3789   3.537   0.180   6.557
 1278TIP3   OH2 3790   0.515   5.872   2.909
 1278TIP3    H1 3791   0.507   5.934   2.981
 1278TIP3    H2 3792   0.467   5.794   2.939
 1279TIP3   OH2 3793   5.461   0.847   0.022
 1279TIP3    H1 3794   5.408   0.857   0.101
 1279TIP3    H2 3795   5.397   0.839  -0.049
 1280TIP3   OH2 3796   1.206   7.113   5.381
 1280TIP3    H1 3797   1.130   7.149   5.336
 1280TIP3    H2 3798   1.246   7.188   5.425
 1281TIP3   OH2 3799   2.343   0.499   4.228
 1281TIP3    H1 3800   2.370   0.450   4.306
 1281TIP3    H2 3801   2.360   0.591   4.250
 1282TIP3   OH2 3802   4.542   1.460   2.201
 1282TIP3    H1 3803   4.556   1.371   2.233
 1282TIP3    H2 3804   4.629   1.490   2.176
 1283TIP3   OH2 3805   0.544   4.873   1.901
 1283TIP3    H1 3806   0.506   4.916   1.824
 1283TIP3    H2 3807   0.618   4.929   1.926
 1284TIP3   OH2 3808   0.465   5.016   2.392
 1284TIP3    H1 3809   0.452   5.096   2.444
 1284TIP3    H2 3810   0.523   4.962   2.446
 1285TIP3   OH2 3811   0.193   5.558   5.100
 1285TIP3    H1 3812   0.263   5.513   5.148
 1285TIP3    H2 3813   0.114   5.509   5.122
 1286TIP3   OH2 3814   5.565   0.450   6.040
 1286TIP3    H1 3815   5.545   0.360   6.014
 1286TIP3    H2 3816   5.567   0.446   6.136
 1287TIP3   OH2 3817   0.460   1.759   4.718
 1287TIP3    H1 3818   0.450   1.671   4.682
 1287TIP3    H2 3819   0.491   1.812   4.644
 1288TIP3   OH2 3820   6.623   2.981   6.774
 1288TIP3    H1 3821   6.621   3.072   6.801
 1288TIP3    H2 3822   6.548   2.971   6.715
 1289TIP3   OH2 3823   4.129   4.418   6.077
 1289TIP3    H1 3824   4.119   4.509   6.049
 1289TIP3    H2 3825   4.056   4.403   6.137
 1290TIP3   OH2 3826   5.838   1.001   5.715
 1290TIP3    H1 3827   5.918   1.045   5.688
 1290TIP3    H2 3828   5.862   0.953   5.794
 1291TIP3   OH2 3829   5.524   3.799   2.782
 1291TIP3    H1 3830   5.557   3.867   2.841
 1291TIP3    H2 3831   5.473   3.741   2.838
 1292TIP3   OH2 3832   2.732   4.892   0.308
 1292TIP3    H1 3833   2.644   4.880   0.344
 1292TIP3    H2 3834   2.791   4.872   0.381
 1293TIP3   OH2 3835   2.310   5.754   4.540
 1293TIP3    H1 3836   2.334   5.846   4.528
 1293TIP3    H2 3837   2.261   5.731   4.461
 1294TIP3   OH2 3838   4.572   1.990   4.767
 1294TIP3    H1 3839   4.486   2.024   4.789
 1294TIP3    H2 3840   4.623   2.066   4.740
 1295TIP3   OH2 3841   7.830   6.759   6.266
 1295TIP3    H1 3842   7.795   6.701   6.198
 1295TIP3    H2 3843   7.874   6.829   6.217
 1296TIP3   OH2 3844   7.974   2.274   4.308
 1296TIP3    H1 3845   8.029   2.272   4.229
 1296TIP3    H2 3846   7.950   2.182   4.323
 1297TIP3   OH2 3847   8.109   2.231   2.299
 1297TIP3    H1 3848   8.074   2.267   2.217
 1297TIP3    H2 3849   8.064   2.281   2.367
 1298TIP3   OH2 3850   0.243   7.443   0.973
 1298TIP3    H1 3851   0.250   7.355   1.009
 1298TIP3    H2 3852   0.151   7.466   0.984
 1299TIP3   OH2 3853   6.560   3.842   6.586
 1299TIP3    H1 3854   6.548   3.749   6.570
 1299TIP3    H2 3855   6.637   3.847   6.642
 1300TIP3   OH2 3856   7.932   4.983   1.236
 1300TIP3    H1 3857   7.863   5.041   1.204
 1300TIP3    H2 3858   7.895   4.895   1.229
 1301TIP3   OH2 3859   4.753   1.490   2.571
 1301TIP3    H1 3860   4.787   1.421   2.627
 1301TIP3    H2 3861   4.662   1.466   2.555
 1302TIP3   OH2 3862   1.041   2.718   2.386
 1302TIP3    H1 3863   1.119   2.716   2.442
 1302TIP3    H2 3864   1.058   2.789   2.324
 1303TIP3   OH2 3865   0.714   5.842   5.887
 1303TIP3    H1 3866   0.797   5.795   5.893
 1303TIP3    H2 3867   0.667   5.799   5.816
 1304TIP3   OH2 3868   2.983   6.414   2.403
 1304TIP3    H1 3869   2.994   6.401   2.497
 1304TIP3    H2 3870   3.006   6.506   2.389
 1305TIP3   OH2 3871   5.589   4.425   2.015
 1305TIP3    H1 3872   5.600   4.518   1.992
 1305TIP3    H2 3873   5.607   4.422   2.109
 1306TIP3   OH2 3874   7.364   0.531   1.597
 1306TIP3    H1 3875   7.371   0.627   1.600
 1306TIP3    H2 3876   7.451   0.501   1.575
 1307TIP3   OH2 3877   8.186   6.461   0.769
 1307TIP3    H1 3878   8.277   6.481   0.790
 1307TIP3    H2 3879   8.157   6.402   0.839
 1308TIP3   OH2 3880   4.695   4.001   4.726
 1308TIP3    H1 3881   4.784   3.993   4.693
 1308TIP3    H2 3882   4.639   3.983   4.650
 1309TIP3   OH2 3883   4.065   2.050   3.757
 1309TIP3    H1 3884   4.107   1.981   3.810
 1309TIP3    H2 3885   4.127   2.066   3.686
 1310TIP3   OH2 3886   2.752   0.532   3.274
 1310TIP3    H1 3887   2.825   0.523   3.335
 1310TIP3    H2 3888   2.732   0.626   3.275
 1311TIP3   OH2 3889   6.864   0.744   1.695
 1311TIP3    H1 3890   6.867   0.829   1.652
 1311TIP3    H2 3891   6.775   0.737   1.730
 1312TIP3   OH2 3892   1.310   1.520   0.151
 1312TIP3    H1 3893   1.380   1.529   0.087
 1312TIP3    H2 3894   1.254   1.450   0.116
 1313TIP3   OH2 3895   0.127   0.076   1.557
 1313TIP3    H1 3896   0.169   0.133   1.492
 1313TIP3    H2 3897   0.034   0.081   1.536
 1314TIP3   OH2 3898   0.603   6.004   2.214
 1314TIP3    H1 3899   0.596   6.015   2.120
 1314TIP3    H2 3900   0.677   6.059   2.240
 1315TIP3   OH2 3901   5.184   3.292   0.864
 1315TIP3    H1 3902   5.226   3.275   0.780
 1315TIP3    H2 3903   5.184   3.387   0.872
 1316TIP3   OH2 3904   3.426   5.232   5.856
 1316TIP3    H1 3905   3.378   5.224   5.938
 1316TIP3    H2 3906   3.377   5.297   5.806
 1317TIP3   OH2 3907   8.050   6.098   1.852
 1317TIP3    H1 3908   8.127   6.131   1.808
 1317TIP3    H2 3909   8.051   6.003   1.836
 1318TIP3   OH2 3910   0.524   1.559   4.148
 1318TIP3    H1 3911   0.551   1.640   4.105
 1318TIP3    H2 3912   0.429   1.555   4.135
 1319TIP3   OH2 3913   3.388   0.143   6.297
 1319TIP3    H1 3914   3.406   0.114   6.386
 1319TIP3    H2 3915   3.324   0.213   6.308
 1320TIP3   OH2 3916   8.237   1.776   4.422
 1320TIP3    H1 3917   8.258   1.720   4.496
 1320TIP3    H2 3918   8.202   1.717   4.355
 1321TIP3   OH2 3919   1.344   4.914   6.578
 1321TIP3    H1 3920   1.308   4.856   6.511
 1321TIP3    H2 3921   1.313   4.877   6.661
 1322TIP3   OH2 3922   6.091   0.871   2.594
 1322TIP3    H1 3923   6.051   0.785   2.603
 1322TIP3    H2 3924   6.029   0.931   2.636
 1323TIP3   OH2 3925   8.069   3.262   6.250
 1323TIP3    H1 3926   8.156   3.278   6.287
 1323TIP3    H2 3927   8.082   3.189   6.189
 1324TIP3   OH2 3928   2.069   5.812   1.947
 1324TIP3    H1 3929   1.998   5.753   1.923
 1324TIP3    H2 3930   2.147   5.774   1.905
 1325TIP3   OH2 3931   7.457   5.096   3.482
 1325TIP3    H1 3932   7.462   5.020   3.539
 1325TIP3    H2 3933   7.538   5.093   3.430
 1326TIP3   OH2 3934   2.997   1.120   5.926
 1326TIP3    H1 3935   3.041   1.175   5.991
 1326TIP3    H2 3936   2.942   1.061   5.978
 1327TIP3   OH2 3937   4.334   0.586   5.771
 1327TIP3    H1 3938   4.287   0.579   5.687
 1327TIP3    H2 3939   4.374   0.673   5.768
 1328TIP3   OH2 3940   4.545   6.552   4.871
 1328TIP3    H1 3941   4.591   6.626   4.911
 1328TIP3    H2 3942   4.607   6.517   4.807
 1329TIP3   OH2 3943   1.197   7.766   1.861
 1329TIP3    H1 3944   1.284   7.777   1.899
 1329TIP3    H2 3945   1.137   7.768   1.936
 1330TIP3   OH2 3946   2.006   7.331   1.994
 1330TIP3    H1 3947   2.090   7.374   2.011
 1330TIP3    H2 3948   1.977   7.368   1.911
 1331TIP3   OH2 3949   3.809   0.414   6.083
 1331TIP3    H1 3950   3.838   0.505   6.082
 1331TIP3    H2 3951   3.719   0.418   6.115
 1332TIP3   OH2 3952   0.709   2.822   1.820
 1332TIP3    H1 3953   0.652   2.848   1.748
 1332TIP3    H2 3954   0.738   2.905   1.859
 1333TIP3   OH2 3955   2.355   7.702   5.227
 1333TIP3    H1 3956   2.327   7.701   5.135
 1333TIP3    H2 3957   2.274   7.690   5.277
 1334TIP3   OH2 3958   2.530   5.439   3.045
 1334TIP3    H1 3959   2.563   5.509   2.988
 1334TIP3    H2 3960   2.445   5.472   3.076
 1335TIP3   OH2 3961   0.049   3.072   5.995
 1335TIP3    H1 3962   0.027   3.154   5.951
 1335TIP3    H2 3963  -0.033   3.043   6.034
 1336TIP3   OH2 3964   5.240   1.121   6.199
 1336TIP3    H1 3965   5.287   1.188   6.248
 1336TIP3    H2 3966   5.259   1.039   6.245
 1337TIP3   OH2 3967   1.690   5.911   3.312
 1337TIP3    H1 3968   1.669   5.899   3.220
 1337TIP3    H2 3969   1.784   5.890   3.318
 1338TIP3   OH2 3970   6.602   5.654   5.221
 1338TIP3    H1 3971   6.537   5.592   5.256
 1338TIP3    H2 3972   6.685   5.623   5.256
 1339TIP3   OH2 3973   0.247   5.799   0.127
 1339TIP3    H1 3974   0.164   5.802   0.174
 1339TIP3    H2 3975   0.314   5.812   0.195
 1340TIP3   OH2 3976   6.330   7.007   2.901
 1340TIP3    H1 3977   6.413   6.977   2.863
 1340TIP3    H2 3978   6.276   7.029   2.825
 1341TIP3   OH2 3979   2.514   3.130   6.770
 1341TIP3    H1 3980   2.579   3.195   6.796
 1341TIP3    H2 3981   2.466   3.172   6.699
 1342TIP3   OH2 3982   2.138   1.106   2.475
 1342TIP3    H1 3983   2.051   1.116   2.438
 1342TIP3    H2 3984   2.197   1.114   2.400
 1343TIP3   OH2 3985   5.163   7.108   1.601
 1343TIP3    H1 3986   5.200   7.134   1.685
 1343TIP3    H2 3987   5.069   7.099   1.618
 1344TIP3   OH2 3988   3.841   6.646   5.399
 1344TIP3    H1 3989   3.923   6.680   5.363
 1344TIP3    H2 3990   3.845   6.666   5.492
 1345TIP3   OH2 3991   7.196   7.063   0.717
 1345TIP3    H1 3992   7.247   6.993   0.756
 1345TIP3    H2 3993   7.145   7.100   0.789
 1346TIP3   OH2 3994   2.901   7.701   2.149
 1346TIP3    H1 3995   2.841   7.746   2.208
 1346TIP3    H2 3996   2.984   7.699   2.197
 1347TIP3   OH2 3997   5.610   4.745   4.082
 1347TIP3    H1 3998   5.705   4.751   4.075
 1347TIP3    H2 3999   5.588   4.661   4.042
 1348TIP3   OH2 4000   1.488   3.231   6.145
 1348TIP3    H1 4001   1.578   3.203   6.161
 1348TIP3    H2 4002   1.465   3.188   6.062
 1349TIP3   OH2 4003   3.178   6.559   6.437
 1349TIP3    H1 4004   3.156   6.471   6.407
 1349TIP3    H2 4005   3.141   6.618   6.371
 1350TIP3   OH2 4006   6.649   2.536   4.041
 1350TIP3    H1 4007   6.657   2.452   4.085
 1350TIP3    H2 4008   6.617   2.515   3.953
 1351TIP3   OH2 4009   5.018   0.297   5.970
 1351TIP3    H1 4010   4.948   0.360   5.950
 1351TIP3    H2 4011   5.091   0.352   5.998
 1352TIP3   OH2 4012   6.818   0.594   3.243
 1352TIP3    H1 4013   6.763   0.637   3.309
 1352TIP3    H2 4014   6.757   0.535   3.197
 1353TIP3   OH2 4015   0.156   7.187   4.224
 1353TIP3    H1 4016   0.107   7.149   4.151
 1353TIP3    H2 4017   0.170   7.278   4.199
 1354TIP3   OH2 4018   7.321   0.398   3.043
 1354TIP3    H1 4019   7.251   0.375   2.982
 1354TIP3    H2 4020   7.314   0.493   3.052
 1355TIP3   OH2 4021   5.714   5.687   1.118
 1355TIP3    H1 4022   5.763   5.762   1.150
 1355TIP3    H2 4023   5.707   5.628   1.193
 1356TIP3   OH2 4024   1.906   6.054   2.595
 1356TIP3    H1 4025   1.960   6.011   2.529
 1356TIP3    H2 4026   1.842   5.988   2.621
 1357TIP3   OH2 4027   3.715   0.248   4.669
 1357TIP3    H1 4028   3.630   0.245   4.625
 1357TIP3    H2 4029   3.695   0.241   4.762
 1358TIP3   OH2 4030   5.980   0.415   4.544
 1358TIP3    H1 4031   5.906   0.365   4.577
 1358TIP3    H2 4032   5.942   0.498   4.516
 1359TIP3   OH2 4033   6.321   1.914   4.509
 1359TIP3    H1 4034   6.384   1.867   4.565
 1359TIP3    H2 4035   6.342   2.006   4.524
 1360TIP3   OH2 4036   4.378   2.829   4.870
 1360TIP3    H1 4037   4.435   2.827   4.948
 1360TIP3    H2 4038   4.359   2.922   4.857
 1361TIP3   OH2 4039   1.225   7.477   0.942
 1361TIP3    H1 4040   1.161   7.410   0.969
 1361TIP3    H2 4041   1.301   7.427   0.914
 1362TIP3   OH2 4042   7.659   5.365   1.334
 1362TIP3    H1 4043   7.687   5.314   1.410
 1362TIP3    H2 4044   7.602   5.432   1.370
 1363TIP3   OH2 4045   5.157   6.854   0.242
 1363TIP3    H1 4046   5.204   6.926   0.199
 1363TIP3    H2 4047   5.129   6.797   0.170
 1364TIP3   OH2 4048   1.041   2.526   6.655
 1364TIP3    H1 4049   1.130   2.509   6.686
 1364TIP3    H2 4050   1.048   2.605   6.601
 1365TIP3   OH2 4051   1.586   3.037   0.356
 1365TIP3    H1 4052   1.531   3.044   0.278
 1365TIP3    H2 4053   1.663   3.090   0.337
 1366TIP3   OH2 4054   4.663   7.239   3.653
 1366TIP3    H1 4055   4.739   7.266   3.704
 1366TIP3    H2 4056   4.591   7.234   3.716
 1367TIP3   OH2 4057   1.887   1.236   2.395
 1367TIP3    H1 4058   1.812   1.285   2.430
 1367TIP3    H2 4059   1.848   1.170   2.338
 1368TIP3   OH2 4060   6.604   0.393   4.017
 1368TIP3    H1 4061   6.537   0.423   4.079
 1368TIP3    H2 4062   6.687   0.419   4.057
 1369TIP3   OH2 4063   1.640   4.658   4.513
 1369TIP3    H1 4064   1.725   4.701   4.499
 1369TIP3    H2 4065   1.636   4.590   4.445
 1370TIP3   OH2 4066   6.329   7.220   2.648
 1370TIP3    H1 4067   6.416   7.247   2.618
 1370TIP3    H2 4068   6.297   7.293   2.700
 1371TIP3   OH2 4069   7.225   5.708   5.930
 1371TIP3    H1 4070   7.272   5.747   6.004
 1371TIP3    H2 4071   7.138   5.749   5.933
 1372TIP3   OH2 4072   1.927   5.677   2.810
 1372TIP3    H1 4073   1.915   5.673   2.715
 1372TIP3    H2 4074   1.970   5.594   2.832
 1373TIP3   OH2 4075   7.053   4.261   6.435
 1373TIP3    H1 4076   7.007   4.340   6.409
 1373TIP3    H2 4077   7.060   4.268   6.530
 1374TIP3   OH2 4078   5.613   5.322   5.290
 1374TIP3    H1 4079   5.618   5.403   5.340
 1374TIP3    H2 4080   5.603   5.254   5.357
 1375TIP3   OH2 4081   5.161   5.279   5.626
 1375TIP3    H1 4082   5.168   5.189   5.596
 1375TIP3    H2 4083   5.080   5.311   5.585
 1376TIP3   OH2 4084   4.697   2.224   4.173
 1376TIP3    H1 4085   4.784   2.263   4.175
 1376TIP3    H2 4086   4.693   2.169   4.251
 1377TIP3   OH2 4087   6.178   5.396   1.083
 1377TIP3    H1 4088   6.131   5.467   1.040
 1377TIP3    H2 4089   6.254   5.380   1.027
 1378TIP3   OH2 4090   6.373   4.464   3.604
 1378TIP3    H1 4091   6.436   4.451   3.533
 1378TIP3    H2 4092   6.423   4.506   3.673
 1379TIP3   OH2 4093   7.745   0.392   1.990
 1379TIP3    H1 4094   7.801   0.457   2.034
 1379TIP3    H2 4095   7.719   0.435   1.908
 1380TIP3   OH2 4096   5.095   3.685   5.697
 1380TIP3    H1 4097   5.177   3.728   5.676
 1380TIP3    H2 4098   5.028   3.738   5.655
 1381TIP3   OH2 4099   2.949   3.710   2.727
 1381TIP3    H1 4100   2.887   3.761   2.675
 1381TIP3    H2 4101   2.997   3.776   2.778
 1382TIP3   OH2 4102   5.422   1.004   5.486
 1382TIP3    H1 4103   5.390   1.021   5.574
 1382TIP3    H2 4104   5.344   1.009   5.430
 1383TIP3   OH2 4105   6.992   6.878   2.160
 1383TIP3    H1 4106   7.041   6.949   2.117
 1383TIP3    H2 4107   7.055   6.807   2.168
 1384TIP3   OH2 4108   3.798   6.175   2.270
 1384TIP3    H1 4109   3.883   6.190   2.228
 1384TIP3    H2 4110   3.734   6.187   2.200
 1385TIP3   OH2 4111   5.299   6.155   6.533
 1385TIP3    H1 4112   5.236   6.173   6.463
 1385TIP3    H2 4113   5.266   6.076   6.575
 1386TIP3   OH2 4114   3.346   5.414   2.876
 1386TIP3    H1 4115   3.414   5.384   2.935
 1386TIP3    H2 4116   3.343   5.509   2.887
 1387TIP3   OH2 4117   4.718   1.214   5.785
 1387TIP3    H1 4118   4.723   1.149   5.716
 1387TIP3    H2 4119   4.806   1.250   5.792
 1388TIP3   OH2 4120   0.009   3.622   3.476
 1388TIP3    H1 4121   0.045   3.704   3.512
 1388TIP3    H2 4122   0.040   3.554   3.535
 1389TIP3   OH2 4123   5.635   0.245   3.324
 1389TIP3    H1 4124   5.671   0.162   3.292
 1389TIP3    H2 4125   5.628   0.233   3.419
 1390TIP3   OH2 4126   1.878   3.618   3.337
 1390TIP3    H1 4127   1.838   3.703   3.316
 1390TIP3    H2 4128   1.967   3.640   3.362
 1391TIP3   OH2 4129   3.198   6.153   6.443
 1391TIP3    H1 4130   3.146   6.219   6.397
 1391TIP3    H2 4131   3.152   6.140   6.526
 1392TIP3   OH2 4132   5.510   3.184   0.276
 1392TIP3    H1 4133   5.560   3.163   0.197
 1392TIP3    H2 4134   5.433   3.230   0.243
 1393TIP3   OH2 4135   6.919   7.679   3.604
 1393TIP3    H1 4136   6.945   7.770   3.587
 1393TIP3    H2 4137   6.841   7.667   3.550
 1394TIP3   OH2 4138   5.431   4.536   4.660
 1394TIP3    H1 4139   5.376   4.562   4.586
 1394TIP3    H2 4140   5.511   4.502   4.620
 1395TIP3   OH2 4141   1.962   2.891   6.717
 1395TIP3    H1 4142   1.930   2.898   6.808
 1395TIP3    H2 4143   1.918   2.814   6.682
 1396TIP3   OH2 4144   1.322   4.099   5.929
 1396TIP3    H1 4145   1.293   4.175   5.980
 1396TIP3    H2 4146   1.352   4.137   5.846
 1397TIP3   OH2 4147   7.314   5.648   1.689
 1397TIP3    H1 4148   7.330   5.618   1.779
 1397TIP3    H2 4149   7.239   5.707   1.697
 1398TIP3   OH2 4150   5.646   5.206   0.184
 1398TIP3    H1 4151   5.576   5.141   0.182
 1398TIP3    H2 4152   5.668   5.214   0.277
 1399TIP3   OH2 4153   0.734   0.346   4.494
 1399TIP3    H1 4154   0.691   0.271   4.535
 1399TIP3    H2 4155   0.674   0.374   4.425
 1400TIP3   OH2 4156   3.254   4.742   0.270
 1400TIP3    H1 4157   3.262   4.655   0.308
 1400TIP3    H2 4158   3.325   4.792   0.310
 1401TIP3   OH2 4159   2.003   2.321   5.359
 1401TIP3    H1 4160   2.084   2.322   5.308
 1401TIP3    H2 4161   2.006   2.238   5.407
 1402TIP3   OH2 4162   0.347   4.875   3.177
 1402TIP3    H1 4163   0.407   4.949   3.169
 1402TIP3    H2 4164   0.260   4.913   3.167
 1403TIP3   OH2 4165   3.697   2.291   4.008
 1403TIP3    H1 4166   3.769   2.264   3.951
 1403TIP3    H2 4167   3.630   2.325   3.949
 1404TIP3   OH2 4168   1.962   4.937   4.781
 1404TIP3    H1 4169   1.885   4.961   4.730
 1404TIP3    H2 4170   1.944   4.971   4.869
 1405TIP3   OH2 4171   7.421   5.315   6.012
 1405TIP3    H1 4172   7.333   5.316   5.973
 1405TIP3    H2 4173   7.437   5.406   6.037
 1406TIP3   OH2 4174   4.539   7.343   1.169
 1406TIP3    H1 4175   4.572   7.394   1.243
 1406TIP3    H2 4176   4.531   7.407   1.098
 1407TIP3   OH2 4177   5.139   2.899   1.591
 1407TIP3    H1 4178   5.114   2.880   1.682
 1407TIP3    H2 4179   5.058   2.887   1.541
 1408TIP3   OH2 4180   7.795   7.053   5.037
 1408TIP3    H1 4181   7.728   7.009   5.088
 1408TIP3    H2 4182   7.791   7.145   5.066
 1409TIP3   OH2 4183   6.877   2.010   2.493
 1409TIP3    H1 4184   6.923   2.085   2.530
 1409TIP3    H2 4185   6.901   1.937   2.550
 1410TIP3   OH2 4186   5.190   1.890   1.830
 1410TIP3    H1 4187   5.240   1.839   1.895
 1410TIP3    H2 4188   5.101   1.890   1.864
 1411TIP3   OH2 4189   5.141   6.968   5.246
 1411TIP3    H1 4190   5.151   6.944   5.338
 1411TIP3    H2 4191   5.048   6.989   5.236
 1412TIP3   OH2 4192   5.693   2.006   2.549
 1412TIP3    H1 4193   5.705   2.030   2.641
 1412TIP3    H2 4194   5.717   1.913   2.545
 1413TIP3   OH2 4195   7.209   3.271   2.660
 1413TIP3    H1 4196   7.229   3.360   2.689
 1413TIP3    H2 4197   7.138   3.243   2.718
 1414TIP3   OH2 4198   3.795   7.194   6.237
 1414TIP3    H1 4199   3.823   7.131   6.171
 1414TIP3    H2 4200   3.859   7.186   6.307
 1415TIP3   OH2 4201   1.660   2.425   2.041
 1415TIP3    H1 4202   1.587   2.429   1.979
 1415TIP3    H2 4203   1.630   2.473   2.117
 1416TIP3   OH2 4204   0.158   0.910   0.098
 1416TIP3    H1 4205   0.070   0.878   0.079
 1416TIP3    H2 4206   0.170   0.985   0.040
 1417TIP3   OH2 4207   6.470   2.824   2.934
 1417TIP3    H1 4208   6.509   2.903   2.898
 1417TIP3    H2 4209   6.376   2.837   2.924
 1418TIP3   OH2 4210   2.297   4.164   4.809
 1418TIP3    H1 4211   2.319   4.113   4.732
 1418TIP3    H2 4212   2.206   4.192   4.794
 1419TIP3   OH2 4213   4.134   4.387   2.164
 1419TIP3    H1 4214   4.136   4.297   2.197
 1419TIP3    H2 4215   4.089   4.437   2.233
 1420TIP3   OH2 4216   3.393   6.410   5.070
 1420TIP3    H1 4217   3.420   6.406   5.162
 1420TIP3    H2 4218   3.471   6.381   5.021
 1421TIP3   OH2 4219   6.405   6.935   4.623
 1421TIP3    H1 4220   6.314   6.964   4.627
 1421TIP3    H2 4221   6.403   6.854   4.573
 1422TIP3   OH2 4222   4.176   7.306   4.803
 1422TIP3    H1 4223   4.248   7.368   4.810
 1422TIP3    H2 4224   4.116   7.346   4.739
 1423TIP3   OH2 4225   3.622   3.581   4.683
 1423TIP3    H1 4226   3.626   3.630   4.766
 1423TIP3    H2 4227   3.683   3.508   4.696
 1424TIP3   OH2 4228   0.051   0.960   4.186
 1424TIP3    H1 4229   0.106   0.913   4.123
 1424TIP3    H2 4230   0.104   1.037   4.210
 1425TIP3   OH2 4231   6.905   2.733   1.015
 1425TIP3    H1 4232   6.993   2.716   0.982
 1425TIP3    H2 4233   6.878   2.813   0.970
 1426TIP3   OH2 4234   1.063   7.380   3.563
 1426TIP3    H1 4235   1.028   7.466   3.587
 1426TIP3    H2 4236   0.995   7.341   3.508
 1427TIP3   OH2 4237   7.377   1.115   1.637
 1427TIP3    H1 4238   7.358   1.043   1.697
 1427TIP3    H2 4239   7.303   1.116   1.576
 1428TIP3   OH2 4240   2.216   2.922   1.501
 1428TIP3    H1 4241   2.305   2.913   1.534
 1428TIP3    H2 4242   2.163   2.943   1.578
 1429TIP3   OH2 4243   2.627   4.464   0.795
 1429TIP3    H1 4244   2.634   4.424   0.708
 1429TIP3    H2 4245   2.628   4.558   0.778
 1430TIP3   OH2 4246   1.073   5.671   6.046
 1430TIP3    H1 4247   1.029   5.645   5.965
 1430TIP3    H2 4248   1.141   5.733   6.018
 1431TIP3   OH2 4249   8.245   4.111   3.148
 1431TIP3    H1 4250   8.327   4.117   3.099
 1431TIP3    H2 4251   8.251   4.181   3.213
 1432TIP3   OH2 4252   7.291   3.366   2.009
 1432TIP3    H1 4253   7.319   3.328   2.091
 1432TIP3    H2 4254   7.371   3.402   1.970
 1433TIP3   OH2 4255   2.106   0.114   0.210
 1433TIP3    H1 4256   2.063   0.166   0.278
 1433TIP3    H2 4257   2.074   0.151   0.127
 1434TIP3   OH2 4258   5.328   0.233   3.428
 1434TIP3    H1 4259   5.399   0.198   3.375
 1434TIP3    H2 4260   5.372   0.289   3.492
 1435TIP3   OH2 4261   1.953   4.418   0.236
 1435TIP3    H1 4262   2.046   4.402   0.254
 1435TIP3    H2 4263   1.910   4.336   0.262
 1436TIP3   OH2 4264   5.303   5.552   6.635
 1436TIP3    H1 4265   5.306   5.587   6.546
 1436TIP3    H2 4266   5.393   5.564   6.668
 1437TIP3   OH2 4267   3.888   0.794   0.324
 1437TIP3    H1 4268   3.926   0.752   0.248
 1437TIP3    H2 4269   3.897   0.730   0.395
 1438TIP3   OH2 4270   4.132   3.887   3.735
 1438TIP3    H1 4271   4.080   3.964   3.713
 1438TIP3    H2 4272   4.074   3.813   3.717
 1439TIP3   OH2 4273   6.282   3.355   5.185
 1439TIP3    H1 4274   6.372   3.384   5.202
 1439TIP3    H2 4275   6.253   3.407   5.110
 1440TIP3   OH2 4276   2.506   1.072   1.248
 1440TIP3    H1 4277   2.528   1.042   1.337
 1440TIP3    H2 4278   2.414   1.098   1.254
 1441TIP3   OH2 4279   3.265   5.467   4.741
 1441TIP3    H1 4280   3.325   5.401   4.705
 1441TIP3    H2 4281   3.290   5.549   4.697
 1442TIP3   OH2 4282   5.447   6.484   6.333
 1442TIP3    H1 4283   5.394   6.494   6.411
 1442TIP3    H2 4284   5.463   6.573   6.303
 1443TIP3   OH2 4285   0.658   5.233   0.848
 1443TIP3    H1 4286   0.639   5.318   0.807
 1443TIP3    H2 4287   0.592   5.174   0.811
 1444TIP3   OH2 4288   7.661   6.823   4.329
 1444TIP3    H1 4289   7.710   6.869   4.397
 1444TIP3    H2 4290   7.628   6.744   4.372
 1445TIP3   OH2 4291   0.196   1.286   2.485
 1445TIP3    H1 4292   0.123   1.283   2.424
 1445TIP3    H2 4293   0.274   1.288   2.429
 1446TIP3   OH2 4294   6.366   2.026   1.165
 1446TIP3    H1 4295   6.322   1.951   1.125
 1446TIP3    H2 4296   6.315   2.044   1.245
 1447TIP3   OH2 4297   4.621   6.858   0.193
 1447TIP3    H1 4298   4.669   6.846   0.275
 1447TIP3    H2 4299   4.599   6.951   0.192
 1448TIP3   OH2 4300   8.128   2.971   0.264
 1448TIP3    H1 4301   8.129   2.877   0.280
 1448TIP3    H2 4302   8.216   2.991   0.232
 1449TIP3   OH2 4303   2.634   0.286   3.302
 1449TIP3    H1 4304   2.661   0.376   3.288
 1449TIP3    H2 4305   2.713   0.241   3.331
 1450TIP3   OH2 4306   5.327   3.535   5.076
 1450TIP3    H1 4307   5.372   3.562   4.996
 1450TIP3    H2 4308   5.236   3.525   5.051
 1451TIP3   OH2 4309   5.497   5.030   1.053
 1451TIP3    H1 4310   5.424   5.081   1.087
 1451TIP3    H2 4311   5.476   5.015   0.961
 1452TIP3   OH2 4312   1.914   5.605   1.598
 1452TIP3    H1 4313   1.936   5.615   1.690
 1452TIP3    H2 4314   1.866   5.522   1.593
 1453TIP3   OH2 4315   3.074   7.266   1.715
 1453TIP3    H1 4316   2.997   7.253   1.770
 1453TIP3    H2 4317   3.078   7.361   1.701
 1454TIP3   OH2 4318   2.251   4.046   4.072
 1454TIP3    H1 4319   2.206   3.984   4.129
 1454TIP3    H2 4320   2.267   3.998   3.991
 1455TIP3   OH2 4321   7.817   4.448   4.994
 1455TIP3    H1 4322   7.869   4.447   4.914
 1455TIP3    H2 4323   7.803   4.541   5.012
 1456TIP3   OH2 4324   3.389   5.705   2.900
 1456TIP3    H1 4325   3.465   5.730   2.952
 1456TIP3    H2 4326   3.329   5.779   2.906
 1457TIP3   OH2 4327   4.125   1.928   4.239
 1457TIP3    H1 4328   4.203   1.873   4.228
 1457TIP3    H2 4329   4.145   1.981   4.317
 1458TIP3   OH2 4330   4.628   2.699   2.332
 1458TIP3    H1 4331   4.705   2.729   2.284
 1458TIP3    H2 4332   4.643   2.727   2.422
 1459TIP3   OH2 4333   8.196   7.524   5.703
 1459TIP3    H1 4334   8.200   7.509   5.609
 1459TIP3    H2 4335   8.223   7.615   5.714
 1460TIP3   OH2 4336   6.195   0.597   3.315
 1460TIP3    H1 4337   6.107   0.566   3.337
 1460TIP3    H2 4338   6.188   0.692   3.315
 1461TIP3   OH2 4339   5.992   7.746   6.428
 1461TIP3    H1 4340   5.937   7.801   6.485
 1461TIP3    H2 4341   6.035   7.807   6.369
 1462TIP3   OH2 4342   0.753   7.549   4.023
 1462TIP3    H1 4343   0.813   7.482   3.990
 1462TIP3    H2 4344   0.673   7.501   4.045
 1463TIP3   OH2 4345   0.787   7.180   2.300
 1463TIP3    H1 4346   0.821   7.266   2.326
 1463TIP3    H2 4347   0.861   7.120   2.314
 1464TIP3   OH2 4348   4.066   3.455   3.894
 1464TIP3    H1 4349   3.985   3.502   3.913
 1464TIP3    H2 4350   4.107   3.505   3.824
 1465TIP3   OH2 4351   4.037   2.121   2.738
 1465TIP3    H1 4352   4.115   2.165   2.705
 1465TIP3    H2 4353   4.061   2.091   2.826
 1466TIP3   OH2 4354   7.931   4.346   1.035
 1466TIP3    H1 4355   8.012   4.397   1.039
 1466TIP3    H2 4356   7.883   4.370   1.114
 1467TIP3   OH2 4357   2.426   0.541   2.793
 1467TIP3    H1 4358   2.389   0.598   2.725
 1467TIP3    H2 4359   2.362   0.544   2.864
 1468TIP3   OH2 4360   2.239   4.289   2.049
 1468TIP3    H1 4361   2.222   4.373   2.091
 1468TIP3    H2 4362   2.152   4.249   2.041
 1469TIP3   OH2 4363   4.002   1.731   3.530
 1469TIP3    H1 4364   4.070   1.798   3.525
 1469TIP3    H2 4365   3.920   1.781   3.533
 1470TIP3   OH2 4366   6.572   0.881   6.082
 1470TIP3    H1 4367   6.660   0.913   6.103
 1470TIP3    H2 4368   6.566   0.890   5.987
 1471TIP3   OH2 4369   4.682   5.064   6.423
 1471TIP3    H1 4370   4.731   5.104   6.351
 1471TIP3    H2 4371   4.634   4.992   6.383
 1472TIP3   OH2 4372   1.842   2.373   1.641
 1472TIP3    H1 4373   1.901   2.445   1.664
 1472TIP3    H2 4374   1.825   2.328   1.724
 1473TIP3   OH2 4375   4.930   0.055   6.393
 1473TIP3    H1 4376   5.008   0.049   6.338
 1473TIP3    H2 4377   4.860   0.079   6.332
 1474TIP3   OH2 4378   7.493   3.836   5.824
 1474TIP3    H1 4379   7.420   3.809   5.878
 1474TIP3    H2 4380   7.571   3.814   5.875
 1475TIP3   OH2 4381   0.843   7.050   2.886
 1475TIP3    H1 4382   0.827   7.095   2.803
 1475TIP3    H2 4383   0.916   7.098   2.925
 1476TIP3   OH2 4384   4.570   1.759   2.569
 1476TIP3    H1 4385   4.531   1.679   2.536
 1476TIP3    H2 4386   4.663   1.739   2.579
 1477TIP3   OH2 4387   2.090   5.909   5.194
 1477TIP3    H1 4388   2.129   5.829   5.228
 1477TIP3    H2 4389   2.108   5.975   5.261
 1478TIP3   OH2 4390   6.142   1.767   1.365
 1478TIP3    H1 4391   6.198   1.841   1.388
 1478TIP3    H2 4392   6.085   1.800   1.296
 1479TIP3   OH2 4393   7.042   1.955   0.717
 1479TIP3    H1 4394   7.052   1.943   0.812
 1479TIP3    H2 4395   7.122   1.917   0.681
 1480TIP3   OH2 4396   6.363   5.693   2.453
 1480TIP3    H1 4397   6.287   5.659   2.500
 1480TIP3    H2 4398   6.333   5.703   2.363
 1481TIP3   OH2 4399   7.052   6.411   0.022
 1481TIP3    H1 4400   7.118   6.343   0.038
 1481TIP3    H2 4401   7.071   6.478   0.087
 1482TIP3   OH2 4402   2.557   7.617   3.213
 1482TIP3    H1 4403   2.546   7.662   3.297
 1482TIP3    H2 4404   2.502   7.666   3.152
 1483TIP3   OH2 4405   1.105   1.621   1.047
 1483TIP3    H1 4406   1.127   1.701   1.000
 1483TIP3    H2 4407   1.098   1.647   1.139
 1484TIP3   OH2 4408   1.865   1.157   1.305
 1484TIP3    H1 4409   1.849   1.119   1.219
 1484TIP3    H2 4410   1.955   1.131   1.326
 1485TIP3   OH2 4411   4.926   5.063   2.760
 1485TIP3    H1 4412   4.842   5.094   2.725
 1485TIP3    H2 4413   4.910   4.970   2.779
 1486TIP3   OH2 4414   0.053   1.708   3.288
 1486TIP3    H1 4415   0.146   1.686   3.294
 1486TIP3    H2 4416   0.044   1.748   3.201
 1487TIP3   OH2 4417   7.441   7.708   5.440
 1487TIP3    H1 4418   7.460   7.614   5.441
 1487TIP3    H2 4419   7.463   7.736   5.351
 1488TIP3   OH2 4420   0.769  -0.002   2.311
 1488TIP3    H1 4421   0.765   0.091   2.289
 1488TIP3    H2 4422   0.685  -0.037   2.282
 1489TIP3   OH2 4423   2.074   0.113   2.038
 1489TIP3    H1 4424   2.124   0.126   2.119
 1489TIP3    H2 4425   1.985   0.139   2.061
 1490TIP3   OH2 4426   8.201   0.105   6.535
 1490TIP3    H1 4427   8.176   0.070   6.449
 1490TIP3    H2 4428   8.219   0.028   6.588
 1491TIP3   OH2 4429   1.680   2.346   0.266
 1491TIP3    H1 4430   1.613   2.414   0.261
 1491TIP3    H2 4431   1.761   2.393   0.282
 1492TIP3   OH2 4432   5.944   6.834   2.723
 1492TIP3    H1 4433   5.854   6.803   2.712
 1492TIP3    H2 4434   5.998   6.756   2.715
 1493TIP3   OH2 4435   7.532   3.209   4.127
 1493TIP3    H1 4436   7.599   3.189   4.062
 1493TIP3    H2 4437   7.474   3.272   4.084
 1494TIP3   OH2 4438   0.162   6.609   3.241
 1494TIP3    H1 4439   0.232   6.544   3.248
 1494TIP3    H2 4440   0.084   6.558   3.219
 1495TIP3   OH2 4441   6.961   4.596   1.002
 1495TIP3    H1 4442   6.903   4.521   1.002
 1495TIP3    H2 4443   7.030   4.574   0.939
 1496TIP3   OH2 4444   0.283   5.947   4.531
 1496TIP3    H1 4445   0.237   5.868   4.559
 1496TIP3    H2 4446   0.371   5.918   4.508
 1497TIP3   OH2 4447   1.217   0.108   4.319
 1497TIP3    H1 4448   1.189   0.093   4.409
 1497TIP3    H2 4449   1.262   0.028   4.293
 1498TIP3   OH2 4450   6.647   7.561   3.484
 1498TIP3    H1 4451   6.572   7.514   3.446
 1498TIP3    H2 4452   6.723   7.522   3.442
 1499TIP3   OH2 4453   4.569   1.298   2.786
 1499TIP3    H1 4454   4.494   1.301   2.726
 1499TIP3    H2 4455   4.624   1.228   2.753
 1500TIP3   OH2 4456   6.363   6.380   0.038
 1500TIP3    H1 4457   6.363   6.318   0.112
 1500TIP3    H2 4458   6.279   6.425   0.044
 1501TIP3   OH2 4459   7.988   5.115   4.108
 1501TIP3    H1 4460   8.074   5.090   4.073
 1501TIP3    H2 4461   7.957   5.037   4.154
 1502TIP3   OH2 4462   1.085   1.684   0.058
 1502TIP3    H1 4463   1.116   1.628   0.129
 1502TIP3    H2 4464   1.134   1.765   0.068
 1503TIP3   OH2 4465   0.384   3.674   5.053
 1503TIP3    H1 4466   0.329   3.607   5.012
 1503TIP3    H2 4467   0.380   3.749   4.994
 1504TIP3   OH2 4468   2.133   1.868   1.205
 1504TIP3    H1 4469   2.082   1.788   1.195
 1504TIP3    H2 4470   2.073   1.938   1.183
 1505TIP3   OH2 4471   3.973   7.256   3.751
 1505TIP3    H1 4472   3.929   7.177   3.719
 1505TIP3    H2 4473   3.986   7.239   3.845
 1506TIP3   OH2 4474   6.941   0.923   4.150
 1506TIP3    H1 4475   6.965   1.014   4.132
 1506TIP3    H2 4476   7.017   0.872   4.124
 1507TIP3   OH2 4477  -0.006   2.006   6.653
 1507TIP3    H1 4478  -0.008   1.951   6.731
 1507TIP3    H2 4479  -0.012   2.096   6.687
 1508TIP3   OH2 4480   1.655   1.367   2.459
 1508TIP3    H1 4481   1.598   1.321   2.398
 1508TIP3    H2 4482   1.613   1.355   2.545
 1509TIP3   OH2 4483   5.561   6.980   4.582
 1509TIP3    H1 4484   5.642   6.982   4.531
 1509TIP3    H2 4485   5.585   7.018   4.666
 1510TIP3   OH2 4486   0.343   2.206   3.209
 1510TIP3    H1 4487   0.425   2.180   3.168
 1510TIP3    H2 4488   0.324   2.292   3.173
 1511TIP3   OH2 4489   6.280   2.519   0.278
 1511TIP3    H1 4490   6.207   2.528   0.338
 1511TIP3    H2 4491   6.249   2.555   0.195
 1512TIP3   OH2 4492   4.792   0.112   2.243
 1512TIP3    H1 4493   4.802   0.037   2.184
 1512TIP3    H2 4494   4.877   0.156   2.241
 1513TIP3   OH2 4495   2.581   2.663   0.321
 1513TIP3    H1 4496   2.664   2.700   0.351
 1513TIP3    H2 4497   2.552   2.608   0.393
 1514TIP3   OH2 4498   0.759   4.821   3.668
 1514TIP3    H1 4499   0.783   4.729   3.665
 1514TIP3    H2 4500   0.680   4.828   3.613
 1515TIP3   OH2 4501   4.583   2.378   0.925
 1515TIP3    H1 4502   4.674   2.364   0.895
 1515TIP3    H2 4503   4.531   2.370   0.845
 1516TIP3   OH2 4504   0.774   1.982   4.987
 1516TIP3    H1 4505   0.705   2.027   5.035
 1516TIP3    H2 4506   0.735   1.899   4.961
 1517TIP3   OH2 4507   7.820   6.932   1.327
 1517TIP3    H1 4508   7.911   6.904   1.331
 1517TIP3    H2 4509   7.781   6.877   1.259
 1518TIP3   OH2 4510   2.809   1.867   6.098
 1518TIP3    H1 4511   2.855   1.836   6.020
 1518TIP3    H2 4512   2.878   1.872   6.165
 1519TIP3   OH2 4513   5.655   7.113   3.325
 1519TIP3    H1 4514   5.678   7.048   3.258
 1519TIP3    H2 4515   5.654   7.196   3.278
 1520TIP3   OH2 4516   7.584   1.941   6.217
 1520TIP3    H1 4517   7.583   1.977   6.128
 1520TIP3    H2 4518   7.590   2.019   6.274
 1521TIP3   OH2 4519   1.480   2.916   2.896
 1521TIP3    H1 4520   1.514   2.997   2.856
 1521TIP3    H2 4521   1.545   2.895   2.963
 1522TIP3   OH2 4522   5.457   5.600   0.862
 1522TIP3    H1 4523   5.478   5.683   0.820
 1522TIP3    H2 4524   5.542   5.562   0.884
 1523TIP3   OH2 4525   7.456   3.165   3.479
 1523TIP3    H1 4526   7.458   3.242   3.536
 1523TIP3    H2 4527   7.375   3.120   3.503
 1524TIP3   OH2 4528   1.476   4.260   3.465
 1524TIP3    H1 4529   1.482   4.264   3.560
 1524TIP3    H2 4530   1.422   4.336   3.442
 1525TIP3   OH2 4531   2.222   1.015   5.515
 1525TIP3    H1 4532   2.156   1.026   5.583
 1525TIP3    H2 4533   2.306   1.030   5.560
 1526TIP3   OH2 4534   7.196   6.927   1.129
 1526TIP3    H1 4535   7.271   6.964   1.176
 1526TIP3    H2 4536   7.141   6.890   1.198
 1527TIP3   OH2 4537   5.413   5.366   3.184
 1527TIP3    H1 4538   5.464   5.285   3.185
 1527TIP3    H2 4539   5.467   5.429   3.231
 1528TIP3   OH2 4540   7.089   1.752   1.472
 1528TIP3    H1 4541   7.007   1.739   1.520
 1528TIP3    H2 4542   7.090   1.682   1.407
 1529TIP3   OH2 4543   2.468   0.414   0.985
 1529TIP3    H1 4544   2.507   0.496   0.955
 1529TIP3    H2 4545   2.416   0.383   0.911
 1530TIP3   OH2 4546   4.171   3.149   1.459
 1530TIP3    H1 4547   4.250   3.154   1.513
 1530TIP3    H2 4548   4.192   3.199   1.381
 1531TIP3   OH2 4549   4.064   1.744   6.218
 1531TIP3    H1 4550   4.066   1.806   6.291
 1531TIP3    H2 4551   3.996   1.681   6.242
 1532TIP3   OH2 4552   4.441   4.461   4.456
 1532TIP3    H1 4553   4.422   4.494   4.544
 1532TIP3    H2 4554   4.535   4.447   4.455
 1533TIP3   OH2 4555   7.567   1.774   0.917
 1533TIP3    H1 4556   7.600   1.744   0.832
 1533TIP3    H2 4557   7.515   1.851   0.896
 1534TIP3   OH2 4558   0.466   6.264   5.902
 1534TIP3    H1 4559   0.429   6.210   5.832
 1534TIP3    H2 4560   0.538   6.312   5.861
 1535TIP3   OH2 4561   7.627   1.540   0.016
 1535TIP3    H1 4562   7.631   1.596   0.093
 1535TIP3    H2 4563   7.687   1.581  -0.046
 1536TIP3   OH2 4564   2.793   0.557   0.305
 1536TIP3    H1 4565   2.832   0.584   0.388
 1536TIP3    H2 4566   2.850   0.486   0.274
 1537TIP3   OH2 4567   4.150   6.785   0.649
 1537TIP3    H1 4568   4.102   6.773   0.731
 1537TIP3    H2 4569   4.194   6.869   0.658
 1538TIP3   OH2 4570   0.531   4.035   3.041
 1538TIP3    H1 4571   0.621   4.038   3.008
 1538TIP3    H2 4572   0.508   4.127   3.053
 1539TIP3   OH2 4573   7.522   0.313   2.437
 1539TIP3    H1 4574   7.552   0.307   2.528
 1539TIP3    H2 4575   7.444   0.257   2.434
 1540TIP3   OH2 4576   2.192   3.350   2.670
 1540TIP3    H1 4577   2.232   3.310   2.593
 1540TIP3    H2 4578   2.265   3.369   2.728
 1541TIP3   OH2 4579   7.811   6.602   5.460
 1541TIP3    H1 4580   7.786   6.511   5.447
 1541TIP3    H2 4581   7.818   6.638   5.372
 1542TIP3   OH2 4582   2.568   6.327   0.432
 1542TIP3    H1 4583   2.553   6.422   0.435
 1542TIP3    H2 4584   2.482   6.290   0.413
 1543TIP3   OH2 4585   0.897   2.856   0.669
 1543TIP3    H1 4586   0.962   2.819   0.729
 1543TIP3    H2 4587   0.830   2.788   0.662
 1544TIP3   OH2 4588   1.391   5.599   0.052
 1544TIP3    H1 4589   1.335   5.646  -0.010
 1544TIP3    H2 4590   1.410   5.664   0.120
 1545TIP3   OH2 4591   5.871   4.377   2.293
 1545TIP3    H1 4592   5.777   4.355   2.293
 1545TIP3    H2 4593   5.897   4.373   2.201
 1546TIP3   OH2 4594   3.983   1.233   4.327
 1546TIP3    H1 4595   4.049   1.168   4.304
 1546TIP3    H2 4596   4.018   1.315   4.293
 1547TIP3   OH2 4597   6.999   7.693   1.926
 1547TIP3    H1 4598   6.962   7.629   1.988
 1547TIP3    H2 4599   6.997   7.776   1.974
 1548TIP3   OH2 4600   2.219   0.733   3.111
 1548TIP3    H1 4601   2.274   0.788   3.167
 1548TIP3    H2 4602   2.208   0.784   3.030
 1549TIP3   OH2 4603   6.434   0.696   3.140
 1549TIP3    H1 4604   6.508   0.703   3.079
 1549TIP3    H2 4605   6.471   0.654   3.217
 1550TIP3   OH2 4606   6.643   3.882   0.789
 1550TIP3    H1 4607   6.584   3.811   0.815
 1550TIP3    H2 4608   6.729   3.840   0.778
 1551TIP3   OH2 4609   1.683   5.401   0.966
 1551TIP3    H1 4610   1.648   5.490   0.966
 1551TIP3    H2 4611   1.643   5.360   0.889
 1552TIP3   OH2 4612   4.816   2.044   1.953
 1552TIP3    H1 4613   4.730   2.058   1.912
 1552TIP3    H2 4614   4.865   1.993   1.890
 1553TIP3   OH2 4615   7.281   7.595   3.880
 1553TIP3    H1 4616   7.222   7.531   3.840
 1553TIP3    H2 4617   7.310   7.650   3.807
 1554TIP3   OH2 4618   1.597   5.978   5.863
 1554TIP3    H1 4619   1.540   6.050   5.889
 1554TIP3    H2 4620   1.679   6.020   5.837
 1555TIP3   OH2 4621   4.798   7.741   3.238
 1555TIP3    H1 4622   4.892   7.724   3.240
 1555TIP3    H2 4623   4.781   7.772   3.149
 1556TIP3   OH2 4624   6.603   1.543   1.661
 1556TIP3    H1 4625   6.542   1.571   1.593
 1556TIP3    H2 4626   6.589   1.449   1.669
 1557TIP3   OH2 4627   7.641   7.020   4.599
 1557TIP3    H1 4628   7.627   7.085   4.530
 1557TIP3    H2 4629   7.682   7.070   4.670
 1558TIP3   OH2 4630   3.872   6.153   5.555
 1558TIP3    H1 4631   3.952   6.155   5.607
 1558TIP3    H2 4632   3.843   6.244   5.553
 1559TIP3   OH2 4633   0.141   3.544   2.159
 1559TIP3    H1 4634   0.101   3.625   2.126
 1559TIP3    H2 4635   0.074   3.506   2.216
 1560TIP3   OH2 4636   8.189   5.582   4.020
 1560TIP3    H1 4637   8.163   5.656   3.965
 1560TIP3    H2 4638   8.185   5.506   3.961
 1561TIP3   OH2 4639   2.470   6.637   2.958
 1561TIP3    H1 4640   2.565   6.649   2.945
 1561TIP3    H2 4641   2.461   6.621   3.052
 1562TIP3   OH2 4642   3.897   6.406   1.976
 1562TIP3    H1 4643   3.961   6.467   1.939
 1562TIP3    H2 4644   3.819   6.459   1.989
 1563TIP3   OH2 4645   3.773   6.583   6.373
 1563TIP3    H1 4646   3.839   6.597   6.305
 1563TIP3    H2 4647   3.718   6.661   6.370
 1564TIP3   OH2 4648   2.455   1.427   5.780
 1564TIP3    H1 4649   2.541   1.391   5.805
 1564TIP3    H2 4650   2.465   1.522   5.789
 1565TIP3   OH2 4651   4.124   2.648   3.565
 1565TIP3    H1 4652   4.055   2.633   3.629
 1565TIP3    H2 4653   4.142   2.742   3.570
 1566TIP3   OH2 4654   0.984   3.180   1.016
 1566TIP3    H1 4655   1.038   3.250   0.980
 1566TIP3    H2 4656   0.980   3.198   1.109
 1567TIP3   OH2 4657   0.044   4.675   1.258
 1567TIP3    H1 4658   0.092   4.753   1.228
 1567TIP3    H2 4659  -0.041   4.681   1.216
 1568TIP3   OH2 4660   7.930   0.825   6.489
 1568TIP3    H1 4661   8.013   0.803   6.532
 1568TIP3    H2 4662   7.927   0.921   6.491
 1569TIP3   OH2 4663   7.105   3.740   3.858
 1569TIP3    H1 4664   7.050   3.786   3.795
 1569TIP3    H2 4665   7.047   3.673   3.895
 1570TIP3   OH2 4666   5.655   4.174   3.466
 1570TIP3    H1 4667   5.582   4.113   3.476
 1570TIP3    H2 4668   5.627   4.253   3.513
 1571TIP3   OH2 4669   2.380   7.324   6.301
 1571TIP3    H1 4670   2.379   7.419   6.290
 1571TIP3    H2 4671   2.304   7.294   6.252
 1572TIP3   OH2 4672   7.135   6.458   0.417
 1572TIP3    H1 4673   7.221   6.452   0.376
 1572TIP3    H2 4674   7.073   6.456   0.344
 1573TIP3   OH2 4675   0.512   7.197   3.815
 1573TIP3    H1 4676   0.428   7.194   3.769
 1573TIP3    H2 4677   0.542   7.106   3.817
 1574TIP3   OH2 4678   0.715   3.414   2.636
 1574TIP3    H1 4679   0.700   3.506   2.615
 1574TIP3    H2 4680   0.760   3.379   2.560
 1575TIP3   OH2 4681   2.345   2.460   6.443
 1575TIP3    H1 4682   2.269   2.436   6.390
 1575TIP3    H2 4683   2.384   2.376   6.468
 1576TIP3   OH2 4684   7.361   3.787   2.011
 1576TIP3    H1 4685   7.425   3.852   2.040
 1576TIP3    H2 4686   7.413   3.709   1.993
 1577TIP3   OH2 4687   7.830   2.092   0.777
 1577TIP3    H1 4688   7.904   2.149   0.759
 1577TIP3    H2 4689   7.841   2.019   0.716
 1578TIP3   OH2 4690   6.993   5.952   2.308
 1578TIP3    H1 4691   6.922   5.992   2.357
 1578TIP3    H2 4692   7.052   5.916   2.375
 1579TIP3   OH2 4693   5.572   3.229   5.645
 1579TIP3    H1 4694   5.509   3.159   5.663
 1579TIP3    H2 4695   5.566   3.242   5.550
 1580TIP3   OH2 4696   5.806   7.498   4.486
 1580TIP3    H1 4697   5.833   7.507   4.578
 1580TIP3    H2 4698   5.747   7.423   4.486
 1581TIP3   OH2 4699   7.769   4.884   0.927
 1581TIP3    H1 4700   7.848   4.833   0.940
 1581TIP3    H2 4701   7.800   4.968   0.893
 1582TIP3   OH2 4702   3.166   3.007   2.964
 1582TIP3    H1 4703   3.134   3.071   2.901
 1582TIP3    H2 4704   3.252   3.040   2.990
 1583TIP3   OH2 4705   4.413   2.840   4.355
 1583TIP3    H1 4706   4.421   2.923   4.401
 1583TIP3    H2 4707   4.325   2.809   4.378
 1584TIP3   OH2 4708   4.777   2.698   0.914
 1584TIP3    H1 4709   4.695   2.715   0.868
 1584TIP3    H2 4710   4.790   2.776   0.968
 1585TIP3   OH2 4711   1.950   7.461   2.792
 1585TIP3    H1 4712   2.030   7.480   2.841
 1585TIP3    H2 4713   1.906   7.546   2.784
 1586TIP3   OH2 4714   1.521   2.409   5.213
 1586TIP3    H1 4715   1.426   2.406   5.202
 1586TIP3    H2 4716   1.539   2.499   5.239
 1587TIP3   OH2 4717   6.164   0.230   3.302
 1587TIP3    H1 4718   6.163   0.223   3.207
 1587TIP3    H2 4719   6.076   0.259   3.325
 1588TIP3   OH2 4720   2.721   3.409   4.106
 1588TIP3    H1 4721   2.770   3.361   4.040
 1588TIP3    H2 4722   2.636   3.366   4.110
 1589TIP3   OH2 4723   8.181   6.058   0.703
 1589TIP3    H1 4724   8.194   6.081   0.611
 1589TIP3    H2 4725   8.264   6.079   0.746
 1590TIP3   OH2 4726   1.142   2.044   2.411
 1590TIP3    H1 4727   1.056   2.047   2.367
 1590TIP3    H2 4728   1.124   2.001   2.494
 1591TIP3   OH2 4729   4.225   5.028   3.985
 1591TIP3    H1 4730   4.201   5.064   4.070
 1591TIP3    H2 4731   4.143   4.993   3.950
 1592TIP3   OH2 4732   4.831   4.039   1.799
 1592TIP3    H1 4733   4.809   3.952   1.767
 1592TIP3    H2 4734   4.911   4.063   1.751
 1593TIP3   OH2 4735   0.803   7.553   2.002
 1593TIP3    H1 4736   0.734   7.620   2.011
 1593TIP3    H2 4737   0.768   7.477   2.049
 1594TIP3   OH2 4738   3.560   5.504   3.525
 1594TIP3    H1 4739   3.504   5.452   3.582
 1594TIP3    H2 4740   3.649   5.487   3.556
 1595TIP3   OH2 4741   4.990   1.955   3.822
 1595TIP3    H1 4742   5.075   1.994   3.801
 1595TIP3    H2 4743   4.934   1.977   3.747
 1596TIP3   OH2 4744   1.630   2.927   3.150
 1596TIP3    H1 4745   1.616   2.853   3.208
 1596TIP3    H2 4746   1.723   2.948   3.159
 1597TIP3   OH2 4747   1.782   3.018   0.945
 1597TIP3    H1 4748   1.871   3.021   0.910
 1597TIP3    H2 4749   1.748   2.933   0.917
 1598TIP3   OH2 4750   4.707   1.182   6.442
 1598TIP3    H1 4751   4.707   1.178   6.537
 1598TIP3    H2 4752   4.797   1.203   6.418
 1599TIP3   OH2 4753   4.001   6.839   0.908
 1599TIP3    H1 4754   3.977   6.771   0.972
 1599TIP3    H2 4755   3.922   6.848   0.853
 1600TIP3   OH2 4756   1.267   4.172   2.813
 1600TIP3    H1 4757   1.308   4.161   2.899
 1600TIP3    H2 4758   1.264   4.266   2.799
 1601TIP3   OH2 4759   8.304   1.251   3.109
 1601TIP3    H1 4760   8.245   1.199   3.054
 1601TIP3    H2 4761   8.269   1.242   3.197
 1602TIP3   OH2 4762   4.381   3.466   3.856
 1602TIP3    H1 4763   4.363   3.559   3.839
 1602TIP3    H2 4764   4.466   3.466   3.899
 1603TIP3   OH2 4765   2.404   2.862   6.264
 1603TIP3    H1 4766   2.379   2.810   6.340
 1603TIP3    H2 4767   2.355   2.944   6.273
 1604TIP3   OH2 4768   0.364   4.238   3.249
 1604TIP3    H1 4769   0.418   4.250   3.327
 1604TIP3    H2 4770   0.342   4.326   3.221
 1605TIP3   OH2 4771   5.493   5.214   2.564
 1605TIP3    H1 4772   5.583   5.182   2.569
 1605TIP3    H2 4773   5.459   5.177   2.482
 1606TIP3   OH2 4774   0.052   1.305   5.891
 1606TIP3    H1 4775   0.121   1.360   5.928
 1606TIP3    H2 4776   0.078   1.295   5.799
 1607TIP3   OH2 4777   5.546   3.765   0.761
 1607TIP3    H1 4778   5.488   3.829   0.803
 1607TIP3    H2 4779   5.512   3.680   0.789
 1608TIP3   OH2 4780   3.943   4.715   0.263
 1608TIP3    H1 4781   4.001   4.698   0.337
 1608TIP3    H2 4782   4.001   4.745   0.193
 1609TIP3   OH2 4783   6.132   0.526   3.007
 1609TIP3    H1 4784   6.040   0.509   2.988
 1609TIP3    H2 4785   6.131   0.571   3.091
 1610TIP3   OH2 4786   5.401   3.590   5.318
 1610TIP3    H1 4787   5.485   3.544   5.321
 1610TIP3    H2 4788   5.364   3.565   5.233
 1611TIP3   OH2 4789   5.798   6.299   0.450
 1611TIP3    H1 4790   5.712   6.276   0.487
 1611TIP3    H2 4791   5.844   6.216   0.442
 1612TIP3   OH2 4792   0.792   7.649   4.741
 1612TIP3    H1 4793   0.823   7.561   4.716
 1612TIP3    H2 4794   0.728   7.633   4.810
 1613TIP3   OH2 4795   6.675   6.815   4.614
 1613TIP3    H1 4796   6.608   6.883   4.627
 1613TIP3    H2 4797   6.719   6.841   4.533
 1614TIP3   OH2 4798   7.566   6.196   1.928
 1614TIP3    H1 4799   7.520   6.113   1.942
 1614TIP3    H2 4800   7.658   6.170   1.917
 1615TIP3   OH2 4801   4.440   7.472   0.293
 1615TIP3    H1 4802   4.403   7.424   0.367
 1615TIP3    H2 4803   4.405   7.429   0.215
 1616TIP3   OH2 4804   2.160   4.881   6.397
 1616TIP3    H1 4805   2.132   4.859   6.308
 1616TIP3    H2 4806   2.096   4.946   6.426
 1617TIP3   OH2 4807   3.384   3.715   1.246
 1617TIP3    H1 4808   3.308   3.658   1.263
 1617TIP3    H2 4809   3.443   3.662   1.193
 1618TIP3   OH2 4810   7.915   2.534   5.222
 1618TIP3    H1 4811   7.869   2.473   5.280
 1618TIP3    H2 4812   7.965   2.478   5.162
 1619TIP3   OH2 4813   7.714   1.324   1.995
 1619TIP3    H1 4814   7.666   1.284   2.068
 1619TIP3    H2 4815   7.706   1.260   1.924
 1620TIP3   OH2 4816   1.003   2.527   3.706
 1620TIP3    H1 4817   1.031   2.602   3.654
 1620TIP3    H2 4818   0.914   2.549   3.733
 1621TIP3   OH2 4819   1.914   6.578   6.502
 1621TIP3    H1 4820   1.860   6.655   6.519
 1621TIP3    H2 4821   1.936   6.583   6.409
 1622TIP3   OH2 4822   4.043   1.359   4.600
 1622TIP3    H1 4823   4.086   1.317   4.526
 1622TIP3    H2 4824   4.027   1.288   4.662
 1623TIP3   OH2 4825   2.304   7.490   3.408
 1623TIP3    H1 4826   2.272   7.580   3.417
 1623TIP3    H2 4827   2.350   7.472   3.490
 1624TIP3   OH2 4828   6.007   1.398   6.068
 1624TIP3    H1 4829   5.990   1.459   5.996
 1624TIP3    H2 4830   5.977   1.313   6.035
 1625TIP3   OH2 4831   4.576   5.331   6.191
 1625TIP3    H1 4832   4.670   5.341   6.176
 1625TIP3    H2 4833   4.538   5.323   6.104
 1626TIP3   OH2 4834   3.486   0.597   0.524
 1626TIP3    H1 4835   3.562   0.546   0.553
 1626TIP3    H2 4836   3.412   0.536   0.528
 1627TIP3   OH2 4837   5.242   6.670   6.072
 1627TIP3    H1 4838   5.323   6.621   6.086
 1627TIP3    H2 4839   5.265   6.761   6.092
 1628TIP3   OH2 4840   2.646   0.858   5.781
 1628TIP3    H1 4841   2.714   0.897   5.725
 1628TIP3    H2 4842   2.571   0.847   5.722
 1629TIP3   OH2 4843   7.112   1.260   6.246
 1629TIP3    H1 4844   7.020   1.267   6.218
 1629TIP3    H2 4845   7.120   1.325   6.317
 1630TIP3   OH2 4846   7.161   5.060   5.473
 1630TIP3    H1 4847   7.116   5.027   5.551
 1630TIP3    H2 4848   7.118   5.014   5.400
 1631TIP3   OH2 4849   2.596   0.597   6.602
 1631TIP3    H1 4850   2.621   0.666   6.663
 1631TIP3    H2 4851   2.509   0.570   6.631
 1632TIP3   OH2 4852   0.774   4.284   4.972
 1632TIP3    H1 4853   0.755   4.250   5.059
 1632TIP3    H2 4854   0.785   4.206   4.918
 1633TIP3   OH2 4855   6.940   2.817   6.066
 1633TIP3    H1 4856   6.986   2.777   5.992
 1633TIP3    H2 4857   6.874   2.873   6.026
 1634TIP3   OH2 4858   5.014   6.779   1.493
 1634TIP3    H1 4859   5.042   6.694   1.526
 1634TIP3    H2 4860   4.938   6.760   1.438
 1635TIP3   OH2 4861   6.329   0.584   1.235
 1635TIP3    H1 4862   6.415   0.590   1.277
 1635TIP3    H2 4863   6.296   0.498   1.259
 1636TIP3   OH2 4864   8.226   7.515   1.264
 1636TIP3    H1 4865   8.316   7.540   1.282
 1636TIP3    H2 4866   8.222   7.422   1.282
 1637TIP3   OH2 4867   4.922   2.684   4.316
 1637TIP3    H1 4868   4.959   2.730   4.392
 1637TIP3    H2 4869   4.828   2.702   4.320
 1638TIP3   OH2 4870   5.256   0.495   1.082
 1638TIP3    H1 4871   5.273   0.452   0.998
 1638TIP3    H2 4872   5.327   0.465   1.139
 1639TIP3   OH2 4873   5.315   0.793   6.470
 1639TIP3    H1 4874   5.245   0.735   6.500
 1639TIP3    H2 4875   5.299   0.803   6.376
 1640TIP3   OH2 4876   5.720   6.273   0.802
 1640TIP3    H1 4877   5.788   6.297   0.865
 1640TIP3    H2 4878   5.702   6.354   0.754
 1641TIP3   OH2 4879   2.101   4.711   3.354
 1641TIP3    H1 4880   2.068   4.639   3.409
 1641TIP3    H2 4881   2.109   4.672   3.267
 1642TIP3   OH2 4882   0.644   1.071   5.866
 1642TIP3    H1 4883   0.697   1.051   5.943
 1642TIP3    H2 4884   0.563   1.106   5.902
 1643TIP3   OH2 4885   4.426   6.538   5.428
 1643TIP3    H1 4886   4.466   6.623   5.410
 1643TIP3    H2 4887   4.476   6.475   5.377
 1644TIP3   OH2 4888   2.610   4.373   0.534
 1644TIP3    H1 4889   2.592   4.446   0.475
 1644TIP3    H2 4890   2.699   4.346   0.512
 1645TIP3   OH2 4891   4.157   2.289   4.620
 1645TIP3    H1 4892   4.076   2.244   4.596
 1645TIP3    H2 4893   4.176   2.346   4.546
 1646TIP3   OH2 4894   3.033   0.250   4.154
 1646TIP3    H1 4895   3.079   0.333   4.144
 1646TIP3    H2 4896   3.049   0.203   4.073
 1647TIP3   OH2 4897   0.233   3.192   2.894
 1647TIP3    H1 4898   0.326   3.175   2.908
 1647TIP3    H2 4899   0.228   3.230   2.806
 1648TIP3   OH2 4900   1.248   5.723   0.333
 1648TIP3    H1 4901   1.204   5.793   0.381
 1648TIP3    H2 4902   1.178   5.678   0.287
 1649TIP3   OH2 4903   3.473   4.898   0.917
 1649TIP3    H1 4904   3.520   4.875   0.837
 1649TIP3    H2 4905   3.492   4.827   0.978
 1650TIP3   OH2 4906   4.941   2.215   6.698
 1650TIP3    H1 4907   5.011   2.259   6.746
 1650TIP3    H2 4908   4.864   2.223   6.754
 1651TIP3   OH2 4909   2.793   5.337   2.449
 1651TIP3    H1 4910   2.812   5.317   2.358
 1651TIP3    H2 4911   2.791   5.432   2.453
 1652TIP3   OH2 4912   2.480   7.463   5.059
 1652TIP3    H1 4913   2.436   7.466   5.144
 1652TIP3    H2 4914   2.502   7.371   5.047
 1653TIP3   OH2 4915   7.545   1.989   5.906
 1653TIP3    H1 4916   7.585   2.008   5.821
 1653TIP3    H2 4917   7.565   1.896   5.922
 1654TIP3   OH2 4918   0.126   2.941   5.296
 1654TIP3    H1 4919   0.121   2.935   5.391
 1654TIP3    H2 4920   0.035   2.949   5.267
 1655TIP3   OH2 4921   4.709   7.447   0.353
 1655TIP3    H1 4922   4.624   7.465   0.313
 1655TIP3    H2 4923   4.728   7.356   0.329
 1656TIP3   OH2 4924   1.904   6.105   6.601
 1656TIP3    H1 4925   1.861   6.189   6.621
 1656TIP3    H2 4926   1.947   6.081   6.683
 1657TIP3   OH2 4927   1.586   1.097   4.644
 1657TIP3    H1 4928   1.651   1.032   4.670
 1657TIP3    H2 4929   1.568   1.146   4.725
 1658TIP3   OH2 4930   0.812   7.090   4.034
 1658TIP3    H1 4931   0.815   7.000   4.002
 1658TIP3    H2 4932   0.797   7.143   3.956
 1659TIP3   OH2 4933   3.048   3.902   0.041
 1659TIP3    H1 4934   3.025   3.809   0.033
 1659TIP3    H2 4935   2.977   3.940   0.093
 1660TIP3   OH2 4936   0.284   0.873   5.489
 1660TIP3    H1 4937   0.232   0.845   5.414
 1660TIP3    H2 4938   0.314   0.791   5.529
 1661TIP3   OH2 4939   1.615   3.289   4.022
 1661TIP3    H1 4940   1.628   3.270   3.929
 1661TIP3    H2 4941   1.523   3.314   4.029
 1662TIP3   OH2 4942   4.402   4.458   0.981
 1662TIP3    H1 4943   4.339   4.476   1.051
 1662TIP3    H2 4944   4.477   4.514   1.002
 1663TIP3   OH2 4945   7.573   2.610   0.531
 1663TIP3    H1 4946   7.571   2.702   0.505
 1663TIP3    H2 4947   7.619   2.566   0.459
 1664TIP3   OH2 4948   3.413   1.292   1.908
 1664TIP3    H1 4949   3.480   1.233   1.875
 1664TIP3    H2 4950   3.336   1.237   1.920
 1665TIP3   OH2 4951   8.262   2.847   4.262
 1665TIP3    H1 4952   8.217   2.927   4.289
 1665TIP3    H2 4953   8.239   2.782   4.328
 1666TIP3   OH2 4954   6.734   6.483   2.294
 1666TIP3    H1 4955   6.792   6.510   2.223
 1666TIP3    H2 4956   6.654   6.454   2.250
 1667TIP3   OH2 4957   5.349   7.050   2.583
 1667TIP3    H1 4958   5.423   7.109   2.570
 1667TIP3    H2 4959   5.366   6.977   2.524
 1668TIP3   OH2 4960   6.907   2.814   4.141
 1668TIP3    H1 4961   6.886   2.907   4.137
 1668TIP3    H2 4962   6.907   2.786   4.049
 1669TIP3   OH2 4963   1.496   5.116   4.868
 1669TIP3    H1 4964   1.418   5.112   4.923
 1669TIP3    H2 4965   1.528   5.026   4.866
 1670TIP3   OH2 4966   5.036   0.414   3.552
 1670TIP3    H1 4967   5.089   0.393   3.475
 1670TIP3    H2 4968   5.077   0.365   3.623
 1671TIP3   OH2 4969   8.149   3.978   6.563
 1671TIP3    H1 4970   8.159   3.891   6.524
 1671TIP3    H2 4971   8.109   3.962   6.648
 1672TIP3   OH2 4972   6.769   6.741   5.738
 1672TIP3    H1 4973   6.768   6.824   5.785
 1672TIP3    H2 4974   6.692   6.745   5.681
 1673TIP3   OH2 4975   3.559   5.312   3.046
 1673TIP3    H1 4976   3.621   5.247   3.012
 1673TIP3    H2 4977   3.582   5.320   3.139
 1674TIP3   OH2 4978   3.230   3.545   1.019
 1674TIP3    H1 4979   3.296   3.475   1.020
 1674TIP3    H2 4980   3.200   3.549   0.928
 1675TIP3   OH2 4981   5.777   5.735   5.205
 1675TIP3    H1 4982   5.718   5.748   5.131
 1675TIP3    H2 4983   5.782   5.821   5.247
 1676TIP3   OH2 4984   6.708   3.474   5.998
 1676TIP3    H1 4985   6.624   3.505   6.031
 1676TIP3    H2 4986   6.755   3.443   6.076
 1677TIP3   OH2 4987   6.388   2.301   5.088
 1677TIP3    H1 4988   6.302   2.285   5.048
 1677TIP3    H2 4989   6.407   2.392   5.067
 1678TIP3   OH2 4990   0.923   6.997   1.694
 1678TIP3    H1 4991   0.967   7.067   1.743
 1678TIP3    H2 4992   0.835   7.031   1.679
 1679TIP3   OH2 4993   5.683   5.160   2.961
 1679TIP3    H1 4994   5.624   5.102   2.914
 1679TIP3    H2 4995   5.771   5.131   2.936
 1680TIP3   OH2 4996   4.468   4.575   3.900
 1680TIP3    H1 4997   4.471   4.577   3.805
 1680TIP3    H2 4998   4.541   4.631   3.927
 1681TIP3   OH2 4999   5.504   6.050   5.664
 1681TIP3    H1 5000   5.502   6.002   5.747
 1681TIP3    H2 5001   5.510   6.142   5.689
 1682TIP3   OH2 5002   4.240   1.902   3.945
 1682TIP3    H1 5003   4.248   1.844   4.021
 1682TIP3    H2 5004   4.254   1.989   3.980
 1683TIP3   OH2 5005   1.854   5.668   6.199
 1683TIP3    H1 5006   1.832   5.618   6.278
 1683TIP3    H2 5007   1.770   5.679   6.154
 1684TIP3   OH2 5008   4.913   6.235   5.054
 1684TIP3    H1 5009   4.882   6.192   4.974
 1684TIP3    H2 5010   4.838   6.234   5.113
 1685TIP3   OH2 5011   1.054   4.114   1.339
 1685TIP3    H1 5012   0.967   4.153   1.348
 1685TIP3    H2 5013   1.114   4.186   1.362
 1686TIP3   OH2 5014   4.731   6.865   4.874
 1686TIP3    H1 5015   4.815   6.877   4.830
 1686TIP3    H2 5016   4.682   6.945   4.855
 1687TIP3   OH2 5017   1.168   4.883   4.450
 1687TIP3    H1 5018   1.256   4.910   4.477
 1687TIP3    H2 5019   1.156   4.923   4.364
 1688TIP3   OH2 5020   5.830   4.708   5.265
 1688TIP3    H1 5021   5.847   4.616   5.242
 1688TIP3    H2 5022   5.784   4.744   5.189
 1689TIP3   OH2 5023   3.831   5.859   1.266
 1689TIP3    H1 5024   3.741   5.837   1.287
 1689TIP3    H2 5025   3.883   5.785   1.298
 1690TIP3   OH2 5026   0.978   0.396   4.805
 1690TIP3    H1 5027   0.944   0.484   4.793
 1690TIP3    H2 5028   0.935   0.364   4.884
 1691TIP3   OH2 5029   6.368   6.950   2.219
 1691TIP3    H1 5030   6.413   7.033   2.236
 1691TIP3    H2 5031   6.334   6.959   2.129
 1692TIP3   OH2 5032   1.281   7.193   3.492
 1692TIP3    H1 5033   1.339   7.227   3.425
 1692TIP3    H2 5034   1.218   7.263   3.507
 1693TIP3   OH2 5035   7.704   3.473   5.174
 1693TIP3    H1 5036   7.719   3.541   5.108
 1693TIP3    H2 5037   7.771   3.488   5.240
 1694TIP3   OH2 5038   6.789   6.209   5.423
 1694TIP3    H1 5039   6.727   6.243   5.487
 1694TIP3    H2 5040   6.779   6.267   5.348
 1695TIP3   OH2 5041   8.292   5.766   0.242
 1695TIP3    H1 5042   8.214   5.729   0.200
 1695TIP3    H2 5043   8.298   5.720   0.325
 1696TIP3   OH2 5044   4.251   4.697   3.615
 1696TIP3    H1 5045   4.210   4.695   3.529
 1696TIP3    H2 5046   4.328   4.641   3.605
 1697TIP3   OH2 5047   1.332   6.112   3.539
 1697TIP3    H1 5048   1.397   6.043   3.552
 1697TIP3    H2 5049   1.379   6.183   3.495
 1698TIP3   OH2 5050   7.224   1.696   2.516
 1698TIP3    H1 5051   7.194   1.611   2.548
 1698TIP3    H2 5052   7.148   1.734   2.472
 1699TIP3   OH2 5053   0.480   1.530   3.571
 1699TIP3    H1 5054   0.514   1.523   3.482
 1699TIP3    H2 5055   0.460   1.440   3.596
 1700TIP3   OH2 5056   5.523   7.380   5.698
 1700TIP3    H1 5057   5.431   7.357   5.713
 1700TIP3    H2 5058   5.565   7.367   5.782
 1701TIP3   OH2 5059   6.214   4.362   1.003
 1701TIP3    H1 5060   6.134   4.382   1.051
 1701TIP3    H2 5061   6.263   4.444   1.002
 1702TIP3   OH2 5062   2.357   0.458   0.104
 1702TIP3    H1 5063   2.397   0.373   0.122
 1702TIP3    H2 5064   2.273   0.456   0.149
 1703TIP3   OH2 5065   6.205   3.190   0.810
 1703TIP3    H1 5066   6.158   3.174   0.892
 1703TIP3    H2 5067   6.148   3.248   0.761
 1704TIP3   OH2 5068   3.965   1.469   1.873
 1704TIP3    H1 5069   3.945   1.502   1.785
 1704TIP3    H2 5070   3.938   1.540   1.932
 1705TIP3   OH2 5071   4.509   4.236   5.467
 1705TIP3    H1 5072   4.544   4.314   5.511
 1705TIP3    H2 5073   4.418   4.259   5.448
 1706TIP3   OH2 5074   4.778   4.233   6.072
 1706TIP3    H1 5075   4.871   4.213   6.084
 1706TIP3    H2 5076   4.736   4.203   6.152
 1707TIP3   OH2 5077   1.599   6.452   5.068
 1707TIP3    H1 5078   1.642   6.527   5.028
 1707TIP3    H2 5079   1.663   6.380   5.059
 1708TIP3   OH2 5080   3.764   2.383   0.442
 1708TIP3    H1 5081   3.801   2.433   0.369
 1708TIP3    H2 5082   3.831   2.388   0.510
 1709TIP3   OH2 5083   5.066   2.708   0.264
 1709TIP3    H1 5084   5.106   2.696   0.178
 1709TIP3    H2 5085   5.106   2.788   0.298
 1710TIP3   OH2 5086   6.190   5.436   5.072
 1710TIP3    H1 5087   6.152   5.440   4.984
 1710TIP3    H2 5088   6.271   5.386   5.061
 1711TIP3   OH2 5089   6.817   1.892   6.216
 1711TIP3    H1 5090   6.894   1.949   6.215
 1711TIP3    H2 5091   6.837   1.824   6.152
 1712TIP3   OH2 5092   6.458   5.440   1.233
 1712TIP3    H1 5093   6.553   5.450   1.225
 1712TIP3    H2 5094   6.446   5.351   1.266
 1713TIP3   OH2 5095   3.918   0.287   0.370
 1713TIP3    H1 5096   4.005   0.250   0.354
 1713TIP3    H2 5097   3.935   0.374   0.406
 1714TIP3   OH2 5098   1.354   7.732   0.187
 1714TIP3    H1 5099   1.305   7.768   0.261
 1714TIP3    H2 5100   1.291   7.675   0.142
 1715TIP3   OH2 5101   1.598   4.342   5.466
 1715TIP3    H1 5102   1.618   4.249   5.462
 1715TIP3    H2 5103   1.684   4.384   5.475
 1716TIP3   OH2 5104   7.441   5.193   5.417
 1716TIP3    H1 5105   7.446   5.206   5.511
 1716TIP3    H2 5106   7.347   5.186   5.398
 1717TIP3   OH2 5107   3.645   0.093   6.213
 1717TIP3    H1 5108   3.570   0.133   6.257
 1717TIP3    H2 5109   3.720   0.146   6.241
 1718TIP3   OH2 5110   2.771   5.945   4.568
 1718TIP3    H1 5111   2.841   6.007   4.545
 1718TIP3    H2 5112   2.750   5.965   4.659
 1719TIP3   OH2 5113   2.378   4.363   4.287
 1719TIP3    H1 5114   2.305   4.347   4.228
 1719TIP3    H2 5115   2.381   4.458   4.295
 1720TIP3   OH2 5116   8.120   7.219   1.112
 1720TIP3    H1 5117   8.141   7.144   1.168
 1720TIP3    H2 5118   8.073   7.280   1.169
 1721TIP3   OH2 5119   5.998   6.595   4.008
 1721TIP3    H1 5120   6.079   6.616   3.961
 1721TIP3    H2 5121   6.019   6.612   4.100
 1722TIP3   OH2 5122   7.551   4.394   0.225
 1722TIP3    H1 5123   7.483   4.366   0.286
 1722TIP3    H2 5124   7.605   4.456   0.275
 1723TIP3   OH2 5125   5.587   3.361   5.000
 1723TIP3    H1 5126   5.644   3.375   4.924
 1723TIP3    H2 5127   5.521   3.300   4.969
 1724TIP3   OH2 5128   7.827   0.636   5.095
 1724TIP3    H1 5129   7.837   0.661   5.003
 1724TIP3    H2 5130   7.917   0.631   5.129
 1725TIP3   OH2 5131   7.208   6.948   5.209
 1725TIP3    H1 5132   7.159   6.979   5.133
 1725TIP3    H2 5133   7.155   6.875   5.243
 1726TIP3   OH2 5134   6.446   7.134   1.302
 1726TIP3    H1 5135   6.501   7.176   1.236
 1726TIP3    H2 5136   6.500   7.130   1.380
 1727TIP3   OH2 5137   1.548   4.897   5.386
 1727TIP3    H1 5138   1.459   4.930   5.400
 1727TIP3    H2 5139   1.566   4.918   5.294
 1728TIP3   OH2 5140   5.638   5.517   3.284
 1728TIP3    H1 5141   5.678   5.491   3.201
 1728TIP3    H2 5142   5.709   5.510   3.347
 1729TIP3   OH2 5143   0.691   6.673   5.679
 1729TIP3    H1 5144   0.741   6.600   5.714
 1729TIP3    H2 5145   0.610   6.673   5.730
 1730TIP3   OH2 5146   1.853   3.686   1.754
 1730TIP3    H1 5147   1.861   3.692   1.659
 1730TIP3    H2 5148   1.927   3.631   1.781
 1731TIP3   OH2 5149   5.534   4.787   3.168
 1731TIP3    H1 5150   5.587   4.847   3.221
 1731TIP3    H2 5151   5.598   4.728   3.128
 1732TIP3   OH2 5152   5.861   0.803   2.410
 1732TIP3    H1 5153   5.872   0.780   2.502
 1732TIP3    H2 5154   5.767   0.793   2.394
 1733TIP3   OH2 5155   7.402   1.606   1.136
 1733TIP3    H1 5156   7.387   1.512   1.124
 1733TIP3    H2 5157   7.464   1.629   1.066
 1734TIP3   OH2 5158   4.919   6.324   3.436
 1734TIP3    H1 5159   4.838   6.373   3.453
 1734TIP3    H2 5160   4.889   6.237   3.410
 1735TIP3   OH2 5161   6.055   6.656   6.584
 1735TIP3    H1 5162   6.000   6.698   6.517
 1735TIP3    H2 5163   5.994   6.639   6.656
 1736TIP3   OH2 5164   2.190   1.509   1.635
 1736TIP3    H1 5165   2.149   1.594   1.620
 1736TIP3    H2 5166   2.149   1.450   1.571
 1737TIP3   OH2 5167   1.084   0.740   5.239
 1737TIP3    H1 5168   0.995   0.774   5.251
 1737TIP3    H2 5169   1.079   0.688   5.159
 1738TIP3   OH2 5170   0.858   1.266   4.359
 1738TIP3    H1 5171   0.950   1.257   4.334
 1738TIP3    H2 5172   0.820   1.322   4.291
 1739TIP3   OH2 5173   0.881   6.479   5.771
 1739TIP3    H1 5174   0.863   6.402   5.825
 1739TIP3    H2 5175   0.905   6.547   5.834
 1740TIP3   OH2 5176   4.310   5.432   3.942
 1740TIP3    H1 5177   4.298   5.520   3.906
 1740TIP3    H2 5178   4.381   5.394   3.891
 1741TIP3   OH2 5179   1.912   1.742   3.812
 1741TIP3    H1 5180   1.841   1.678   3.823
 1741TIP3    H2 5181   1.910   1.795   3.892
 1742TIP3   OH2 5182   1.587   4.099   0.359
 1742TIP3    H1 5183   1.518   4.112   0.293
 1742TIP3    H2 5184   1.592   4.004   0.369
 1743TIP3   OH2 5185   2.791   3.048   4.348
 1743TIP3    H1 5186   2.705   3.088   4.335
 1743TIP3    H2 5187   2.822   3.083   4.432
 1744TIP3   OH2 5188   4.179   0.423   6.265
 1744TIP3    H1 5189   4.155   0.336   6.233
 1744TIP3    H2 5190   4.258   0.446   6.215
 1745TIP3   OH2 5191   1.132   1.249   4.441
 1745TIP3    H1 5192   1.103   1.170   4.394
 1745TIP3    H2 5193   1.178   1.300   4.375
 1746TIP3   OH2 5194   1.805   1.437   5.483
 1746TIP3    H1 5195   1.841   1.349   5.470
 1746TIP3    H2 5196   1.716   1.422   5.516
 1747TIP3   OH2 5197   8.240   4.805   0.453
 1747TIP3    H1 5198   8.327   4.788   0.488
 1747TIP3    H2 5199   8.216   4.890   0.489
 1748TIP3   OH2 5200   1.012   5.167   4.224
 1748TIP3    H1 5201   1.009   5.250   4.176
 1748TIP3    H2 5202   1.104   5.142   4.222
 1749TIP3   OH2 5203   5.421   0.884   0.638
 1749TIP3    H1 5204   5.415   0.899   0.544
 1749TIP3    H2 5205   5.504   0.839   0.650
 1750TIP3   OH2 5206   7.680   4.624   3.845
 1750TIP3    H1 5207   7.687   4.528   3.844
 1750TIP3    H2 5208   7.589   4.642   3.824
 1751TIP3   OH2 5209   2.402   2.591   2.529
 1751TIP3    H1 5210   2.494   2.589   2.504
 1751TIP3    H2 5211   2.386   2.506   2.569
 1752TIP3   OH2 5212   2.593   0.097   6.609
 1752TIP3    H1 5213   2.528   0.043   6.653
 1752TIP3    H2 5214   2.666   0.038   6.591
 1753TIP3   OH2 5215   6.575   6.665   2.024
 1753TIP3    H1 5216   6.535   6.581   2.044
 1753TIP3    H2 5217   6.616   6.653   1.939
 1754TIP3   OH2 5218   7.273   1.556   3.166
 1754TIP3    H1 5219   7.367   1.539   3.169
 1754TIP3    H2 5220   7.252   1.558   3.073
 1755TIP3   OH2 5221   2.246   1.531   0.147
 1755TIP3    H1 5222   2.215   1.620   0.133
 1755TIP3    H2 5223   2.189   1.476   0.093
 1756TIP3   OH2 5224   2.933   4.269   0.718
 1756TIP3    H1 5225   2.961   4.345   0.667
 1756TIP3    H2 5226   2.987   4.272   0.797
 1757TIP3   OH2 5227   4.221   6.905   0.148
 1757TIP3    H1 5228   4.250   6.972   0.209
 1757TIP3    H2 5229   4.215   6.950   0.063
 1758TIP3   OH2 5230   7.381   3.037   1.290
 1758TIP3    H1 5231   7.295   3.062   1.256
 1758TIP3    H2 5232   7.442   3.069   1.223
 1759TIP3   OH2 5233   3.205   7.596   2.919
 1759TIP3    H1 5234   3.135   7.594   2.853
 1759TIP3    H2 5235   3.282   7.565   2.872
 1760TIP3   OH2 5236   5.909   3.403   0.069
 1760TIP3    H1 5237   5.840   3.369   0.126
 1760TIP3    H2 5238   5.990   3.366   0.105
 1761TIP3   OH2 5239   2.805   3.108   0.217
 1761TIP3    H1 5240   2.817   3.014   0.216
 1761TIP3    H2 5241   2.808   3.133   0.309
 1762TIP3   OH2 5242   1.595   1.880   6.321
 1762TIP3    H1 5243   1.519   1.922   6.281
 1762TIP3    H2 5244   1.613   1.804   6.266
 1763TIP3   OH2 5245   6.920   5.117   4.005
 1763TIP3    H1 5246   6.852   5.061   3.969
 1763TIP3    H2 5247   6.918   5.100   4.099
 1764TIP3   OH2 5248   5.697   3.450   2.205
 1764TIP3    H1 5249   5.727   3.536   2.177
 1764TIP3    H2 5250   5.776   3.395   2.202
 1765TIP3   OH2 5251   3.592   0.786   1.284
 1765TIP3    H1 5252   3.510   0.765   1.329
 1765TIP3    H2 5253   3.613   0.875   1.313
 1766TIP3   OH2 5254   7.475   1.511   6.106
 1766TIP3    H1 5255   7.565   1.480   6.109
 1766TIP3    H2 5256   7.422   1.432   6.093
 1767TIP3   OH2 5257   7.703   1.687   0.670
 1767TIP3    H1 5258   7.751   1.767   0.651
 1767TIP3    H2 5259   7.701   1.640   0.587
 1768TIP3   OH2 5260   1.280   4.432   2.803
 1768TIP3    H1 5261   1.359   4.468   2.764
 1768TIP3    H2 5262   1.210   4.490   2.772
 1769TIP3   OH2 5263   7.630   4.176   1.593
 1769TIP3    H1 5264   7.721   4.197   1.614
 1769TIP3    H2 5265   7.605   4.240   1.527
 1770TIP3   OH2 5266   1.086   1.876   5.528
 1770TIP3    H1 5267   1.158   1.935   5.550
 1770TIP3    H2 5268   1.066   1.897   5.437
 1771TIP3   OH2 5269   2.885   3.038   2.371
 1771TIP3    H1 5270   2.837   3.062   2.291
 1771TIP3    H2 5271   2.948   2.972   2.342
 1772TIP3   OH2 5272   4.840   2.801   1.544
 1772TIP3    H1 5273   4.806   2.714   1.566
 1772TIP3    H2 5274   4.770   2.842   1.493
 1773TIP3   OH2 5275   0.979   1.100   1.699
 1773TIP3    H1 5276   1.059   1.047   1.704
 1773TIP3    H2 5277   1.006   1.181   1.656
 1774TIP3   OH2 5278   7.845   6.736   5.219
 1774TIP3    H1 5279   7.906   6.810   5.211
 1774TIP3    H2 5280   7.763   6.770   5.185
 1775TIP3   OH2 5281   4.205   7.398   5.191
 1775TIP3    H1 5282   4.156   7.316   5.190
 1775TIP3    H2 5283   4.278   7.384   5.131
 1776TIP3   OH2 5284   2.452   0.632   0.317
 1776TIP3    H1 5285   2.402   0.572   0.373
 1776TIP3    H2 5286   2.482   0.577   0.245
 1777TIP3   OH2 5287   1.193   5.423   6.385
 1777TIP3    H1 5288   1.140   5.343   6.385
 1777TIP3    H2 5289   1.132   5.492   6.357
 1778TIP3   OH2 5290   6.885   6.489   3.667
 1778TIP3    H1 5291   6.875   6.537   3.750
 1778TIP3    H2 5292   6.918   6.554   3.605
 1779TIP3   OH2 5293   2.792   6.965   5.691
 1779TIP3    H1 5294   2.850   7.033   5.724
 1779TIP3    H2 5295   2.841   6.884   5.704
 1780TIP3   OH2 5296   8.114   5.335   3.812
 1780TIP3    H1 5297   8.139   5.243   3.817
 1780TIP3    H2 5298   8.160   5.368   3.734
 1781TIP3   OH2 5299   7.185   2.034   1.512
 1781TIP3    H1 5300   7.254   2.067   1.453
 1781TIP3    H2 5301   7.163   1.948   1.477
 1782TIP3   OH2 5302   1.821   1.566   3.105
 1782TIP3    H1 5303   1.808   1.475   3.078
 1782TIP3    H2 5304   1.916   1.579   3.103
 1783TIP3   OH2 5305   4.877   0.083   3.794
 1783TIP3    H1 5306   4.910  -0.007   3.796
 1783TIP3    H2 5307   4.951   0.137   3.822
 1784TIP3   OH2 5308   5.936   0.034   3.692
 1784TIP3    H1 5309   6.028   0.033   3.718
 1784TIP3    H2 5310   5.889   0.003   3.770
 1785TIP3   OH2 5311   4.986   5.322   6.381
 1785TIP3    H1 5312   4.979   5.387   6.451
 1785TIP3    H2 5313   4.897   5.318   6.344
 1786TIP3   OH2 5314   5.967   0.096   2.837
 1786TIP3    H1 5315   6.059   0.109   2.814
 1786TIP3    H2 5316   5.919   0.122   2.758
 1787TIP3   OH2 5317   1.639   0.963   2.465
 1787TIP3    H1 5318   1.595   0.988   2.383
 1787TIP3    H2 5319   1.568   0.954   2.528
 1788TIP3   OH2 5320   8.062   0.018   4.845
 1788TIP3    H1 5321   7.991   0.082   4.840
 1788TIP3    H2 5322   8.056  -0.016   4.934
 1789TIP3   OH2 5323   5.991   6.166   3.247
 1789TIP3    H1 5324   5.994   6.135   3.156
 1789TIP3    H2 5325   5.940   6.247   3.244
 1790TIP3   OH2 5326   1.478   6.640   2.479
 1790TIP3    H1 5327   1.499   6.729   2.508
 1790TIP3    H2 5328   1.458   6.593   2.559
 1791TIP3   OH2 5329   5.123   6.305   5.687
 1791TIP3    H1 5330   5.096   6.215   5.704
 1791TIP3    H2 5331   5.132   6.311   5.592
 1792TIP3   OH2 5332   3.933   0.674   3.122
 1792TIP3    H1 5333   3.970   0.589   3.099
 1792TIP3    H2 5334   3.992   0.738   3.083
 1793TIP3   OH2 5335   3.876   1.214   3.978
 1793TIP3    H1 5336   3.918   1.209   3.893
 1793TIP3    H2 5337   3.828   1.296   3.977
 1794TIP3   OH2 5338   0.516   2.151   5.073
 1794TIP3    H1 5339   0.433   2.106   5.090
 1794TIP3    H2 5340   0.530   2.142   4.979
 1795TIP3   OH2 5341   6.571   4.497   1.073
 1795TIP3    H1 5342   6.622   4.417   1.084
 1795TIP3    H2 5343   6.563   4.533   1.162
 1796TIP3   OH2 5344   7.109   6.453   6.537
 1796TIP3    H1 5345   7.185   6.504   6.563
 1796TIP3    H2 5346   7.089   6.482   6.448
 1797TIP3   OH2 5347   3.221   6.105   0.873
 1797TIP3    H1 5348   3.214   6.096   0.968
 1797TIP3    H2 5349   3.131   6.118   0.843
 1798TIP3   OH2 5350   7.609   3.432   2.567
 1798TIP3    H1 5351   7.581   3.509   2.615
 1798TIP3    H2 5352   7.705   3.439   2.564
 1799TIP3   OH2 5353   3.306   2.651   1.468
 1799TIP3    H1 5354   3.246   2.597   1.518
 1799TIP3    H2 5355   3.373   2.591   1.437
 1800TIP3   OH2 5356   3.001   4.002   1.736
 1800TIP3    H1 5357   3.052   4.062   1.683
 1800TIP3    H2 5358   3.054   3.922   1.741
 1801TIP3   OH2 5359   4.546   0.171   6.188
 1801TIP3    H1 5360   4.552   0.160   6.283
 1801TIP3    H2 5361   4.514   0.260   6.176
 1802TIP3   OH2 5362   0.431   3.679   5.963
 1802TIP3    H1 5363   0.336   3.673   5.969
 1802TIP3    H2 5364   0.461   3.686   6.053
 1803TIP3   OH2 5365   0.143   1.816   5.388
 1803TIP3    H1 5366   0.149   1.891   5.448
 1803TIP3    H2 5367   0.106   1.853   5.308
 1804TIP3   OH2 5368   7.455   5.787   1.489
 1804TIP3    H1 5369   7.397   5.770   1.563
 1804TIP3    H2 5370   7.436   5.717   1.427
 1805TIP3   OH2 5371   2.319   5.850   4.061
 1805TIP3    H1 5372   2.412   5.865   4.049
 1805TIP3    H2 5373   2.302   5.768   4.016
 1806TIP3   OH2 5374   7.530   7.414   4.238
 1806TIP3    H1 5375   7.443   7.454   4.236
 1806TIP3    H2 5376   7.574   7.447   4.159
 1807TIP3   OH2 5377   2.433   5.840   0.896
 1807TIP3    H1 5378   2.339   5.852   0.883
 1807TIP3    H2 5379   2.459   5.914   0.952
 1808TIP3   OH2 5380   2.265   5.767   0.460
 1808TIP3    H1 5381   2.291   5.857   0.441
 1808TIP3    H2 5382   2.300   5.715   0.388
 1809TIP3   OH2 5383   2.787   4.716   5.905
 1809TIP3    H1 5384   2.817   4.802   5.876
 1809TIP3    H2 5385   2.761   4.729   5.996
 1810TIP3   OH2 5386   6.645   0.728   5.691
 1810TIP3    H1 5387   6.720   0.693   5.644
 1810TIP3    H2 5388   6.682   0.779   5.762
 1811TIP3   OH2 5389   3.307   7.098   1.604
 1811TIP3    H1 5390   3.266   7.037   1.665
 1811TIP3    H2 5391   3.241   7.110   1.535
 1812TIP3   OH2 5392   6.377   6.907   3.419
 1812TIP3    H1 5393   6.373   6.974   3.350
 1812TIP3    H2 5394   6.304   6.849   3.400
 1813TIP3   OH2 5395   0.583   2.365   5.875
 1813TIP3    H1 5396   0.626   2.430   5.931
 1813TIP3    H2 5397   0.636   2.363   5.795
 1814TIP3   OH2 5398   1.899   3.493   5.058
 1814TIP3    H1 5399   1.840   3.418   5.061
 1814TIP3    H2 5400   1.881   3.541   5.139
 1815TIP3   OH2 5401   4.974   4.581   5.025
 1815TIP3    H1 5402   5.006   4.640   5.094
 1815TIP3    H2 5403   4.948   4.640   4.954
 1816TIP3   OH2 5404   2.847   0.935   1.674
 1816TIP3    H1 5405   2.920   0.976   1.720
 1816TIP3    H2 5406   2.787   1.006   1.654
 1817TIP3   OH2 5407   2.150   4.055   3.750
 1817TIP3    H1 5408   2.113   4.057   3.662
 1817TIP3    H2 5409   2.157   3.962   3.771
 1818TIP3   OH2 5410   7.941   1.602   1.661
 1818TIP3    H1 5411   7.873   1.535   1.652
 1818TIP3    H2 5412   7.894   1.680   1.688
 1819TIP3   OH2 5413   4.595   6.191   3.238
 1819TIP3    H1 5414   4.669   6.153   3.285
 1819TIP3    H2 5415   4.568   6.266   3.291
 1820TIP3   OH2 5416   5.053   2.925   1.847
 1820TIP3    H1 5417   5.016   2.863   1.909
 1820TIP3    H2 5418   4.980   2.980   1.821
 1821TIP3   OH2 5419   1.507   0.151   4.091
 1821TIP3    H1 5420   1.455   0.230   4.077
 1821TIP3    H2 5421   1.595   0.183   4.110
 1822TIP3   OH2 5422   3.047   2.426   1.103
 1822TIP3    H1 5423   3.072   2.505   1.151
 1822TIP3    H2 5424   3.021   2.364   1.171
 1823TIP3   OH2 5425   4.103   3.150   6.362
 1823TIP3    H1 5426   4.129   3.209   6.433
 1823TIP3    H2 5427   4.182   3.140   6.308
 1824TIP3   OH2 5428   1.670   0.365   2.578
 1824TIP3    H1 5429   1.693   0.438   2.636
 1824TIP3    H2 5430   1.585   0.389   2.542
 1825TIP3   OH2 5431   7.042   4.471   4.250
 1825TIP3    H1 5432   7.080   4.512   4.172
 1825TIP3    H2 5433   7.030   4.542   4.312
 1826TIP3   OH2 5434   0.776   2.386   2.163
 1826TIP3    H1 5435   0.724   2.466   2.152
 1826TIP3    H2 5436   0.861   2.417   2.193
 1827TIP3   OH2 5437   2.046   2.075   6.609
 1827TIP3    H1 5438   1.965   2.033   6.580
 1827TIP3    H2 5439   2.116   2.028   6.565
 1828TIP3   OH2 5440   0.960   2.221   0.285
 1828TIP3    H1 5441   0.909   2.296   0.254
 1828TIP3    H2 5442   0.901   2.146   0.274
 1829TIP3   OH2 5443   2.002   3.894   4.652
 1829TIP3    H1 5444   2.066   3.919   4.719
 1829TIP3    H2 5445   2.029   3.941   4.573
 1830TIP3   OH2 5446   6.831   5.189   1.493
 1830TIP3    H1 5447   6.826   5.094   1.501
 1830TIP3    H2 5448   6.784   5.223   1.569
 1831TIP3   OH2 5449   6.076   0.135   4.313
 1831TIP3    H1 5450   6.068   0.103   4.403
 1831TIP3    H2 5451   6.117   0.221   4.321
 1832TIP3   OH2 5452   3.309   4.002   0.144
 1832TIP3    H1 5453   3.356   3.922   0.171
 1832TIP3    H2 5454   3.219   3.972   0.128
 1833TIP3   OH2 5455   1.822   4.706   2.584
 1833TIP3    H1 5456   1.787   4.617   2.594
 1833TIP3    H2 5457   1.749   4.763   2.607
 1834TIP3   OH2 5458   7.322   4.111   2.303
 1834TIP3    H1 5459   7.267   4.071   2.236
 1834TIP3    H2 5460   7.411   4.091   2.275
 1835TIP3   OH2 5461   7.319   2.450   2.857
 1835TIP3    H1 5462   7.303   2.359   2.834
 1835TIP3    H2 5463   7.313   2.497   2.774
 1836TIP3   OH2 5464   5.327   0.834   5.751
 1836TIP3    H1 5465   5.297   0.760   5.698
 1836TIP3    H2 5466   5.411   0.806   5.787
 1837TIP3   OH2 5467   4.170   2.491   1.275
 1837TIP3    H1 5468   4.134   2.459   1.193
 1837TIP3    H2 5469   4.106   2.555   1.306
 1838TIP3   OH2 5470   5.457   4.115   5.953
 1838TIP3    H1 5471   5.531   4.097   5.896
 1838TIP3    H2 5472   5.399   4.040   5.942
 1839TIP3   OH2 5473   0.131   6.164   1.291
 1839TIP3    H1 5474   0.077   6.242   1.303
 1839TIP3    H2 5475   0.220   6.199   1.278
 1840TIP3   OH2 5476   2.870   1.879   4.619
 1840TIP3    H1 5477   2.860   1.797   4.668
 1840TIP3    H2 5478   2.781   1.901   4.590
 1841TIP3   OH2 5479   5.690   5.432   3.041
 1841TIP3    H1 5480   5.628   5.449   2.970
 1841TIP3    H2 5481   5.679   5.339   3.061
 1842TIP3   OH2 5482   0.015   6.022   0.940
 1842TIP3    H1 5483  -0.036   5.944   0.918
 1842TIP3    H2 5484  -0.043   6.072   0.999
 1843TIP3   OH2 5485   2.287   4.045   6.381
 1843TIP3    H1 5486   2.353   4.110   6.407
 1843TIP3    H2 5487   2.324   3.961   6.408
 1844TIP3   OH2 5488   5.113   5.921   4.964
 1844TIP3    H1 5489   5.177   5.991   4.954
 1844TIP3    H2 5490   5.136   5.858   4.896
 1845TIP3   OH2 5491   4.502   3.417   1.432
 1845TIP3    H1 5492   4.512   3.512   1.425
 1845TIP3    H2 5493   4.519   3.398   1.525
 1846TIP3   OH2 5494   4.427   7.365   3.032
 1846TIP3    H1 5495   4.409   7.303   2.962
 1846TIP3    H2 5496   4.470   7.439   2.989
 1847TIP3   OH2 5497   5.240   3.831   3.102
 1847TIP3    H1 5498   5.179   3.798   3.168
 1847TIP3    H2 5499   5.325   3.794   3.127
 1848TIP3   OH2 5500   0.675   2.921   3.879
 1848TIP3    H1 5501   0.708   2.852   3.937
 1848TIP3    H2 5502   0.601   2.958   3.926
 1849TIP3   OH2 5503   6.881   3.571   5.132
 1849TIP3    H1 5504   6.909   3.481   5.117
 1849TIP3    H2 5505   6.873   3.578   5.227
 1850TIP3   OH2 5506   3.449   6.570   3.531
 1850TIP3    H1 5507   3.384   6.569   3.600
 1850TIP3    H2 5508   3.431   6.651   3.482
 1851TIP3   OH2 5509   3.805   1.084   0.446
 1851TIP3    H1 5510   3.756   1.017   0.493
 1851TIP3    H2 5511   3.849   1.037   0.375
 1852TIP3   OH2 5512   2.612   1.067   3.639
 1852TIP3    H1 5513   2.531   1.064   3.691
 1852TIP3    H2 5514   2.681   1.046   3.702
 1853TIP3   OH2 5515   5.268   6.727   4.083
 1853TIP3    H1 5516   5.228   6.642   4.065
 1853TIP3    H2 5517   5.361   6.714   4.064
 1854TIP3   OH2 5518   6.054   0.448   1.106
 1854TIP3    H1 5519   6.105   0.507   1.051
 1854TIP3    H2 5520   6.057   0.364   1.060
 1855TIP3   OH2 5521   2.854   7.403   5.247
 1855TIP3    H1 5522   2.772   7.414   5.294
 1855TIP3    H2 5523   2.856   7.478   5.186
 1856TIP3   OH2 5524   3.861   7.174   3.448
 1856TIP3    H1 5525   3.941   7.225   3.461
 1856TIP3    H2 5526   3.886   7.085   3.470
 1857TIP3   OH2 5527   7.491   3.667   3.789
 1857TIP3    H1 5528   7.407   3.655   3.745
 1857TIP3    H2 5529   7.546   3.712   3.724
 1858TIP3   OH2 5530   3.594   1.435   2.927
 1858TIP3    H1 5531   3.674   1.465   2.883
 1858TIP3    H2 5532   3.529   1.430   2.858
 1859TIP3   OH2 5533   1.951   7.071   1.967
 1859TIP3    H1 5534   1.883   7.045   2.030
 1859TIP3    H2 5535   1.969   7.162   1.989
 1860TIP3   OH2 5536   0.705   4.766   3.953
 1860TIP3    H1 5537   0.732   4.784   3.863
 1860TIP3    H2 5538   0.777   4.799   4.006
 1861TIP3   OH2 5539   2.773   5.774   0.368
 1861TIP3    H1 5540   2.744   5.683   0.378
 1861TIP3    H2 5541   2.779   5.807   0.458
 1862TIP3   OH2 5542   2.374   7.722   3.055
 1862TIP3    H1 5543   2.363   7.810   3.091
 1862TIP3    H2 5544   2.298   7.709   2.998
 1863TIP3   OH2 5545   3.839   5.262   4.438
 1863TIP3    H1 5546   3.809   5.179   4.402
 1863TIP3    H2 5547   3.759   5.307   4.466
 1864TIP3   OH2 5548   0.864   0.549   1.886
 1864TIP3    H1 5549   0.841   0.505   1.805
 1864TIP3    H2 5550   0.814   0.630   1.884
 1865TIP3   OH2 5551   8.058   5.929   2.603
 1865TIP3    H1 5552   8.022   5.914   2.691
 1865TIP3    H2 5553   8.150   5.951   2.620
 1866TIP3   OH2 5554   2.598   2.522   1.710
 1866TIP3    H1 5555   2.567   2.441   1.750
 1866TIP3    H2 5556   2.629   2.575   1.784
 1867TIP3   OH2 5557   7.272   3.670   2.403
 1867TIP3    H1 5558   7.244   3.650   2.313
 1867TIP3    H2 5559   7.357   3.712   2.393
 1868TIP3   OH2 5560   1.914   6.702   3.971
 1868TIP3    H1 5561   1.867   6.759   3.912
 1868TIP3    H2 5562   2.006   6.712   3.947
 1869TIP3   OH2 5563   0.287   4.791   0.163
 1869TIP3    H1 5564   0.208   4.846   0.162
 1869TIP3    H2 5565   0.358   4.850   0.139
 1870TIP3   OH2 5566   4.498   0.991   3.922
 1870TIP3    H1 5567   4.544   1.065   3.882
 1870TIP3    H2 5568   4.540   0.914   3.885
 1871TIP3   OH2 5569   1.761   2.152   3.346
 1871TIP3    H1 5570   1.732   2.110   3.426
 1871TIP3    H2 5571   1.801   2.082   3.295
 1872TIP3   OH2 5572   7.278   7.127   2.575
 1872TIP3    H1 5573   7.211   7.065   2.604
 1872TIP3    H2 5574   7.247   7.212   2.607
 1873TIP3   OH2 5575   7.785   5.752   1.977
 1873TIP3    H1 5576   7.834   5.750   1.894
 1873TIP3    H2 5577   7.693   5.747   1.950
 1874TIP3   OH2 5578   3.005   7.825   3.235
 1874TIP3    H1 5579   3.093   7.793   3.213
 1874TIP3    H2 5580   2.946   7.760   3.198
 1875TIP3   OH2 5581   2.588   3.352   5.352
 1875TIP3    H1 5582   2.658   3.334   5.289
 1875TIP3    H2 5583   2.608   3.439   5.385
 1876TIP3   OH2 5584   5.016   3.398   3.921
 1876TIP3    H1 5585   4.944   3.462   3.926
 1876TIP3    H2 5586   5.050   3.394   4.011
 1877TIP3   OH2 5587   7.146   6.441   3.701
 1877TIP3    H1 5588   7.057   6.437   3.666
 1877TIP3    H2 5589   7.188   6.361   3.670
 1878TIP3   OH2 5590   7.686   3.102   3.621
 1878TIP3    H1 5591   7.761   3.068   3.573
 1878TIP3    H2 5592   7.626   3.133   3.553
 1879TIP3   OH2 5593   2.907   3.644   4.649
 1879TIP3    H1 5594   2.932   3.626   4.740
 1879TIP3    H2 5595   2.811   3.643   4.651
 1880TIP3   OH2 5596   6.784   3.379   4.322
 1880TIP3    H1 5597   6.750   3.393   4.410
 1880TIP3    H2 5598   6.851   3.312   4.333
 1881TIP3   OH2 5599   2.321   3.182   2.502
 1881TIP3    H1 5600   2.249   3.119   2.497
 1881TIP3    H2 5601   2.395   3.137   2.460
 1882TIP3   OH2 5602   4.628   7.110   4.827
 1882TIP3    H1 5603   4.611   7.161   4.748
 1882TIP3    H2 5604   4.652   7.175   4.894
 1883TIP3   OH2 5605   5.545   3.491   1.513
 1883TIP3    H1 5606   5.489   3.521   1.584
 1883TIP3    H2 5607   5.633   3.490   1.550
 1884TIP3   OH2 5608   0.628   7.580   0.413
 1884TIP3    H1 5609   0.699   7.645   0.417
 1884TIP3    H2 5610   0.614   7.555   0.505
 1885TIP3   OH2 5611   6.637   5.752   0.255
 1885TIP3    H1 5612   6.643   5.657   0.261
 1885TIP3    H2 5613   6.701   5.785   0.317
 1886TIP3   OH2 5614   1.913   5.613   3.794
 1886TIP3    H1 5615   1.955   5.609   3.708
 1886TIP3    H2 5616   1.931   5.527   3.833
 1887TIP3   OH2 5617   6.084   3.028   3.356
 1887TIP3    H1 5618   6.081   2.933   3.360
 1887TIP3    H2 5619   6.033   3.057   3.432
 1888TIP3   OH2 5620   1.826   7.481   0.546
 1888TIP3    H1 5621   1.844   7.409   0.606
 1888TIP3    H2 5622   1.901   7.539   0.554
 1889TIP3   OH2 5623   1.763   2.242   4.391
 1889TIP3    H1 5624   1.691   2.281   4.341
 1889TIP3    H2 5625   1.815   2.316   4.421
 1890TIP3   OH2 5626   6.532   2.138   3.422
 1890TIP3    H1 5627   6.526   2.212   3.362
 1890TIP3    H2 5628   6.465   2.077   3.391
 1891TIP3   OH2 5629   7.495   1.073   6.278
 1891TIP3    H1 5630   7.483   1.165   6.258
 1891TIP3    H2 5631   7.589   1.058   6.269
 1892TIP3   OH2 5632   1.662   3.628   4.838
 1892TIP3    H1 5633   1.597   3.569   4.800
 1892TIP3    H2 5634   1.734   3.571   4.864
 1893TIP3   OH2 5635   7.685   4.437   0.618
 1893TIP3    H1 5636   7.596   4.448   0.650
 1893TIP3    H2 5637   7.697   4.508   0.555
 1894TIP3   OH2 5638   3.402   6.353   3.134
 1894TIP3    H1 5639   3.354   6.343   3.052
 1894TIP3    H2 5640   3.454   6.433   3.121
 1895TIP3   OH2 5641   5.250   5.534   4.299
 1895TIP3    H1 5642   5.271   5.569   4.212
 1895TIP3    H2 5643   5.273   5.605   4.359
 1896TIP3   OH2 5644   2.352   2.005   1.321
 1896TIP3    H1 5645   2.282   1.962   1.273
 1896TIP3    H2 5646   2.432   1.962   1.291
 1897TIP3   OH2 5647   2.118   0.016   2.674
 1897TIP3    H1 5648   2.144   0.029   2.765
 1897TIP3    H2 5649   2.176   0.072   2.623
 1898TIP3   OH2 5650   4.760   3.413   5.641
 1898TIP3    H1 5651   4.750   3.490   5.585
 1898TIP3    H2 5652   4.776   3.449   5.728
 1899TIP3   OH2 5653   0.650   4.743   5.956
 1899TIP3    H1 5654   0.684   4.791   5.881
 1899TIP3    H2 5655   0.590   4.805   5.999
 1900TIP3   OH2 5656   0.815   6.614   3.416
 1900TIP3    H1 5657   0.808   6.535   3.362
 1900TIP3    H2 5658   0.803   6.583   3.506
 1901TIP3   OH2 5659   0.727   7.767   1.682
 1901TIP3    H1 5660   0.640   7.756   1.722
 1901TIP3    H2 5661   0.708   7.796   1.593
 1902TIP3   OH2 5662   0.798   7.646  -0.008
 1902TIP3    H1 5663   0.726   7.601   0.036
 1902TIP3    H2 5664   0.874   7.590   0.006
 1903TIP3   OH2 5665   6.740   2.108   4.173
 1903TIP3    H1 5666   6.834   2.106   4.190
 1903TIP3    H2 5667   6.716   2.201   4.184
 1904TIP3   OH2 5668   3.344   3.365   3.477
 1904TIP3    H1 5669   3.331   3.455   3.447
 1904TIP3    H2 5670   3.426   3.367   3.526
 1905TIP3   OH2 5671   1.755   1.198   3.171
 1905TIP3    H1 5672   1.815   1.220   3.100
 1905TIP3    H2 5673   1.728   1.108   3.153
 1906TIP3   OH2 5674   7.831   4.573   5.783
 1906TIP3    H1 5675   7.834   4.525   5.701
 1906TIP3    H2 5676   7.872   4.658   5.763
 1907TIP3   OH2 5677   7.768   3.417   4.236
 1907TIP3    H1 5678   7.687   3.408   4.285
 1907TIP3    H2 5679   7.822   3.344   4.266
 1908TIP3   OH2 5680   4.459   5.513   4.917
 1908TIP3    H1 5681   4.401   5.580   4.882
 1908TIP3    H2 5682   4.430   5.431   4.876
 1909TIP3   OH2 5683   5.732   6.477   4.496
 1909TIP3    H1 5684   5.726   6.542   4.425
 1909TIP3    H2 5685   5.825   6.454   4.500
 1910TIP3   OH2 5686   7.616   6.247   4.629
 1910TIP3    H1 5687   7.657   6.333   4.626
 1910TIP3    H2 5688   7.659   6.202   4.701
 1911TIP3   OH2 5689   1.241   3.524   1.483
 1911TIP3    H1 5690   1.155   3.506   1.445
 1911TIP3    H2 5691   1.237   3.487   1.571
 1912TIP3   OH2 5692   6.268   4.533   6.252
 1912TIP3    H1 5693   6.323   4.561   6.179
 1912TIP3    H2 5694   6.304   4.577   6.329
 1913TIP3   OH2 5695   0.902   0.578   4.525
 1913TIP3    H1 5696   0.861   0.492   4.530
 1913TIP3    H2 5697   0.895   0.603   4.432
 1914TIP3   OH2 5698   2.468   6.050   0.035
 1914TIP3    H1 5699   2.545   6.068   0.089
 1914TIP3    H2 5700   2.501   5.998  -0.038
 1915TIP3   OH2 5701   1.628   0.486   0.340
 1915TIP3    H1 5702   1.648   0.571   0.302
 1915TIP3    H2 5703   1.596   0.434   0.266
 1916TIP3   OH2 5704   2.235   4.857   5.401
 1916TIP3    H1 5705   2.247   4.866   5.307
 1916TIP3    H2 5706   2.321   4.833   5.435
 1917TIP3   OH2 5707   3.495   2.396   5.787
 1917TIP3    H1 5708   3.461   2.410   5.875
 1917TIP3    H2 5709   3.481   2.480   5.743
 1918TIP3   OH2 5710   3.798   3.123   1.102
 1918TIP3    H1 5711   3.741   3.194   1.071
 1918TIP3    H2 5712   3.796   3.130   1.197
 1919TIP3   OH2 5713   3.398   3.323   1.135
 1919TIP3    H1 5714   3.466   3.281   1.187
 1919TIP3    H2 5715   3.317   3.308   1.183
 1920TIP3   OH2 5716   7.868   7.809   0.095
 1920TIP3    H1 5717   7.788   7.844   0.134
 1920TIP3    H2 5718   7.847   7.796   0.003
 1921TIP3   OH2 5719   1.662   1.130   5.199
 1921TIP3    H1 5720   1.568   1.120   5.213
 1921TIP3    H2 5721   1.669   1.198   5.132
 1922TIP3   OH2 5722   0.502   1.534   1.058
 1922TIP3    H1 5723   0.449   1.605   1.022
 1922TIP3    H2 5724   0.439   1.467   1.083
 1923TIP3   OH2 5725   1.555   7.412   0.007
 1923TIP3    H1 5726   1.548   7.355   0.084
 1923TIP3    H2 5727   1.562   7.351  -0.067
 1924TIP3   OH2 5728   6.475   7.736   5.549
 1924TIP3    H1 5729   6.536   7.777   5.488
 1924TIP3    H2 5730   6.455   7.651   5.510
 1925TIP3   OH2 5731   3.825   5.564   5.389
 1925TIP3    H1 5732   3.816   5.590   5.481
 1925TIP3    H2 5733   3.775   5.629   5.341
 1926TIP3   OH2 5734   3.246   1.329   1.005
 1926TIP3    H1 5735   3.235   1.310   1.098
 1926TIP3    H2 5736   3.334   1.367   0.999
 1927TIP3   OH2 5737   4.242   5.496   5.641
 1927TIP3    H1 5738   4.185   5.558   5.595
 1927TIP3    H2 5739   4.327   5.504   5.598
 1928TIP3   OH2 5740   0.812   0.549   3.755
 1928TIP3    H1 5741   0.779   0.510   3.836
 1928TIP3    H2 5742   0.735   0.589   3.714
 1929TIP3   OH2 5743   5.140   6.863   6.659
 1929TIP3    H1 5744   5.151   6.954   6.632
 1929TIP3    H2 5745   5.216   6.817   6.622
 1930TIP3   OH2 5746   6.223   4.576   1.260
 1930TIP3    H1 5747   6.289   4.594   1.193
 1930TIP3    H2 5748   6.267   4.519   1.323
 1931TIP3   OH2 5749   5.473   3.621   0.379
 1931TIP3    H1 5750   5.530   3.691   0.410
 1931TIP3    H2 5751   5.521   3.583   0.305
 1932TIP3   OH2 5752   6.169   6.288   5.079
 1932TIP3    H1 5753   6.253   6.326   5.106
 1932TIP3    H2 5754   6.104   6.356   5.100
 1933TIP3   OH2 5755   0.790   6.637   0.470
 1933TIP3    H1 5756   0.707   6.668   0.507
 1933TIP3    H2 5757   0.847   6.714   0.471
 1934TIP3   OH2 5758   5.339   0.651   4.818
 1934TIP3    H1 5759   5.351   0.556   4.812
 1934TIP3    H2 5760   5.272   0.671   4.753
 1935TIP3   OH2 5761   4.305   0.155   0.526
 1935TIP3    H1 5762   4.289   0.235   0.576
 1935TIP3    H2 5763   4.300   0.085   0.591
 1936TIP3   OH2 5764   4.376   3.759   6.783
 1936TIP3    H1 5765   4.368   3.669   6.752
 1936TIP3    H2 5766   4.470   3.771   6.800
 1937TIP3   OH2 5767   4.810   5.491   3.268
 1937TIP3    H1 5768   4.807   5.395   3.266
 1937TIP3    H2 5769   4.772   5.518   3.185
 1938TIP3   OH2 5770   7.027   4.121   5.933
 1938TIP3    H1 5771   6.949   4.087   5.890
 1938TIP3    H2 5772   7.036   4.211   5.900
 1939TIP3   OH2 5773   3.161   4.952   5.883
 1939TIP3    H1 5774   3.083   4.984   5.837
 1939TIP3    H2 5775   3.141   4.861   5.903
 1940TIP3   OH2 5776   6.608   4.482   5.856
 1940TIP3    H1 5777   6.561   4.409   5.817
 1940TIP3    H2 5778   6.570   4.493   5.943
 1941TIP3   OH2 5779   2.096   4.745   3.059
 1941TIP3    H1 5780   2.092   4.821   3.001
 1941TIP3    H2 5781   2.017   4.695   3.038
 1942TIP3   OH2 5782   7.098   3.293   2.396
 1942TIP3    H1 5783   7.077   3.385   2.383
 1942TIP3    H2 5784   7.086   3.279   2.490
 1943TIP3   OH2 5785   7.706   1.107   5.578
 1943TIP3    H1 5786   7.669   1.054   5.507
 1943TIP3    H2 5787   7.631   1.155   5.613
 1944TIP3   OH2 5788   2.184   1.769   4.254
 1944TIP3    H1 5789   2.216   1.836   4.315
 1944TIP3    H2 5790   2.186   1.688   4.305
 1945TIP3   OH2 5791   0.473   7.720   1.764
 1945TIP3    H1 5792   0.455   7.629   1.741
 1945TIP3    H2 5793   0.414   7.772   1.708
 1946TIP3   OH2 5794   6.907   1.201   5.072
 1946TIP3    H1 5795   6.927   1.137   5.140
 1946TIP3    H2 5796   6.993   1.228   5.038
 1947TIP3   OH2 5797   3.915   3.589   4.965
 1947TIP3    H1 5798   3.986   3.619   4.908
 1947TIP3    H2 5799   3.948   3.603   5.054
 1948TIP3   OH2 5800   6.574   3.746   1.110
 1948TIP3    H1 5801   6.558   3.681   1.178
 1948TIP3    H2 5802   6.510   3.725   1.042
 1949TIP3   OH2 5803   7.040   3.850   1.660
 1949TIP3    H1 5804   6.957   3.860   1.612
 1949TIP3    H2 5805   7.083   3.935   1.651
 1950TIP3   OH2 5806   8.144   6.307   2.445
 1950TIP3    H1 5807   8.148   6.263   2.360
 1950TIP3    H2 5808   8.060   6.278   2.482
 1951TIP3   OH2 5809   2.393   1.071   2.006
 1951TIP3    H1 5810   2.326   1.107   2.064
 1951TIP3    H2 5811   2.450   1.146   1.986
 1952TIP3   OH2 5812   0.381   4.188   1.194
 1952TIP3    H1 5813   0.464   4.225   1.166
 1952TIP3    H2 5814   0.315   4.236   1.143
 1953TIP3   OH2 5815   1.587   6.838   3.355
 1953TIP3    H1 5816   1.569   6.757   3.402
 1953TIP3    H2 5817   1.526   6.836   3.281
 1954TIP3   OH2 5818   7.726   5.620   4.807
 1954TIP3    H1 5819   7.764   5.708   4.807
 1954TIP3    H2 5820   7.801   5.562   4.818
 1955TIP3   OH2 5821   1.212   1.476   0.827
 1955TIP3    H1 5822   1.183   1.544   0.766
 1955TIP3    H2 5823   1.145   1.473   0.894
 1956TIP3   OH2 5824   0.096   3.031   2.076
 1956TIP3    H1 5825   0.140   2.955   2.039
 1956TIP3    H2 5826   0.167   3.086   2.109
 1957TIP3   OH2 5827   3.089   2.870   0.004
 1957TIP3    H1 5828   2.994   2.873   0.021
 1957TIP3    H2 5829   3.127   2.841   0.086
 1958TIP3   OH2 5830   0.045   7.501   0.720
 1958TIP3    H1 5831  -0.007   7.514   0.799
 1958TIP3    H2 5832   0.084   7.414   0.731
 1959TIP3   OH2 5833   1.306   4.840   1.228
 1959TIP3    H1 5834   1.276   4.817   1.140
 1959TIP3    H2 5835   1.393   4.878   1.215
 1960TIP3   OH2 5836   1.062   2.250   6.603
 1960TIP3    H1 5837   1.061   2.184   6.533
 1960TIP3    H2 5838   1.025   2.328   6.563
 1961TIP3   OH2 5839   3.033   7.735   1.765
 1961TIP3    H1 5840   3.081   7.663   1.724
 1961TIP3    H2 5841   2.964   7.756   1.703
 1962TIP3   OH2 5842   3.969   5.434   2.651
 1962TIP3    H1 5843   4.041   5.374   2.632
 1962TIP3    H2 5844   3.941   5.465   2.565
 1963TIP3   OH2 5845   1.528   7.433   5.734
 1963TIP3    H1 5846   1.548   7.450   5.827
 1963TIP3    H2 5847   1.546   7.340   5.723
 1964TIP3   OH2 5848   7.779   5.429   2.182
 1964TIP3    H1 5849   7.767   5.341   2.145
 1964TIP3    H2 5850   7.701   5.477   2.156
 1965TIP3   OH2 5851   6.724   6.252   2.757
 1965TIP3    H1 5852   6.817   6.275   2.756
 1965TIP3    H2 5853   6.697   6.259   2.665
 1966TIP3   OH2 5854   1.725   1.992   2.818
 1966TIP3    H1 5855   1.812   1.988   2.857
 1966TIP3    H2 5856   1.677   1.920   2.859
 1967TIP3   OH2 5857   1.538   3.147   5.558
 1967TIP3    H1 5858   1.579   3.158   5.644
 1967TIP3    H2 5859   1.611   3.147   5.496
 1968TIP3   OH2 5860   0.239   1.537   5.922
 1968TIP3    H1 5861   0.272   1.502   5.839
 1968TIP3    H2 5862   0.316   1.539   5.979
 1969TIP3   OH2 5863   5.728   3.153   4.211
 1969TIP3    H1 5864   5.719   3.164   4.306
 1969TIP3    H2 5865   5.795   3.216   4.186
 1970TIP3   OH2 5866   2.888   3.694   6.683
 1970TIP3    H1 5867   2.926   3.674   6.768
 1970TIP3    H2 5868   2.955   3.746   6.638
 1971TIP3   OH2 5869   6.450   3.021   6.553
 1971TIP3    H1 5870   6.387   3.091   6.535
 1971TIP3    H2 5871   6.513   3.025   6.481
 1972TIP3   OH2 5872   6.285   3.415   6.614
 1972TIP3    H1 5873   6.238   3.491   6.580
 1972TIP3    H2 5874   6.276   3.349   6.545
 1973TIP3   OH2 5875   7.420   7.606   6.105
 1973TIP3    H1 5876   7.364   7.596   6.028
 1973TIP3    H2 5877   7.434   7.701   6.112
 1974TIP3   OH2 5878   1.271   3.519   5.303
 1974TIP3    H1 5879   1.181   3.494   5.283
 1974TIP3    H2 5880   1.324   3.448   5.267
 1975TIP3   OH2 5881   6.358   5.787   0.274
 1975TIP3    H1 5882   6.453   5.780   0.270
 1975TIP3    H2 5883   6.331   5.715   0.330
 1976TIP3   OH2 5884   1.592   5.424   2.357
 1976TIP3    H1 5885   1.510   5.445   2.401
 1976TIP3    H2 5886   1.656   5.419   2.428
 1977TIP3   OH2 5887   1.859   1.448   2.109
 1977TIP3    H1 5888   1.843   1.359   2.078
 1977TIP3    H2 5889   1.954   1.451   2.124
 1978TIP3   OH2 5890   5.106   1.244   4.598
 1978TIP3    H1 5891   5.045   1.209   4.534
 1978TIP3    H2 5892   5.123   1.334   4.569
 1979TIP3   OH2 5893   2.282   7.244   0.542
 1979TIP3    H1 5894   2.274   7.285   0.456
 1979TIP3    H2 5895   2.225   7.295   0.599
 1980TIP3   OH2 5896   7.146   6.367   1.286
 1980TIP3    H1 5897   7.136   6.326   1.200
 1980TIP3    H2 5898   7.165   6.459   1.267
 1981TIP3   OH2 5899   7.448   4.006   0.241
 1981TIP3    H1 5900   7.519   4.022   0.179
 1981TIP3    H2 5901   7.491   3.994   0.326
 1982TIP3   OH2 5902   0.729   1.988   6.615
 1982TIP3    H1 5903   0.807   1.948   6.654
 1982TIP3    H2 5904   0.763   2.063   6.566
 1983TIP3   OH2 5905   3.175   6.690   4.579
 1983TIP3    H1 5906   3.162   6.753   4.508
 1983TIP3    H2 5907   3.105   6.710   4.642
 1984TIP3   OH2 5908   4.526   7.396   0.711
 1984TIP3    H1 5909   4.492   7.364   0.795
 1984TIP3    H2 5910   4.620   7.375   0.714
 1985TIP3   OH2 5911   2.844   3.045   2.050
 1985TIP3    H1 5912   2.831   3.118   1.988
 1985TIP3    H2 5913   2.927   3.006   2.023
 1986TIP3   OH2 5914   4.198   2.253   0.688
 1986TIP3    H1 5915   4.155   2.300   0.760
 1986TIP3    H2 5916   4.280   2.301   0.673
 1987TIP3   OH2 5917   6.021   3.481   0.425
 1987TIP3    H1 5918   5.958   3.552   0.415
 1987TIP3    H2 5919   5.979   3.405   0.384
 1988TIP3   OH2 5920   6.053   1.409   5.216
 1988TIP3    H1 5921   6.141   1.405   5.251
 1988TIP3    H2 5922   5.998   1.431   5.291
 1989TIP3   OH2 5923   4.604   6.945   0.830
 1989TIP3    H1 5924   4.645   7.026   0.863
 1989TIP3    H2 5925   4.637   6.876   0.887
 1990TIP3   OH2 5926   6.516   0.982   3.293
 1990TIP3    H1 5927   6.444   1.045   3.299
 1990TIP3    H2 5928   6.595   1.035   3.291
 1991TIP3   OH2 5929   7.323   5.352   3.508
 1991TIP3    H1 5930   7.411   5.332   3.540
 1991TIP3    H2 5931   7.285   5.267   3.487
 1992TIP3   OH2 5932   7.551   7.162   6.408
 1992TIP3    H1 5933   7.646   7.172   6.401
 1992TIP3    H2 5934   7.524   7.129   6.323
 1993TIP3   OH2 5935   4.364   3.502   2.380
 1993TIP3    H1 5936   4.331   3.428   2.429
 1993TIP3    H2 5937   4.285   3.549   2.351
 1994TIP3   OH2 5938   5.400   1.582   5.240
 1994TIP3    H1 5939   5.364   1.531   5.313
 1994TIP3    H2 5940   5.477   1.626   5.277
 1995TIP3   OH2 5941   5.935   6.980   4.656
 1995TIP3    H1 5942   5.952   7.022   4.740
 1995TIP3    H2 5943   5.889   6.899   4.679
 1996TIP3   OH2 5944   0.040   5.329   3.611
 1996TIP3    H1 5945   0.107   5.393   3.634
 1996TIP3    H2 5946   0.080   5.274   3.544
 1997TIP3   OH2 5947   1.346   2.081   4.378
 1997TIP3    H1 5948   1.428   2.064   4.424
 1997TIP3    H2 5949   1.371   2.139   4.306
 1998TIP3   OH2 5950   3.734   4.970   2.605
 1998TIP3    H1 5951   3.646   4.973   2.642
 1998TIP3    H2 5952   3.789   4.937   2.676
 1999TIP3   OH2 5953   4.748   3.090   1.314
 1999TIP3    H1 5954   4.710   3.005   1.337
 1999TIP3    H2 5955   4.677   3.152   1.330
 2000TIP3   OH2 5956   3.528   2.518   1.379
 2000TIP3    H1 5957   3.547   2.503   1.287
 2000TIP3    H2 5958   3.609   2.555   1.415
 2001TIP3   OH2 5959   0.557   4.348   4.377
 2001TIP3    H1 5960   0.544   4.326   4.285
 2001TIP3    H2 5961   0.468   4.354   4.413
 2002TIP3   OH2 5962   3.886   0.199   6.305
 2002TIP3    H1 5963   3.962   0.170   6.356
 2002TIP3    H2 5964   3.908   0.289   6.279
 2003TIP3   OH2 5965   4.149   1.171   2.390
 2003TIP3    H1 5966   4.067   1.173   2.438
 2003TIP3    H2 5967   4.137   1.103   2.324
 2004TIP3   OH2 5968   7.096   3.021   1.196
 2004TIP3    H1 5969   7.122   3.071   1.119
 2004TIP3    H2 5970   7.029   2.960   1.163
 2005TIP3   OH2 5971   7.941   5.662   6.048
 2005TIP3    H1 5972   7.916   5.572   6.026
 2005TIP3    H2 5973   7.858   5.706   6.064
 2006TIP3   OH2 5974   0.869   4.384   6.157
 2006TIP3    H1 5975   0.959   4.410   6.175
 2006TIP3    H2 5976   0.840   4.444   6.088
 2007TIP3   OH2 5977   0.685   7.750   2.315
 2007TIP3    H1 5978   0.681   7.729   2.222
 2007TIP3    H2 5979   0.741   7.828   2.320
 2008TIP3   OH2 5980   1.998   5.723   5.529
 2008TIP3    H1 5981   1.927   5.748   5.469
 2008TIP3    H2 5982   2.023   5.635   5.501
 2009TIP3   OH2 5983   1.764   2.709   0.826
 2009TIP3    H1 5984   1.677   2.694   0.863
 2009TIP3    H2 5985   1.750   2.717   0.732
 2010TIP3   OH2 5986   6.707   2.185   2.713
 2010TIP3    H1 5987   6.749   2.219   2.635
 2010TIP3    H2 5988   6.779   2.154   2.768
 2011TIP3   OH2 5989   0.097   7.236   3.737
 2011TIP3    H1 5990   0.076   7.192   3.654
 2011TIP3    H2 5991   0.012   7.267   3.769
 2012TIP3   OH2 5992   7.720   2.286   0.550
 2012TIP3    H1 5993   7.706   2.377   0.523
 2012TIP3    H2 5994   7.661   2.274   0.624
 2013TIP3   OH2 5995   8.121   0.029   2.264
 2013TIP3    H1 5996   8.176   0.104   2.241
 2013TIP3    H2 5997   8.035   0.051   2.228
 2014TIP3   OH2 5998   5.919   2.284   2.179
 2014TIP3    H1 5999   5.838   2.261   2.226
 2014TIP3    H2 6000   5.989   2.248   2.233
 2015TIP3   OH2 6001   2.868   4.577   6.574
 2015TIP3    H1 6002   2.923   4.587   6.497
 2015TIP3    H2 6003   2.804   4.648   6.567
 2016TIP3   OH2 6004   5.712   0.254   0.267
 2016TIP3    H1 6005   5.629   0.254   0.219
 2016TIP3    H2 6006   5.690   0.217   0.352
 2017TIP3   OH2 6007   5.051   2.222   3.084
 2017TIP3    H1 6008   5.033   2.306   3.042
 2017TIP3    H2 6009   5.071   2.163   3.011
 2018TIP3   OH2 6010   6.094   3.649   1.792
 2018TIP3    H1 6011   6.005   3.618   1.805
 2018TIP3    H2 6012   6.122   3.609   1.709
 2019TIP3   OH2 6013   2.548   3.354   3.421
 2019TIP3    H1 6014   2.613   3.376   3.354
 2019TIP3    H2 6015   2.502   3.278   3.385
 2020TIP3   OH2 6016   3.789   5.095   2.243
 2020TIP3    H1 6017   3.754   5.121   2.158
 2020TIP3    H2 6018   3.730   5.134   2.306
 2021TIP3   OH2 6019   7.627   7.156   4.023
 2021TIP3    H1 6020   7.549   7.123   4.069
 2021TIP3    H2 6021   7.608   7.249   4.007
 2022TIP3   OH2 6022   5.158   1.119   4.160
 2022TIP3    H1 6023   5.138   1.026   4.154
 2022TIP3    H2 6024   5.217   1.135   4.087
 2023TIP3   OH2 6025   0.051   1.269   5.581
 2023TIP3    H1 6026   0.096   1.305   5.505
 2023TIP3    H2 6027  -0.008   1.339   5.610
 2024TIP3   OH2 6028   0.343   0.458   1.727
 2024TIP3    H1 6029   0.365   0.368   1.704
 2024TIP3    H2 6030   0.421   0.492   1.770
 2025TIP3   OH2 6031   6.653   0.013   5.699
 2025TIP3    H1 6032   6.608   0.058   5.770
 2025TIP3    H2 6033   6.745   0.008   5.728
 2026TIP3   OH2 6034   0.316   7.053   0.724
 2026TIP3    H1 6035   0.344   7.008   0.803
 2026TIP3    H2 6036   0.396   7.064   0.673
 2027TIP3   OH2 6037   7.223   4.571   2.363
 2027TIP3    H1 6038   7.183   4.658   2.358
 2027TIP3    H2 6039   7.255   4.564   2.453
 2028TIP3   OH2 6040   2.641   4.133   1.845
 2028TIP3    H1 6041   2.697   4.194   1.797
 2028TIP3    H2 6042   2.666   4.047   1.812
 2029TIP3   OH2 6043   7.947   0.586   5.551
 2029TIP3    H1 6044   7.872   0.560   5.603
 2029TIP3    H2 6045   8.019   0.591   5.614
 2030TIP3   OH2 6046   0.977   3.389   1.773
 2030TIP3    H1 6047   0.966   3.417   1.864
 2030TIP3    H2 6048   0.922   3.449   1.722
 2031TIP3   OH2 6049   7.825   3.779   3.968
 2031TIP3    H1 6050   7.828   3.738   3.881
 2031TIP3    H2 6051   7.755   3.844   3.961
 2032TIP3   OH2 6052   6.733   0.772   0.863
 2032TIP3    H1 6053   6.774   0.824   0.932
 2032TIP3    H2 6054   6.644   0.808   0.856
 2033TIP3   OH2 6055   6.336   0.054   4.973
 2033TIP3    H1 6056   6.331   0.090   5.061
 2033TIP3    H2 6057   6.429   0.042   4.956
 2034TIP3   OH2 6058   4.630   0.243   2.432
 2034TIP3    H1 6059   4.679   0.326   2.440
 2034TIP3    H2 6060   4.683   0.190   2.373
 2035TIP3   OH2 6061   3.273   5.403   5.464
 2035TIP3    H1 6062   3.340   5.471   5.456
 2035TIP3    H2 6063   3.248   5.384   5.373
 2036TIP3   OH2 6064   1.595   4.614   1.321
 2036TIP3    H1 6065   1.690   4.630   1.324
 2036TIP3    H2 6066   1.570   4.634   1.231
 2037TIP3   OH2 6067   5.884   4.832   4.023
 2037TIP3    H1 6068   5.963   4.779   4.018
 2037TIP3    H2 6069   5.904   4.899   4.088
 2038TIP3   OH2 6070   2.058   7.444   1.531
 2038TIP3    H1 6071   2.008   7.487   1.461
 2038TIP3    H2 6072   2.083   7.359   1.493
 2039TIP3   OH2 6073   3.765   6.410   5.531
 2039TIP3    H1 6074   3.755   6.485   5.472
 2039TIP3    H2 6075   3.723   6.438   5.612
 2040TIP3   OH2 6076   6.961   4.870   3.865
 2040TIP3    H1 6077   6.944   4.906   3.778
 2040TIP3    H2 6078   6.935   4.778   3.859
 2041TIP3   OH2 6079   3.783   5.922   6.456
 2041TIP3    H1 6080   3.878   5.910   6.461
 2041TIP3    H2 6081   3.772   6.007   6.413
 2042TIP3   OH2 6082   7.862   0.828   4.200
 2042TIP3    H1 6083   7.769   0.806   4.194
 2042TIP3    H2 6084   7.896   0.770   4.268
 2043TIP3   OH2 6085   7.622   3.864   6.736
 2043TIP3    H1 6086   7.591   3.808   6.665
 2043TIP3    H2 6087   7.542   3.892   6.781
 2044TIP3   OH2 6088   6.540   5.078   0.786
 2044TIP3    H1 6089   6.614   5.115   0.833
 2044TIP3    H2 6090   6.545   5.116   0.698
 2045TIP3   OH2 6091   6.076   1.011   4.605
 2045TIP3    H1 6092   5.993   1.046   4.638
 2045TIP3    H2 6093   6.140   1.032   4.673
 2046TIP3   OH2 6094   8.009   3.520   5.152
 2046TIP3    H1 6095   7.946   3.529   5.223
 2046TIP3    H2 6096   8.070   3.452   5.181
 2047TIP3   OH2 6097   4.731   4.738   6.550
 2047TIP3    H1 6098   4.672   4.694   6.489
 2047TIP3    H2 6099   4.817   4.732   6.508
 2048TIP3   OH2 6100   7.127   7.548   4.853
 2048TIP3    H1 6101   7.114   7.582   4.941
 2048TIP3    H2 6102   7.221   7.559   4.836
 2049TIP3   OH2 6103   4.971   0.190   1.950
 2049TIP3    H1 6104   4.915   0.234   1.887
 2049TIP3    H2 6105   5.058   0.227   1.934
 2050TIP3   OH2 6106   4.004   0.441   0.154
 2050TIP3    H1 6107   4.033   0.438   0.063
 2050TIP3    H2 6108   4.018   0.353   0.187
 2051TIP3   OH2 6109   7.032   3.134   2.160
 2051TIP3    H1 6110   7.104   3.090   2.116
 2051TIP3    H2 6111   7.072   3.178   2.235
 2052TIP3   OH2 6112   6.930   2.113   2.837
 2052TIP3    H1 6113   7.011   2.063   2.823
 2052TIP3    H2 6114   6.960   2.198   2.869
 2053TIP3   OH2 6115   7.298   3.718   4.970
 2053TIP3    H1 6116   7.366   3.700   4.906
 2053TIP3    H2 6117   7.295   3.814   4.975
 2054TIP3   OH2 6118   0.092   0.711   4.275
 2054TIP3    H1 6119   0.045   0.791   4.253
 2054TIP3    H2 6120   0.177   0.742   4.307
 2055TIP3   OH2 6121   3.019   4.939   0.977
 2055TIP3    H1 6122   2.926   4.961   0.972
 2055TIP3    H2 6123   3.035   4.924   1.070
 2056TIP3   OH2 6124   4.307   2.541   3.828
 2056TIP3    H1 6125   4.259   2.606   3.778
 2056TIP3    H2 6126   4.381   2.589   3.865
 2057TIP3   OH2 6127   6.973   3.312   2.841
 2057TIP3    H1 6128   7.023   3.318   2.922
 2057TIP3    H2 6129   6.916   3.389   2.843
 2058TIP3   OH2 6130   7.054   7.484   3.743
 2058TIP3    H1 6131   7.024   7.559   3.692
 2058TIP3    H2 6132   6.974   7.446   3.780
 2059TIP3   OH2 6133   3.669   1.036   1.373
 2059TIP3    H1 6134   3.634   1.091   1.444
 2059TIP3    H2 6135   3.735   0.982   1.415
 2060TIP3   OH2 6136   6.337   4.067   6.665
 2060TIP3    H1 6137   6.279   4.101   6.733
 2060TIP3    H2 6138   6.348   4.141   6.604
 2061TIP3   OH2 6139   7.728   2.639   1.140
 2061TIP3    H1 6140   7.712   2.685   1.222
 2061TIP3    H2 6141   7.648   2.651   1.089
 2062TIP3   OH2 6142   3.862   5.805   0.966
 2062TIP3    H1 6143   3.859   5.829   1.059
 2062TIP3    H2 6144   3.781   5.757   0.951
 2063TIP3   OH2 6145   1.083   4.825   5.838
 2063TIP3    H1 6146   1.056   4.859   5.752
 2063TIP3    H2 6147   1.132   4.745   5.818
 2064TIP3   OH2 6148   0.741   5.790   6.370
 2064TIP3    H1 6149   0.655   5.803   6.411
 2064TIP3    H2 6150   0.722   5.736   6.293
 2065TIP3   OH2 6151   5.686   2.348   2.908
 2065TIP3    H1 6152   5.673   2.424   2.851
 2065TIP3    H2 6153   5.780   2.345   2.922
 2066TIP3   OH2 6154   4.195   4.030   0.635
 2066TIP3    H1 6155   4.178   3.970   0.561
 2066TIP3    H2 6156   4.108   4.060   0.661
 2067TIP3   OH2 6157   0.452   3.003   4.635
 2067TIP3    H1 6158   0.382   2.955   4.680
 2067TIP3    H2 6159   0.447   3.092   4.669
 2068TIP3   OH2 6160   3.089   7.267   3.537
 2068TIP3    H1 6161   3.181   7.239   3.540
 2068TIP3    H2 6162   3.051   7.217   3.465
 2069TIP3   OH2 6163   1.289   3.525   5.636
 2069TIP3    H1 6164   1.312   3.549   5.546
 2069TIP3    H2 6165   1.195   3.543   5.642
 2070TIP3   OH2 6166   7.734   0.903   6.270
 2070TIP3    H1 6167   7.816   0.945   6.242
 2070TIP3    H2 6168   7.761   0.841   6.337
 2071TIP3   OH2 6169   0.250   3.602   0.373
 2071TIP3    H1 6170   0.328   3.550   0.392
 2071TIP3    H2 6171   0.235   3.653   0.452
 2072TIP3   OH2 6172   0.917   0.575   0.062
 2072TIP3    H1 6173   0.932   0.668   0.049
 2072TIP3    H2 6174   0.963   0.554   0.143
 2073TIP3   OH2 6175   7.993   1.460   1.420
 2073TIP3    H1 6176   7.980   1.515   1.497
 2073TIP3    H2 6177   7.939   1.383   1.435
 2074TIP3   OH2 6178   7.379  -0.044   5.178
 2074TIP3    H1 6179   7.303  -0.050   5.119
 2074TIP3    H2 6180   7.358   0.028   5.237
 2075TIP3   OH2 6181   5.051   5.420   1.110
 2075TIP3    H1 6182   5.017   5.509   1.104
 2075TIP3    H2 6183   5.023   5.389   1.196
 2076TIP3   OH2 6184   5.298   7.458   1.981
 2076TIP3    H1 6185   5.353   7.429   2.055
 2076TIP3    H2 6186   5.359   7.463   1.907
 2077TIP3   OH2 6187   6.749   1.437   2.368
 2077TIP3    H1 6188   6.688   1.452   2.295
 2077TIP3    H2 6189   6.694   1.402   2.438
 2078TIP3   OH2 6190   0.192   6.344   2.870
 2078TIP3    H1 6191   0.179   6.423   2.818
 2078TIP3    H2 6192   0.246   6.288   2.815
 2079TIP3   OH2 6193   1.348   1.480   2.815
 2079TIP3    H1 6194   1.308   1.393   2.818
 2079TIP3    H2 6195   1.289   1.532   2.761
 2080TIP3   OH2 6196   2.391   1.760   3.444
 2080TIP3    H1 6197   2.342   1.811   3.508
 2080TIP3    H2 6198   2.480   1.760   3.477
 2081TIP3   OH2 6199   6.262   0.466   1.969
 2081TIP3    H1 6200   6.202   0.396   1.946
 2081TIP3    H2 6201   6.311   0.483   1.889
 2082TIP3   OH2 6202   7.611   3.726   1.906
 2082TIP3    H1 6203   7.592   3.792   1.839
 2082TIP3    H2 6204   7.698   3.750   1.939
 2083TIP3   OH2 6205   4.782   2.312   5.084
 2083TIP3    H1 6206   4.751   2.371   5.015
 2083TIP3    H2 6207   4.734   2.339   5.162
 2084TIP3   OH2 6208   3.460   2.901   3.988
 2084TIP3    H1 6209   3.404   2.873   3.916
 2084TIP3    H2 6210   3.408   2.881   4.067
 2085TIP3   OH2 6211   1.175   7.083   0.707
 2085TIP3    H1 6212   1.202   7.019   0.642
 2085TIP3    H2 6213   1.139   7.156   0.656
 2086TIP3   OH2 6214   3.940   3.525   1.816
 2086TIP3    H1 6215   4.027   3.525   1.855
 2086TIP3    H2 6216   3.950   3.473   1.736
 2087TIP3   OH2 6217   6.363   0.400   3.235
 2087TIP3    H1 6218   6.307   0.477   3.235
 2087TIP3    H2 6219   6.324   0.341   3.300
 2088TIP3   OH2 6220   2.323   6.298   6.405
 2088TIP3    H1 6221   2.368   6.342   6.477
 2088TIP3    H2 6222   2.374   6.319   6.327
 2089TIP3   OH2 6223   6.025   1.154   1.268
 2089TIP3    H1 6224   6.116   1.150   1.298
 2089TIP3    H2 6225   6.025   1.107   1.185
 2090TIP3   OH2 6226   1.747   0.907   3.207
 2090TIP3    H1 6227   1.795   0.830   3.178
 2090TIP3    H2 6228   1.756   0.907   3.302
 2091TIP3   OH2 6229   6.587   7.286   2.485
 2091TIP3    H1 6230   6.665   7.336   2.509
 2091TIP3    H2 6231   6.617   7.196   2.477
 2092TIP3   OH2 6232   5.186   1.786   0.994
 2092TIP3    H1 6233   5.200   1.717   1.058
 2092TIP3    H2 6234   5.240   1.760   0.919
 2093TIP3   OH2 6235   3.748   5.714   4.890
 2093TIP3    H1 6236   3.814   5.778   4.863
 2093TIP3    H2 6237   3.798   5.645   4.933
 2094TIP3   OH2 6238   8.189   7.364   1.989
 2094TIP3    H1 6239   8.160   7.361   2.080
 2094TIP3    H2 6240   8.276   7.323   1.991
 2095TIP3   OH2 6241   4.349   3.398   5.256
 2095TIP3    H1 6242   4.401   3.477   5.242
 2095TIP3    H2 6243   4.398   3.329   5.212
 2096TIP3   OH2 6244   0.560   3.746   4.797
 2096TIP3    H1 6245   0.586   3.670   4.848
 2096TIP3    H2 6246   0.539   3.712   4.711
 2097TIP3   OH2 6247   0.370   4.363   0.728
 2097TIP3    H1 6248   0.449   4.408   0.757
 2097TIP3    H2 6249   0.390   4.270   0.737
 2098TIP3   OH2 6250   3.064   0.112   6.542
 2098TIP3    H1 6251   3.147   0.072   6.566
 2098TIP3    H2 6252   3.084   0.164   6.465
 2099TIP3   OH2 6253   4.493   5.712   1.992
 2099TIP3    H1 6254   4.426   5.661   1.946
 2099TIP3    H2 6255   4.545   5.646   2.037
 2100TIP3   OH2 6256   7.123   4.946   4.081
 2100TIP3    H1 6257   7.104   4.898   4.000
 2100TIP3    H2 6258   7.083   5.032   4.068
 2101TIP3   OH2 6259   3.787   4.707   4.684
 2101TIP3    H1 6260   3.780   4.714   4.779
 2101TIP3    H2 6261   3.696   4.702   4.654
 2102TIP3   OH2 6262   4.040   7.686   2.521
 2102TIP3    H1 6263   4.009   7.628   2.590
 2102TIP3    H2 6264   4.000   7.770   2.540
 2103TIP3   OH2 6265   0.886   1.548   3.082
 2103TIP3    H1 6266   0.872   1.453   3.077
 2103TIP3    H2 6267   0.930   1.569   2.999
 2104TIP3   OH2 6268   5.174   2.719   5.425
 2104TIP3    H1 6269   5.212   2.701   5.340
 2104TIP3    H2 6270   5.136   2.806   5.416
 2105TIP3   OH2 6271   6.067   5.412   0.389
 2105TIP3    H1 6272   5.996   5.423   0.325
 2105TIP3    H2 6273   6.062   5.491   0.443
 2106TIP3   OH2 6274   8.037   2.344   5.059
 2106TIP3    H1 6275   8.119   2.385   5.032
 2106TIP3    H2 6276   8.064   2.259   5.095
 2107TIP3   OH2 6277   3.535   4.525   6.165
 2107TIP3    H1 6278   3.603   4.469   6.202
 2107TIP3    H2 6279   3.548   4.609   6.209
 2108TIP3   OH2 6280   6.336   1.582   1.562
 2108TIP3    H1 6281   6.315   1.492   1.585
 2108TIP3    H2 6282   6.250   1.625   1.552
 2109TIP3   OH2 6283   4.854   5.641   5.746
 2109TIP3    H1 6284   4.909   5.576   5.789
 2109TIP3    H2 6285   4.808   5.592   5.677
 2110TIP3   OH2 6286   3.483   7.563   1.746
 2110TIP3    H1 6287   3.501   7.619   1.821
 2110TIP3    H2 6288   3.464   7.477   1.783
 2111TIP3   OH2 6289   1.098   5.790   1.918
 2111TIP3    H1 6290   1.167   5.853   1.897
 2111TIP3    H2 6291   1.146   5.711   1.945
 2112TIP3   OH2 6292   7.812   1.790   2.136
 2112TIP3    H1 6293   7.838   1.867   2.187
 2112TIP3    H2 6294   7.877   1.724   2.159
 2113TIP3   OH2 6295   0.493   4.023   4.229
 2113TIP3    H1 6296   0.438   3.946   4.241
 2113TIP3    H2 6297   0.520   4.046   4.318
 2114TIP3   OH2 6298   3.149   7.622   5.888
 2114TIP3    H1 6299   3.233   7.656   5.856
 2114TIP3    H2 6300   3.136   7.666   5.972
 2115TIP3   OH2 6301   6.975   2.736   4.506
 2115TIP3    H1 6302   6.940   2.686   4.432
 2115TIP3    H2 6303   7.031   2.674   4.552
 2116TIP3   OH2 6304   5.225   2.173   4.846
 2116TIP3    H1 6305   5.137   2.196   4.817
 2116TIP3    H2 6306   5.282   2.207   4.778
 2117TIP3   OH2 6307   5.544   2.615   3.409
 2117TIP3    H1 6308   5.616   2.613   3.473
 2117TIP3    H2 6309   5.585   2.589   3.327
 2118TIP3   OH2 6310   2.269   5.697   2.503
 2118TIP3    H1 6311   2.315   5.724   2.423
 2118TIP3    H2 6312   2.184   5.666   2.472
 2119TIP3   OH2 6313   0.784   2.240   6.458
 2119TIP3    H1 6314   0.842   2.232   6.383
 2119TIP3    H2 6315   0.815   2.318   6.504
 2120TIP3   OH2 6316   4.630   2.039   2.604
 2120TIP3    H1 6317   4.667   2.073   2.685
 2120TIP3    H2 6318   4.630   2.113   2.543
 2121TIP3   OH2 6319   1.118   6.262   3.107
 2121TIP3    H1 6320   1.082   6.177   3.134
 2121TIP3    H2 6321   1.212   6.254   3.124
 2122TIP3   OH2 6322   8.118   1.492   0.255
 2122TIP3    H1 6323   8.073   1.525   0.177
 2122TIP3    H2 6324   8.102   1.398   0.253
 2123TIP3   OH2 6325   1.518   0.612   1.733
 2123TIP3    H1 6326   1.546   0.624   1.642
 2123TIP3    H2 6327   1.578   0.547   1.768
 2124TIP3   OH2 6328   3.235   0.363   6.331
 2124TIP3    H1 6329   3.151   0.402   6.357
 2124TIP3    H2 6330   3.300   0.428   6.356
 2125TIP3   OH2 6331   0.164   6.805   2.385
 2125TIP3    H1 6332   0.259   6.800   2.388
 2125TIP3    H2 6333   0.140   6.762   2.302
 2126TIP3   OH2 6334   1.787   3.425   3.142
 2126TIP3    H1 6335   1.694   3.444   3.131
 2126TIP3    H2 6336   1.821   3.498   3.193
 2127TIP3   OH2 6337   5.621   1.649   1.455
 2127TIP3    H1 6338   5.613   1.645   1.359
 2127TIP3    H2 6339   5.696   1.706   1.470
 2128TIP3   OH2 6340   1.310   7.166   5.746
 2128TIP3    H1 6341   1.226   7.130   5.718
 2128TIP3    H2 6342   1.287   7.242   5.800
 2129TIP3   OH2 6343   0.534   0.940   3.914
 2129TIP3    H1 6344   0.540   0.864   3.972
 2129TIP3    H2 6345   0.454   0.925   3.864
 2130TIP3   OH2 6346   3.525   4.776   1.453
 2130TIP3    H1 6347   3.483   4.800   1.536
 2130TIP3    H2 6348   3.612   4.816   1.458
 2131TIP3   OH2 6349   4.669   2.555   0.574
 2131TIP3    H1 6350   4.687   2.530   0.483
 2131TIP3    H2 6351   4.629   2.641   0.568
 2132TIP3   OH2 6352   2.530   1.503   4.226
 2132TIP3    H1 6353   2.475   1.580   4.237
 2132TIP3    H2 6354   2.558   1.480   4.315
 2133TIP3   OH2 6355   5.879   0.873   5.963
 2133TIP3    H1 6356   5.798   0.865   6.014
 2133TIP3    H2 6357   5.895   0.785   5.930
 2134TIP3   OH2 6358   0.467   4.269   4.108
 2134TIP3    H1 6359   0.553   4.293   4.073
 2134TIP3    H2 6360   0.480   4.181   4.143
 2135TIP3   OH2 6361   6.034   0.811   0.506
 2135TIP3    H1 6362   5.952   0.818   0.457
 2135TIP3    H2 6363   6.065   0.722   0.488
 2136TIP3   OH2 6364   5.344   0.194   5.121
 2136TIP3    H1 6365   5.352   0.181   5.215
 2136TIP3    H2 6366   5.430   0.223   5.092
 2137TIP3   OH2 6367   0.305   5.706   1.545
 2137TIP3    H1 6368   0.306   5.785   1.491
 2137TIP3    H2 6369   0.391   5.705   1.587
 2138TIP3   OH2 6370   7.600   0.063   4.419
 2138TIP3    H1 6371   7.526   0.110   4.457
 2138TIP3    H2 6372   7.576   0.049   4.328
 2139TIP3   OH2 6373   4.174   4.456   2.877
 2139TIP3    H1 6374   4.114   4.427   2.809
 2139TIP3    H2 6375   4.243   4.503   2.829
 2140TIP3   OH2 6376   2.746   7.544   4.210
 2140TIP3    H1 6377   2.762   7.633   4.177
 2140TIP3    H2 6378   2.678   7.509   4.153
 2141TIP3   OH2 6379   4.396   0.917   5.783
 2141TIP3    H1 6380   4.305   0.918   5.814
 2141TIP3    H2 6381   4.413   1.007   5.755
 2142TIP3   OH2 6382   1.545   0.191   4.649
 2142TIP3    H1 6383   1.615   0.170   4.586
 2142TIP3    H2 6384   1.464   0.173   4.602
 2143TIP3   OH2 6385   7.349   4.564   3.210
 2143TIP3    H1 6386   7.343   4.584   3.116
 2143TIP3    H2 6387   7.442   4.545   3.223
 2144TIP3   OH2 6388   5.753   3.323   0.285
 2144TIP3    H1 6389   5.673   3.276   0.308
 2144TIP3    H2 6390   5.740   3.411   0.319
 2145TIP3   OH2 6391   4.511   0.978   2.128
 2145TIP3    H1 6392   4.481   1.067   2.111
 2145TIP3    H2 6393   4.600   0.975   2.091
 2146TIP3   OH2 6394   0.118   7.480   4.885
 2146TIP3    H1 6395   0.088   7.553   4.830
 2146TIP3    H2 6396   0.096   7.402   4.834
 2147TIP3   OH2 6397   4.996   1.492   0.997
 2147TIP3    H1 6398   4.952   1.429   0.941
 2147TIP3    H2 6399   4.929   1.558   1.018
 2148TIP3   OH2 6400   6.338   1.714   4.296
 2148TIP3    H1 6401   6.248   1.682   4.305
 2148TIP3    H2 6402   6.337   1.800   4.338
 2149TIP3   OH2 6403   5.091   2.123   3.332
 2149TIP3    H1 6404   5.040   2.161   3.403
 2149TIP3    H2 6405   5.056   2.164   3.253
 2150TIP3   OH2 6406   3.205   3.695   6.694
 2150TIP3    H1 6407   3.154   3.773   6.717
 2150TIP3    H2 6408   3.296   3.719   6.713
 2151TIP3   OH2 6409   3.848   4.666   0.839
 2151TIP3    H1 6410   3.868   4.659   0.933
 2151TIP3    H2 6411   3.934   4.666   0.797
 2152TIP3   OH2 6412   6.109   0.363   6.481
 2152TIP3    H1 6413   6.095   0.451   6.515
 2152TIP3    H2 6414   6.124   0.376   6.387
 2153TIP3   OH2 6415   3.199   1.380   3.444
 2153TIP3    H1 6416   3.163   1.324   3.375
 2153TIP3    H2 6417   3.294   1.376   3.431
 2154TIP3   OH2 6418   5.407   2.069   3.274
 2154TIP3    H1 6419   5.314   2.073   3.296
 2154TIP3    H2 6420   5.429   2.157   3.244
 2155TIP3   OH2 6421   3.219   6.923   3.713
 2155TIP3    H1 6422   3.231   6.900   3.805
 2155TIP3    H2 6423   3.129   6.895   3.693
 2156TIP3   OH2 6424   0.245   3.259   1.864
 2156TIP3    H1 6425   0.153   3.286   1.865
 2156TIP3    H2 6426   0.281   3.295   1.784
 2157TIP3   OH2 6427   7.623   3.693   5.457
 2157TIP3    H1 6428   7.655   3.739   5.379
 2157TIP3    H2 6429   7.685   3.717   5.526
 2158TIP3   OH2 6430   0.809   0.216   2.693
 2158TIP3    H1 6431   0.819   0.307   2.721
 2158TIP3    H2 6432   0.889   0.173   2.722
 2159TIP3   OH2 6433   3.972   0.913   4.464
 2159TIP3    H1 6434   4.004   0.971   4.394
 2159TIP3    H2 6435   3.896   0.958   4.500
 2160TIP3   OH2 6436   3.105   3.517   0.252
 2160TIP3    H1 6437   3.071   3.431   0.275
 2160TIP3    H2 6438   3.200   3.506   0.250
 2161TIP3   OH2 6439   2.714   4.704   0.685
 2161TIP3    H1 6440   2.783   4.735   0.743
 2161TIP3    H2 6441   2.662   4.782   0.665
 2162TIP3   OH2 6442   2.417   4.933   6.472
 2162TIP3    H1 6443   2.419   5.007   6.532
 2162TIP3    H2 6444   2.324   4.920   6.453
 2163TIP3   OH2 6445   3.092   5.432   0.031
 2163TIP3    H1 6446   3.143   5.513   0.037
 2163TIP3    H2 6447   3.102   5.404  -0.060
 2164TIP3   OH2 6448   7.008   0.758   2.364
 2164TIP3    H1 6449   7.054   0.795   2.289
 2164TIP3    H2 6450   6.941   0.701   2.326
 2165TIP3   OH2 6451   3.065   1.314   1.728
 2165TIP3    H1 6452   3.143   1.365   1.709
 2165TIP3    H2 6453   2.992   1.375   1.712
 2166TIP3   OH2 6454   5.463   3.360   6.423
 2166TIP3    H1 6455   5.368   3.361   6.435
 2166TIP3    H2 6456   5.475   3.337   6.331
 2167TIP3   OH2 6457   2.219   1.405   1.146
 2167TIP3    H1 6458   2.155   1.352   1.099
 2167TIP3    H2 6459   2.179   1.492   1.154
 2168TIP3   OH2 6460   0.583   1.700   5.161
 2168TIP3    H1 6461   0.574   1.701   5.065
 2168TIP3    H2 6462   0.578   1.607   5.184
 2169TIP3   OH2 6463   5.135   0.133   3.878
 2169TIP3    H1 6464   5.196   0.205   3.891
 2169TIP3    H2 6465   5.161   0.067   3.943
 2170TIP3   OH2 6466   3.116   5.672   3.931
 2170TIP3    H1 6467   3.146   5.743   3.875
 2170TIP3    H2 6468   3.165   5.595   3.902
 2171TIP3   OH2 6469   7.028   7.803   0.699
 2171TIP3    H1 6470   6.974   7.870   0.657
 2171TIP3    H2 6471   7.005   7.809   0.792
 2172TIP3   OH2 6472   8.106   4.391   1.787
 2172TIP3    H1 6473   8.068   4.478   1.781
 2172TIP3    H2 6474   8.055   4.337   1.727
 2173TIP3   OH2 6475   4.605   2.705   5.881
 2173TIP3    H1 6476   4.594   2.643   5.953
 2173TIP3    H2 6477   4.662   2.658   5.819
 2174TIP3   OH2 6478   1.610   5.262   0.300
 2174TIP3    H1 6479   1.686   5.311   0.268
 2174TIP3    H2 6480   1.543   5.276   0.233
 2175TIP3   OH2 6481   4.220   6.027   1.350
 2175TIP3    H1 6482   4.132   6.025   1.387
 2175TIP3    H2 6483   4.277   6.003   1.423
 2176TIP3   OH2 6484   5.622   5.585   5.387
 2176TIP3    H1 6485   5.557   5.655   5.376
 2176TIP3    H2 6486   5.701   5.619   5.345
 2177TIP3   OH2 6487   3.961   6.520   1.018
 2177TIP3    H1 6488   3.940   6.482   1.104
 2177TIP3    H2 6489   4.054   6.502   1.006
 2178TIP3   OH2 6490   0.380   4.155   6.146
 2178TIP3    H1 6491   0.398   4.215   6.075
 2178TIP3    H2 6492   0.465   4.117   6.168
 2179TIP3   OH2 6493   3.289   6.747   3.177
 2179TIP3    H1 6494   3.295   6.829   3.128
 2179TIP3    H2 6495   3.279   6.774   3.269
 2180TIP3   OH2 6496   2.025   0.857   5.824
 2180TIP3    H1 6497   1.986   0.828   5.906
 2180TIP3    H2 6498   1.986   0.800   5.758
 2181TIP3   OH2 6499   0.458   0.108   1.217
 2181TIP3    H1 6500   0.463   0.111   1.121
 2181TIP3    H2 6501   0.491   0.021   1.239
 2182TIP3   OH2 6502   2.911   6.764   5.381
 2182TIP3    H1 6503   2.946   6.850   5.360
 2182TIP3    H2 6504   2.817   6.777   5.391
 2183TIP3   OH2 6505   0.069   0.296   6.781
 2183TIP3    H1 6506   0.156   0.293   6.741
 2183TIP3    H2 6507   0.029   0.376   6.746
 2184TIP3   OH2 6508   1.980   0.298   6.741
 2184TIP3    H1 6509   1.999   0.234   6.810
 2184TIP3    H2 6510   1.976   0.247   6.660
 2185TIP3   OH2 6511   7.232   3.069   6.384
 2185TIP3    H1 6512   7.168   3.001   6.364
 2185TIP3    H2 6513   7.273   3.040   6.465
 2186TIP3   OH2 6514   0.724   1.285   3.175
 2186TIP3    H1 6515   0.667   1.253   3.105
 2186TIP3    H2 6516   0.744   1.207   3.227
 2187TIP3   OH2 6517   2.107   2.601   1.029
 2187TIP3    H1 6518   2.071   2.654   1.100
 2187TIP3    H2 6519   2.199   2.589   1.052
 2188TIP3   OH2 6520   6.310   1.081   2.338
 2188TIP3    H1 6521   6.342   1.106   2.424
 2188TIP3    H2 6522   6.350   0.995   2.321
 2189TIP3   OH2 6523   1.848   5.749   1.091
 2189TIP3    H1 6524   1.926   5.733   1.039
 2189TIP3    H2 6525   1.809   5.827   1.053
 2190TIP3   OH2 6526   0.754   4.246   6.492
 2190TIP3    H1 6527   0.767   4.224   6.584
 2190TIP3    H2 6528   0.783   4.168   6.445
 2191TIP3   OH2 6529   3.960   3.558   1.200
 2191TIP3    H1 6530   3.937   3.611   1.276
 2191TIP3    H2 6531   3.882   3.504   1.184
 2192TIP3   OH2 6532   4.943   7.531   6.354
 2192TIP3    H1 6533   4.903   7.466   6.412
 2192TIP3    H2 6534   4.906   7.615   6.384
 2193TIP3   OH2 6535   3.433   4.241   4.817
 2193TIP3    H1 6536   3.384   4.169   4.857
 2193TIP3    H2 6537   3.421   4.315   4.876
 2194TIP3   OH2 6538   3.498   3.073   0.654
 2194TIP3    H1 6539   3.495   3.139   0.723
 2194TIP3    H2 6540   3.584   3.034   0.662
 2195TIP3   OH2 6541   6.380   2.435   4.472
 2195TIP3    H1 6542   6.326   2.514   4.475
 2195TIP3    H2 6543   6.448   2.449   4.538
 2196TIP3   OH2 6544   5.056   0.319   3.017
 2196TIP3    H1 6545   5.005   0.382   2.966
 2196TIP3    H2 6546   5.039   0.234   2.975
 2197TIP3   OH2 6547   4.696   2.185   1.307
 2197TIP3    H1 6548   4.651   2.222   1.383
 2197TIP3    H2 6549   4.700   2.258   1.244
 2198TIP3   OH2 6550   8.060   0.532   5.790
 2198TIP3    H1 6551   8.000   0.487   5.849
 2198TIP3    H2 6552   8.141   0.541   5.840
 2199TIP3   OH2 6553   2.793   2.231   0.098
 2199TIP3    H1 6554   2.775   2.137   0.087
 2199TIP3    H2 6555   2.794   2.265   0.009
 2200TIP3   OH2 6556   1.943   3.223   5.231
 2200TIP3    H1 6557   1.999   3.285   5.278
 2200TIP3    H2 6558   2.000   3.148   5.213
 2201TIP3   OH2 6559   5.058   4.301   1.720
 2201TIP3    H1 6560   5.022   4.345   1.798
 2201TIP3    H2 6561   5.115   4.367   1.680
 2202TIP3   OH2 6562   0.656   3.467   2.290
 2202TIP3    H1 6563   0.674   3.561   2.291
 2202TIP3    H2 6564   0.586   3.457   2.226
 2203TIP3   OH2 6565   7.557   4.600   2.914
 2203TIP3    H1 6566   7.594   4.561   2.993
 2203TIP3    H2 6567   7.468   4.566   2.910
 2204TIP3   OH2 6568   2.187   4.944   1.178
 2204TIP3    H1 6569   2.209   5.022   1.229
 2204TIP3    H2 6570   2.232   4.872   1.223
 2205TIP3   OH2 6571   4.621   2.628   5.474
 2205TIP3    H1 6572   4.557   2.667   5.414
 2205TIP3    H2 6573   4.590   2.538   5.486
 2206TIP3   OH2 6574   3.287   1.859   1.993
 2206TIP3    H1 6575   3.237   1.806   2.055
 2206TIP3    H2 6576   3.329   1.795   1.935
 2207TIP3   OH2 6577   2.197   0.164   2.278
 2207TIP3    H1 6578   2.248   0.084   2.287
 2207TIP3    H2 6579   2.240   0.228   2.334
 2208TIP3   OH2 6580   4.257   3.552   4.231
 2208TIP3    H1 6581   4.256   3.608   4.153
 2208TIP3    H2 6582   4.299   3.471   4.201
 2209TIP3   OH2 6583   7.517   4.914   0.786
 2209TIP3    H1 6584   7.549   4.875   0.705
 2209TIP3    H2 6585   7.592   4.912   0.845
 2210TIP3   OH2 6586   7.961   1.143   6.041
 2210TIP3    H1 6587   7.993   1.065   6.087
 2210TIP3    H2 6588   7.923   1.109   5.960
 2211TIP3   OH2 6589   4.547   1.331   5.530
 2211TIP3    H1 6590   4.559   1.257   5.471
 2211TIP3    H2 6591   4.493   1.393   5.481
 2212TIP3   OH2 6592   3.820   7.593   3.002
 2212TIP3    H1 6593   3.783   7.586   2.914
 2212TIP3    H2 6594   3.900   7.645   2.990
 2213TIP3   OH2 6595   1.566   3.624   5.651
 2213TIP3    H1 6596   1.597   3.608   5.561
 2213TIP3    H2 6597   1.498   3.558   5.664
 2214TIP3   OH2 6598   6.758   5.347   0.007
 2214TIP3    H1 6599   6.721   5.275   0.058
 2214TIP3    H2 6600   6.706   5.423   0.034
 2215TIP3   OH2 6601   7.314   1.411   4.181
 2215TIP3    H1 6602   7.347   1.380   4.097
 2215TIP3    H2 6603   7.228   1.370   4.190
 2216TIP3   OH2 6604   3.004   7.015   5.345
 2216TIP3    H1 6605   2.997   7.068   5.267
 2216TIP3    H2 6606   3.094   6.981   5.343
 2217TIP3   OH2 6607   3.990   4.451   3.458
 2217TIP3    H1 6608   4.082   4.439   3.482
 2217TIP3    H2 6609   3.976   4.393   3.384
 2218TIP3   OH2 6610   2.730   0.084   5.233
 2218TIP3    H1 6611   2.720   0.092   5.328
 2218TIP3    H2 6612   2.818   0.047   5.222
 2219TIP3   OH2 6613   6.503   3.619   4.883
 2219TIP3    H1 6614   6.423   3.634   4.832
 2219TIP3    H2 6615   6.546   3.547   4.838
 2220TIP3   OH2 6616   4.209   0.930   5.153
 2220TIP3    H1 6617   4.288   0.922   5.207
 2220TIP3    H2 6618   4.239   0.974   5.074
 2221TIP3   OH2 6619   2.802   1.974   0.382
 2221TIP3    H1 6620   2.821   1.935   0.467
 2221TIP3    H2 6621   2.719   2.020   0.396
 2222TIP3   OH2 6622   4.050   4.067   5.888
 2222TIP3    H1 6623   4.145   4.062   5.894
 2222TIP3    H2 6624   4.034   4.147   5.837
 2223TIP3   OH2 6625   4.690   2.545   1.490
 2223TIP3    H1 6626   4.622   2.599   1.529
 2223TIP3    H2 6627   4.759   2.542   1.556
 2224TIP3   OH2 6628   2.059   2.689   1.701
 2224TIP3    H1 6629   2.066   2.777   1.663
 2224TIP3    H2 6630   2.045   2.704   1.794
 2225TIP3   OH2 6631   2.948   0.749   1.504
 2225TIP3    H1 6632   2.943   0.801   1.585
 2225TIP3    H2 6633   2.999   0.672   1.529
 2226TIP3   OH2 6634   3.927   2.520   6.497
 2226TIP3    H1 6635   3.981   2.586   6.540
 2226TIP3    H2 6636   3.919   2.449   6.560
 2227TIP3   OH2 6637   6.022   1.313   3.793
 2227TIP3    H1 6638   6.046   1.228   3.829
 2227TIP3    H2 6639   5.926   1.315   3.796
 2228TIP3   OH2 6640   8.263   0.295   2.258
 2228TIP3    H1 6641   8.186   0.349   2.275
 2228TIP3    H2 6642   8.288   0.315   2.168
 2229TIP3   OH2 6643   4.765   0.242   4.132
 2229TIP3    H1 6644   4.699   0.218   4.197
 2229TIP3    H2 6645   4.843   0.266   4.183
 2230TIP3   OH2 6646   4.973   5.047   6.649
 2230TIP3    H1 6647   4.915   5.031   6.723
 2230TIP3    H2 6648   4.961   5.140   6.628
 2231TIP3   OH2 6649   1.885   1.589   2.459
 2231TIP3    H1 6650   1.819   1.539   2.507
 2231TIP3    H2 6651   1.905   1.663   2.516
 2232TIP3   OH2 6652   4.460   3.996   4.988
 2232TIP3    H1 6653   4.443   4.088   5.010
 2232TIP3    H2 6654   4.537   3.973   5.039
 2233TIP3   OH2 6655   0.602   2.130   4.479
 2233TIP3    H1 6656   0.569   2.042   4.495
 2233TIP3    H2 6657   0.545   2.187   4.530
 2234TIP3   OH2 6658   6.173   7.100   1.256
 2234TIP3    H1 6659   6.117   7.100   1.178
 2234TIP3    H2 6660   6.244   7.160   1.234
 2235TIP3   OH2 6661   2.639   0.645  -0.026
 2235TIP3    H1 6662   2.642   0.558   0.012
 2235TIP3    H2 6663   2.599   0.700   0.041
 2236TIP3   OH2 6664   4.048   0.194   6.621
 2236TIP3    H1 6665   4.102   0.189   6.700
 2236TIP3    H2 6666   3.991   0.269   6.637
 2237TIP3   OH2 6667   1.910   4.469   4.770
 2237TIP3    H1 6668   1.826   4.501   4.803
 2237TIP3    H2 6669   1.903   4.476   4.675
 2238TIP3   OH2 6670   1.589   7.035   6.614
 2238TIP3    H1 6671   1.568   7.103   6.549
 2238TIP3    H2 6672   1.514   7.035   6.674
 2239TIP3   OH2 6673   7.250   5.449   5.506
 2239TIP3    H1 6674   7.264   5.481   5.595
 2239TIP3    H2 6675   7.338   5.424   5.476
 2240TIP3   OH2 6676   4.003   5.382   5.496
 2240TIP3    H1 6677   4.029   5.417   5.582
 2240TIP3    H2 6678   3.933   5.441   5.467
 2241TIP3   OH2 6679   4.074   6.852   6.551
 2241TIP3    H1 6680   4.110   6.830   6.637
 2241TIP3    H2 6681   4.070   6.769   6.504
 2242TIP3   OH2 6682   6.906   1.821   4.046
 2242TIP3    H1 6683   6.859   1.863   3.974
 2242TIP3    H2 6684   6.936   1.893   4.101
 2243TIP3   OH2 6685   2.754   1.746   2.297
 2243TIP3    H1 6686   2.719   1.718   2.381
 2243TIP3    H2 6687   2.840   1.782   2.317
 2244TIP3   OH2 6688   1.424   2.169   4.119
 2244TIP3    H1 6689   1.403   2.106   4.049
 2244TIP3    H2 6690   1.378   2.249   4.093
 2245TIP3   OH2 6691   5.933   3.069   6.758
 2245TIP3    H1 6692   5.911   3.057   6.666
 2245TIP3    H2 6693   5.965   3.159   6.763
 2246TIP3   OH2 6694   1.089   0.622   4.987
 2246TIP3    H1 6695   1.071   0.533   5.014
 2246TIP3    H2 6696   1.047   0.630   4.901
 2247TIP3   OH2 6697   0.299   3.231   6.038
 2247TIP3    H1 6698   0.273   3.262   5.951
 2247TIP3    H2 6699   0.298   3.136   6.031
 2248TIP3   OH2 6700   1.774   4.309   6.268
 2248TIP3    H1 6701   1.725   4.267   6.198
 2248TIP3    H2 6702   1.766   4.250   6.343
 2249TIP3   OH2 6703   2.428   1.179   2.304
 2249TIP3    H1 6704   2.415   1.084   2.297
 2249TIP3    H2 6705   2.356   1.216   2.254
 2250TIP3   OH2 6706   4.458   7.173   2.282
 2250TIP3    H1 6707   4.410   7.117   2.220
 2250TIP3    H2 6708   4.512   7.112   2.332
 2251TIP3   OH2 6709   3.037   2.384   6.515
 2251TIP3    H1 6710   3.101   2.401   6.446
 2251TIP3    H2 6711   2.980   2.461   6.515
 2252TIP3   OH2 6712   8.140   1.672   4.024
 2252TIP3    H1 6713   8.045   1.682   4.027
 2252TIP3    H2 6714   8.174   1.761   4.017
 2253TIP3   OH2 6715   0.864   3.778   0.305
 2253TIP3    H1 6716   0.909   3.734   0.233
 2253TIP3    H2 6717   0.836   3.862   0.268
 2254TIP3   OH2 6718   7.769   5.209   1.534
 2254TIP3    H1 6719   7.858   5.174   1.528
 2254TIP3    H2 6720   7.765   5.250   1.621
 2255TIP3   OH2 6721   4.145   4.100   3.417
 2255TIP3    H1 6722   4.208   4.164   3.449
 2255TIP3    H2 6723   4.082   4.152   3.367
 2256TIP3   OH2 6724   6.011   3.346   6.751
 2256TIP3    H1 6725   6.105   3.360   6.765
 2256TIP3    H2 6726   5.982   3.424   6.703
 2257TIP3   OH2 6727   1.522   2.043   2.318
 2257TIP3    H1 6728   1.450   1.980   2.318
 2257TIP3    H2 6729   1.600   1.991   2.337
 2258TIP3   OH2 6730   8.015   1.803   3.264
 2258TIP3    H1 6731   8.041   1.745   3.335
 2258TIP3    H2 6732   8.068   1.882   3.277
 2259TIP3   OH2 6733   1.509   0.669   3.941
 2259TIP3    H1 6734   1.521   0.763   3.934
 2259TIP3    H2 6735   1.423   0.652   3.903
 2260TIP3   OH2 6736   0.057   5.790   2.718
 2260TIP3    H1 6737  -0.003   5.720   2.692
 2260TIP3    H2 6738   0.109   5.807   2.639
 2261TIP3   OH2 6739   7.618   0.343   5.873
 2261TIP3    H1 6740   7.653   0.268   5.824
 2261TIP3    H2 6741   7.537   0.366   5.826
 2262TIP3   OH2 6742   0.624   2.463   1.146
 2262TIP3    H1 6743   0.649   2.474   1.238
 2262TIP3    H2 6744   0.639   2.549   1.107
 2263TIP3   OH2 6745   6.241   5.907   1.615
 2263TIP3    H1 6746   6.214   5.997   1.634
 2263TIP3    H2 6747   6.252   5.905   1.520
 2264TIP3   OH2 6748   2.845   3.933   1.292
 2264TIP3    H1 6749   2.825   3.937   1.198
 2264TIP3    H2 6750   2.827   4.021   1.324
 2265TIP3   OH2 6751   2.897   4.108   2.002
 2265TIP3    H1 6752   2.923   4.087   1.912
 2265TIP3    H2 6753   2.930   4.034   2.053
 2266TIP3   OH2 6754   0.891   1.948   0.867
 2266TIP3    H1 6755   0.830   1.903   0.925
 2266TIP3    H2 6756   0.963   1.975   0.924
 2267TIP3   OH2 6757   5.890   5.934   0.035
 2267TIP3    H1 6758   5.938   6.006  -0.004
 2267TIP3    H2 6759   5.798   5.960   0.029
 2268TIP3   OH2 6760   8.117   6.305   3.269
 2268TIP3    H1 6761   8.023   6.293   3.283
 2268TIP3    H2 6762   8.133   6.269   3.182
 2269TIP3   OH2 6763   2.193   4.444   2.300
 2269TIP3    H1 6764   2.099   4.428   2.296
 2269TIP3    H2 6765   2.207   4.486   2.385
 2270TIP3   OH2 6766   7.194   0.494   5.027
 2270TIP3    H1 6767   7.268   0.447   5.066
 2270TIP3    H2 6768   7.151   0.537   5.100
 2271TIP3   OH2 6769   3.494   7.621   4.478
 2271TIP3    H1 6770   3.542   7.670   4.411
 2271TIP3    H2 6771   3.509   7.529   4.456
 2272TIP3   OH2 6772   0.305   7.400   4.568
 2272TIP3    H1 6773   0.385   7.367   4.526
 2272TIP3    H2 6774   0.281   7.333   4.631
 2273TIP3   OH2 6775   5.887   3.101   6.152
 2273TIP3    H1 6776   5.868   3.062   6.067
 2273TIP3    H2 6777   5.964   3.053   6.183
 2274TIP3   OH2 6778   5.407   3.252   4.250
 2274TIP3    H1 6779   5.480   3.299   4.211
 2274TIP3    H2 6780   5.412   3.164   4.212
 2275TIP3   OH2 6781   8.211   7.188   4.055
 2275TIP3    H1 6782   8.186   7.100   4.083
 2275TIP3    H2 6783   8.192   7.243   4.130
 2276TIP3   OH2 6784   4.087   7.574   1.061
 2276TIP3    H1 6785   4.067   7.635   1.132
 2276TIP3    H2 6786   4.142   7.623   1.001
 2277TIP3   OH2 6787   0.395   6.972   3.278
 2277TIP3    H1 6788   0.374   6.895   3.227
 2277TIP3    H2 6789   0.430   6.938   3.360
 2278TIP3   OH2 6790   1.245   2.186   1.630
 2278TIP3    H1 6791   1.296   2.253   1.584
 2278TIP3    H2 6792   1.303   2.158   1.702
 2279TIP3   OH2 6793   1.142   4.643   4.603
 2279TIP3    H1 6794   1.188   4.707   4.549
 2279TIP3    H2 6795   1.192   4.561   4.589
 2280TIP3   OH2 6796   2.697   4.557   3.554
 2280TIP3    H1 6797   2.635   4.486   3.537
 2280TIP3    H2 6798   2.731   4.539   3.642
 2281TIP3   OH2 6799   3.864   3.059   5.068
 2281TIP3    H1 6800   3.807   3.059   5.145
 2281TIP3    H2 6801   3.951   3.077   5.103
 2282TIP3   OH2 6802   1.365   1.943   6.145
 2282TIP3    H1 6803   1.318   1.880   6.200
 2282TIP3    H2 6804   1.322   1.936   6.059
 2283TIP3   OH2 6805   1.347   3.908   0.580
 2283TIP3    H1 6806   1.290   3.921   0.504
 2283TIP3    H2 6807   1.313   3.828   0.621
 2284TIP3   OH2 6808   7.736   6.422   6.184
 2284TIP3    H1 6809   7.790   6.417   6.106
 2284TIP3    H2 6810   7.693   6.336   6.189
 2285TIP3   OH2 6811   5.556   3.176   0.909
 2285TIP3    H1 6812   5.618   3.224   0.964
 2285TIP3    H2 6813   5.609   3.112   0.863
 2286TIP3   OH2 6814   4.617   4.315   3.616
 2286TIP3    H1 6815   4.712   4.319   3.619
 2286TIP3    H2 6816   4.598   4.249   3.549
 2287TIP3   OH2 6817   1.477   1.511   5.060
 2287TIP3    H1 6818   1.387   1.483   5.045
 2287TIP3    H2 6819   1.481   1.600   5.023
 2288TIP3   OH2 6820   6.960   1.616   5.079
 2288TIP3    H1 6821   6.967   1.662   4.995
 2288TIP3    H2 6822   6.874   1.641   5.113
 2289TIP3   OH2 6823   3.781   5.012   4.301
 2289TIP3    H1 6824   3.763   4.968   4.218
 2289TIP3    H2 6825   3.857   4.964   4.337
 2290TIP3   OH2 6826   5.443   5.783   2.729
 2290TIP3    H1 6827   5.447   5.804   2.823
 2290TIP3    H2 6828   5.534   5.781   2.701
 2291TIP3   OH2 6829   3.485   4.852   5.446
 2291TIP3    H1 6830   3.512   4.863   5.537
 2291TIP3    H2 6831   3.440   4.934   5.424
 2292TIP3   OH2 6832   2.906   1.590   6.088
 2292TIP3    H1 6833   2.864   1.568   6.005
 2292TIP3    H2 6834   2.922   1.505   6.130
 2293TIP3   OH2 6835   4.205   3.020   3.008
 2293TIP3    H1 6836   4.175   2.939   2.966
 2293TIP3    H2 6837   4.219   2.997   3.100
 2294TIP3   OH2 6838   4.768   0.924   0.437
 2294TIP3    H1 6839   4.772   1.015   0.408
 2294TIP3    H2 6840   4.716   0.927   0.517
 2295TIP3   OH2 6841   0.177   4.739   2.833
 2295TIP3    H1 6842   0.098   4.789   2.851
 2295TIP3    H2 6843   0.242   4.804   2.805
 2296TIP3   OH2 6844   2.088   5.243   5.270
 2296TIP3    H1 6845   2.100   5.329   5.229
 2296TIP3    H2 6846   2.132   5.182   5.212
 2297TIP3   OH2 6847   4.622   7.092   5.784
 2297TIP3    H1 6848   4.601   7.002   5.759
 2297TIP3    H2 6849   4.707   7.086   5.827
 2298TIP3   OH2 6850   2.556   6.667   6.484
 2298TIP3    H1 6851   2.564   6.721   6.563
 2298TIP3    H2 6852   2.509   6.723   6.422
 2299TIP3   OH2 6853   1.022   1.356   2.356
 2299TIP3    H1 6854   1.085   1.423   2.383
 2299TIP3    H2 6855   1.047   1.335   2.266
 2300TIP3   OH2 6856   1.493   1.021   6.570
 2300TIP3    H1 6857   1.438   1.045   6.495
 2300TIP3    H2 6858   1.432   0.988   6.635
 2301TIP3   OH2 6859   6.489   0.275   4.385
 2301TIP3    H1 6860   6.449   0.260   4.299
 2301TIP3    H2 6861   6.423   0.323   4.434
 2302TIP3   OH2 6862   5.027   2.749   2.540
 2302TIP3    H1 6863   4.991   2.744   2.629
 2302TIP3    H2 6864   5.061   2.838   2.532
 2303TIP3   OH2 6865   3.328   1.160   5.741
 2303TIP3    H1 6866   3.332   1.073   5.781
 2303TIP3    H2 6867   3.239   1.191   5.759
 2304TIP3   OH2 6868   6.362   3.190   6.130
 2304TIP3    H1 6869   6.287   3.222   6.080
 2304TIP3    H2 6870   6.350   3.096   6.136
 2305TIP3   OH2 6871   8.100   0.933   0.550
 2305TIP3    H1 6872   8.007   0.948   0.566
 2305TIP3    H2 6873   8.143   1.008   0.591
 2306TIP3   OH2 6874   8.042   0.212   0.917
 2306TIP3    H1 6875   8.120   0.158   0.930
 2306TIP3    H2 6876   8.075   0.301   0.914
 2307TIP3   OH2 6877   5.943   1.392   5.461
 2307TIP3    H1 6878   5.863   1.423   5.503
 2307TIP3    H2 6879   5.970   1.317   5.514
 2308TIP3   OH2 6880   1.510   6.080   2.051
 2308TIP3    H1 6881   1.523   6.127   1.968
 2308TIP3    H2 6882   1.551   6.137   2.117
 2309TIP3   OH2 6883   6.731   1.143   3.136
 2309TIP3    H1 6884   6.808   1.173   3.087
 2309TIP3    H2 6885   6.754   1.055   3.165
 2310TIP3   OH2 6886   5.222   6.655   2.474
 2310TIP3    H1 6887   5.283   6.646   2.547
 2310TIP3    H2 6888   5.148   6.599   2.497
 2311TIP3   OH2 6889   6.169   2.488   5.517
 2311TIP3    H1 6890   6.121   2.447   5.589
 2311TIP3    H2 6891   6.191   2.575   5.550
 2312TIP3   OH2 6892   6.580   2.775   4.556
 2312TIP3    H1 6893   6.598   2.683   4.574
 2312TIP3    H2 6894   6.653   2.823   4.595
 2313TIP3   OH2 6895   5.203   6.967   1.956
 2313TIP3    H1 6896   5.259   6.958   1.879
 2313TIP3    H2 6897   5.180   7.060   1.958
 2314TIP3   OH2 6898   2.242   3.262   4.727
 2314TIP3    H1 6899   2.325   3.289   4.768
 2314TIP3    H2 6900   2.177   3.271   4.796
 2315TIP3   OH2 6901   3.687   2.832   6.613
 2315TIP3    H1 6902   3.632   2.844   6.690
 2315TIP3    H2 6903   3.760   2.892   6.626
 2316TIP3   OH2 6904   2.592   3.963   5.167
 2316TIP3    H1 6905   2.644   3.928   5.094
 2316TIP3    H2 6906   2.504   3.975   5.130
 2317TIP3   OH2 6907   5.278   1.504   4.993
 2317TIP3    H1 6908   5.347   1.542   5.048
 2317TIP3    H2 6909   5.205   1.566   4.999
 2318TIP3   OH2 6910   5.172   2.840   4.745
 2318TIP3    H1 6911   5.195   2.924   4.786
 2318TIP3    H2 6912   5.254   2.808   4.709
 2319TIP3   OH2 6913   1.830   3.564   6.735
 2319TIP3    H1 6914   1.815   3.628   6.665
 2319TIP3    H2 6915   1.925   3.565   6.747
 2320TIP3   OH2 6916   0.955   1.587   0.285
 2320TIP3    H1 6917   0.978   1.643   0.211
 2320TIP3    H2 6918   0.881   1.631   0.327
 2321TIP3   OH2 6919   4.216   5.397   6.578
 2321TIP3    H1 6920   4.134   5.433   6.611
 2321TIP3    H2 6921   4.229   5.439   6.493
 2322TIP3   OH2 6922   2.612   2.859   3.578
 2322TIP3    H1 6923   2.661   2.894   3.653
 2322TIP3    H2 6924   2.609   2.932   3.515
 2323TIP3   OH2 6925   0.460   1.934   4.231
 2323TIP3    H1 6926   0.467   2.026   4.205
 2323TIP3    H2 6927   0.477   1.885   4.150
 2324TIP3   OH2 6928   2.034   1.403   6.417
 2324TIP3    H1 6929   2.129   1.415   6.405
 2324TIP3    H2 6930   2.014   1.448   6.499
 2325TIP3   OH2 6931   0.962   6.305   3.431
 2325TIP3    H1 6932   0.924   6.218   3.439
 2325TIP3    H2 6933   0.988   6.328   3.520
 2326TIP3   OH2 6934   2.791   3.044   6.740
 2326TIP3    H1 6935   2.698   3.045   6.760
 2326TIP3    H2 6936   2.805   3.121   6.686
 2327TIP3   OH2 6937   2.961   5.564   1.109
 2327TIP3    H1 6938   2.978   5.471   1.124
 2327TIP3    H2 6939   2.990   5.607   1.189
 2328TIP3   OH2 6940   2.016   6.665   0.542
 2328TIP3    H1 6941   1.937   6.713   0.520
 2328TIP3    H2 6942   2.086   6.730   0.533
 2329TIP3   OH2 6943   1.951   6.510   1.400
 2329TIP3    H1 6944   1.891   6.575   1.435
 2329TIP3    H2 6945   2.030   6.517   1.454
 2330TIP3   OH2 6946   7.138   3.429   4.254
 2330TIP3    H1 6947   7.207   3.368   4.279
 2330TIP3    H2 6948   7.085   3.439   4.333
 2331TIP3   OH2 6949   2.306   3.542   4.882
 2331TIP3    H1 6950   2.268   3.591   4.955
 2331TIP3    H2 6951   2.360   3.475   4.924
 2332TIP3   OH2 6952   7.721   7.082   0.515
 2332TIP3    H1 6953   7.731   7.176   0.500
 2332TIP3    H2 6954   7.796   7.058   0.570
 2333TIP3   OH2 6955   6.246   6.857   1.372
 2333TIP3    H1 6956   6.244   6.948   1.344
 2333TIP3    H2 6957   6.214   6.859   1.462
 2334TIP3   OH2 6958   3.221   1.280   4.801
 2334TIP3    H1 6959   3.216   1.246   4.890
 2334TIP3    H2 6960   3.288   1.348   4.804
 2335TIP3   OH2 6961   0.093   2.066   0.752
 2335TIP3    H1 6962   0.015   2.011   0.748
 2335TIP3    H2 6963   0.077   2.126   0.825
 2336TIP3   OH2 6964   5.441   5.887   6.716
 2336TIP3    H1 6965   5.374   5.941   6.757
 2336TIP3    H2 6966   5.405   5.864   6.630
 2337TIP3   OH2 6967   1.142   6.440   4.732
 2337TIP3    H1 6968   1.210   6.461   4.797
 2337TIP3    H2 6969   1.183   6.460   4.648
 2338TIP3   OH2 6970   7.364   5.798   2.174
 2338TIP3    H1 6971   7.290   5.740   2.194
 2338TIP3    H2 6972   7.381   5.844   2.256
 2339TIP3   OH2 6973   2.169   5.130   0.563
 2339TIP3    H1 6974   2.084   5.138   0.521
 2339TIP3    H2 6975   2.179   5.212   0.612
 2340TIP3   OH2 6976   4.378   2.654   3.074
 2340TIP3    H1 6977   4.377   2.728   3.135
 2340TIP3    H2 6978   4.469   2.625   3.073
 2341TIP3   OH2 6979   0.475   5.246   3.678
 2341TIP3    H1 6980   0.494   5.338   3.698
 2341TIP3    H2 6981   0.479   5.241   3.583
 2342TIP3   OH2 6982   6.960   7.576   0.545
 2342TIP3    H1 6983   6.947   7.660   0.589
 2342TIP3    H2 6984   6.962   7.512   0.616
 2343TIP3   OH2 6985   0.442   5.291   1.723
 2343TIP3    H1 6986   0.508   5.337   1.672
 2343TIP3    H2 6987   0.452   5.199   1.699
 2344TIP3   OH2 6988   0.620   4.715   5.596
 2344TIP3    H1 6989   0.715   4.719   5.604
 2344TIP3    H2 6990   0.604   4.666   5.515
 2345TIP3   OH2 6991   4.867   2.915   3.640
 2345TIP3    H1 6992   4.880   3.010   3.645
 2345TIP3    H2 6993   4.799   2.897   3.704
 2346TIP3   OH2 6994   6.403   6.644   6.284
 2346TIP3    H1 6995   6.341   6.604   6.345
 2346TIP3    H2 6996   6.473   6.678   6.339
 2347TIP3   OH2 6997   6.577   6.936   3.085
 2347TIP3    H1 6998   6.639   6.961   3.016
 2347TIP3    H2 6999   6.515   6.878   3.042
 2348TIP3   OH2 7000   7.727   6.865   4.049
 2348TIP3    H1 7001   7.695   6.829   4.132
 2348TIP3    H2 7002   7.773   6.945   4.073
 2349TIP3   OH2 7003   0.741   3.025   2.227
 2349TIP3    H1 7004   0.717   2.940   2.263
 2349TIP3    H2 7005   0.713   3.021   2.136
 2350TIP3   OH2 7006   0.845   6.033  -0.010
 2350TIP3    H1 7007   0.861   6.086   0.068
 2350TIP3    H2 7008   0.749   6.032  -0.018
 2351TIP3   OH2 7009   7.724   6.499   0.090
 2351TIP3    H1 7010   7.747   6.576   0.039
 2351TIP3    H2 7011   7.631   6.485   0.074
 2352TIP3   OH2 7012   3.792   4.472   3.652
 2352TIP3    H1 7013   3.876   4.466   3.607
 2352TIP3    H2 7014   3.749   4.388   3.636
 2353TIP3   OH2 7015   2.976   5.605   1.865
 2353TIP3    H1 7016   3.016   5.553   1.796
 2353TIP3    H2 7017   2.923   5.670   1.819
 2354TIP3   OH2 7018   3.765   5.042   6.529
 2354TIP3    H1 7019   3.782   5.056   6.622
 2354TIP3    H2 7020   3.802   5.119   6.486
 2355TIP3   OH2 7021   1.677   5.157   3.754
 2355TIP3    H1 7022   1.608   5.091   3.764
 2355TIP3    H2 7023   1.758   5.111   3.776
 2356TIP3   OH2 7024   4.774   3.292   3.228
 2356TIP3    H1 7025   4.742   3.294   3.318
 2356TIP3    H2 7026   4.709   3.240   3.181
 2357TIP3   OH2 7027   3.841   2.002   6.438
 2357TIP3    H1 7028   3.820   1.913   6.465
 2357TIP3    H2 7029   3.929   1.995   6.400
 2358TIP3   OH2 7030   3.015   1.566   1.937
 2358TIP3    H1 7031   3.008   1.587   1.844
 2358TIP3    H2 7032   2.926   1.545   1.964
 2359TIP3   OH2 7033   0.664   5.611   1.395
 2359TIP3    H1 7034   0.578   5.616   1.355
 2359TIP3    H2 7035   0.662   5.530   1.447
 2360TIP3   OH2 7036   0.234   0.235   1.309
 2360TIP3    H1 7037   0.247   0.319   1.266
 2360TIP3    H2 7038   0.306   0.181   1.278
 2361TIP3   OH2 7039   7.866   7.398   4.562
 2361TIP3    H1 7040   7.948   7.425   4.604
 2361TIP3    H2 7041   7.855   7.459   4.488
 2362TIP3   OH2 7042   2.139   2.660   1.308
 2362TIP3    H1 7043   2.164   2.591   1.369
 2362TIP3    H2 7044   2.169   2.741   1.350
 2363TIP3   OH2 7045   2.336   4.672   5.966
 2363TIP3    H1 7046   2.389   4.654   6.043
 2363TIP3    H2 7047   2.267   4.606   5.969
 2364TIP3   OH2 7048   3.536   2.684   0.718
 2364TIP3    H1 7049   3.594   2.686   0.794
 2364TIP3    H2 7050   3.454   2.650   0.752
 2365TIP3   OH2 7051   7.070   5.448   6.757
 2365TIP3    H1 7052   7.079   5.485   6.669
 2365TIP3    H2 7053   7.090   5.521   6.815
 2366TIP3   OH2 7054   5.319   1.113   3.925
 2366TIP3    H1 7055   5.410   1.084   3.920
 2366TIP3    H2 7056   5.274   1.064   3.856
 2367TIP3   OH2 7057   1.934   7.521   6.000
 2367TIP3    H1 7058   1.926   7.604   5.954
 2367TIP3    H2 7059   1.887   7.535   6.083
 2368TIP3   OH2 7060   5.534   0.080   6.587
 2368TIP3    H1 7061   5.520   0.138   6.662
 2368TIP3    H2 7062   5.619   0.105   6.552
 2369TIP3   OH2 7063   8.207   1.903   2.165
 2369TIP3    H1 7064   8.303   1.899   2.157
 2369TIP3    H2 7065   8.192   1.931   2.255
 2370TIP3   OH2 7066   4.520   5.697   5.655
 2370TIP3    H1 7067   4.568   5.766   5.609
 2370TIP3    H2 7068   4.482   5.643   5.585
 2371TIP3   OH2 7069   5.146   3.115   3.911
 2371TIP3    H1 7070   5.239   3.106   3.890
 2371TIP3    H2 7071   5.137   3.206   3.938
 2372TIP3   OH2 7072   3.943   3.639   5.232
 2372TIP3    H1 7073   3.971   3.547   5.227
 2372TIP3    H2 7074   4.003   3.678   5.295
 2373TIP3   OH2 7075   0.883   7.027   4.715
 2373TIP3    H1 7076   0.911   6.990   4.798
 2373TIP3    H2 7077   0.964   7.057   4.674
 2374TIP3   OH2 7078   5.868   1.175   5.192
 2374TIP3    H1 7079   5.870   1.124   5.272
 2374TIP3    H2 7080   5.935   1.242   5.204
 2375TIP3   OH2 7081   4.625   4.405   6.664
 2375TIP3    H1 7082   4.713   4.441   6.682
 2375TIP3    H2 7083   4.607   4.432   6.574
 2376TIP3   OH2 7084   1.466   0.210   1.457
 2376TIP3    H1 7085   1.459   0.115   1.464
 2376TIP3    H2 7086   1.482   0.240   1.546
 2377TIP3   OH2 7087   7.731   5.367   4.389
 2377TIP3    H1 7088   7.705   5.276   4.402
 2377TIP3    H2 7089   7.649   5.416   4.388
 2378TIP3   OH2 7090   8.208   0.609   2.739
 2378TIP3    H1 7091   8.149   0.534   2.751
 2378TIP3    H2 7092   8.157   0.685   2.768
 2379TIP3   OH2 7093   6.595   6.232   4.466
 2379TIP3    H1 7094   6.637   6.303   4.516
 2379TIP3    H2 7095   6.566   6.170   4.533
 2380TIP3   OH2 7096   4.498   2.467   2.279
 2380TIP3    H1 7097   4.442   2.468   2.356
 2380TIP3    H2 7098   4.560   2.539   2.293
 2381TIP3   OH2 7099   3.094   7.199   4.295
 2381TIP3    H1 7100   3.015   7.225   4.249
 2381TIP3    H2 7101   3.165   7.243   4.248
 2382TIP3   OH2 7102   7.338   2.073   3.632
 2382TIP3    H1 7103   7.425   2.062   3.592
 2382TIP3    H2 7104   7.297   2.143   3.582
 2383TIP3   OH2 7105   4.694   0.656   1.585
 2383TIP3    H1 7106   4.630   0.620   1.524
 2383TIP3    H2 7107   4.774   0.606   1.566
 2384TIP3   OH2 7108   6.730   2.737   2.037
 2384TIP3    H1 7109   6.779   2.672   1.986
 2384TIP3    H2 7110   6.645   2.695   2.053
 2385TIP3   OH2 7111   6.195   5.970   2.172
 2385TIP3    H1 7112   6.233   5.884   2.187
 2385TIP3    H2 7113   6.103   5.952   2.150
 2386TIP3   OH2 7114   3.383   7.300   1.794
 2386TIP3    H1 7115   3.360   7.256   1.712
 2386TIP3    H2 7116   3.310   7.358   1.812
 2387TIP3   OH2 7117   0.024   4.663   1.641
 2387TIP3    H1 7118   0.097   4.608   1.613
 2387TIP3    H2 7119   0.042   4.749   1.603
 2388TIP3   OH2 7120   5.722   2.596   4.274
 2388TIP3    H1 7121   5.802   2.637   4.239
 2388TIP3    H2 7122   5.741   2.580   4.366
 2389TIP3   OH2 7123   7.104   3.496   5.954
 2389TIP3    H1 7124   7.116   3.541   5.870
 2389TIP3    H2 7125   7.193   3.481   5.986
 2390TIP3   OH2 7126   7.269   3.922   0.899
 2390TIP3    H1 7127   7.288   3.851   0.961
 2390TIP3    H2 7128   7.299   3.889   0.815
 2391TIP3   OH2 7129   1.664   3.154   4.623
 2391TIP3    H1 7130   1.743   3.101   4.626
 2391TIP3    H2 7131   1.689   3.237   4.665
 2392TIP3   OH2 7132   2.652   2.407   5.895
 2392TIP3    H1 7133   2.614   2.330   5.937
 2392TIP3    H2 7134   2.580   2.470   5.894
 2393TIP3   OH2 7135   2.563   3.782   0.946
 2393TIP3    H1 7136   2.652   3.811   0.966
 2393TIP3    H2 7137   2.574   3.693   0.911
 2394TIP3   OH2 7138   7.911   1.408   4.251
 2394TIP3    H1 7139   7.912   1.320   4.213
 2394TIP3    H2 7140   7.820   1.422   4.278
 2395TIP3   OH2 7141   5.143   5.790   3.462
 2395TIP3    H1 7142   5.072   5.793   3.398
 2395TIP3    H2 7143   5.159   5.697   3.477
 2396TIP3   OH2 7144   0.113   1.934   3.788
 2396TIP3    H1 7145   0.168   1.945   3.710
 2396TIP3    H2 7146   0.091   1.841   3.789
 2397TIP3   OH2 7147   2.548   2.978   0.788
 2397TIP3    H1 7148   2.540   3.070   0.812
 2397TIP3    H2 7149   2.642   2.963   0.780
 2398TIP3   OH2 7150   1.470   1.452   0.673
 2398TIP3    H1 7151   1.434   1.466   0.585
 2398TIP3    H2 7152   1.396   1.420   0.724
 2399TIP3   OH2 7153   5.668   4.782   5.469
 2399TIP3    H1 7154   5.721   4.747   5.397
 2399TIP3    H2 7155   5.642   4.869   5.439
 2400TIP3   OH2 7156   7.805   3.459   3.051
 2400TIP3    H1 7157   7.899   3.443   3.064
 2400TIP3    H2 7158   7.786   3.534   3.106
 2401TIP3   OH2 7159   5.232   2.850   5.702
 2401TIP3    H1 7160   5.223   2.792   5.627
 2401TIP3    H2 7161   5.148   2.844   5.748
 2402TIP3   OH2 7162   7.851   5.437   3.790
 2402TIP3    H1 7163   7.865   5.531   3.804
 2402TIP3    H2 7164   7.935   5.396   3.811
 2403TIP3   OH2 7165   7.970   3.007   2.673
 2403TIP3    H1 7166   7.991   2.950   2.747
 2403TIP3    H2 7167   7.876   3.024   2.682
 2404TIP3   OH2 7168   3.233   2.194   6.024
 2404TIP3    H1 7169   3.214   2.282   6.056
 2404TIP3    H2 7170   3.196   2.192   5.935
 2405TIP3   OH2 7171   4.876   4.444   5.256
 2405TIP3    H1 7172   4.888   4.370   5.197
 2405TIP3    H2 7173   4.885   4.521   5.201
 2406TIP3   OH2 7174   5.993   6.187   2.359
 2406TIP3    H1 7175   6.060   6.178   2.427
 2406TIP3    H2 7176   6.022   6.261   2.306
 2407TIP3   OH2 7177   4.763   0.806  -0.039
 2407TIP3    H1 7178   4.772   0.781   0.053
 2407TIP3    H2 7179   4.670   0.793  -0.059
 2408TIP3   OH2 7180   0.056   2.360   2.410
 2408TIP3    H1 7181   0.078   2.445   2.373
 2408TIP3    H2 7182  -0.019   2.330   2.359
 2409TIP3   OH2 7183   0.517   1.806   0.823
 2409TIP3    H1 7184   0.502   1.762   0.739
 2409TIP3    H2 7185   0.441   1.783   0.876
 2410TIP3   OH2 7186   1.069   5.757   2.902
 2410TIP3    H1 7187   1.108   5.743   2.988
 2410TIP3    H2 7188   0.979   5.782   2.920
 2411TIP3   OH2 7189   6.354   6.948   2.617
 2411TIP3    H1 7190   6.445   6.935   2.643
 2411TIP3    H2 7191   6.338   7.041   2.633
 2412TIP3   OH2 7192   2.956   7.726   0.459
 2412TIP3    H1 7193   2.875   7.683   0.434
 2412TIP3    H2 7194   2.928   7.810   0.497
 2413TIP3   OH2 7195   0.724   3.914   3.777
 2413TIP3    H1 7196   0.682   3.885   3.858
 2413TIP3    H2 7197   0.657   3.902   3.710
 2414TIP3   OH2 7198   5.753   6.619   2.700
 2414TIP3    H1 7199   5.714   6.674   2.768
 2414TIP3    H2 7200   5.681   6.566   2.667
 2415TIP3   OH2 7201   1.536   6.824   4.291
 2415TIP3    H1 7202   1.474   6.862   4.229
 2415TIP3    H2 7203   1.593   6.769   4.238
 2416TIP3   OH2 7204   5.096   3.655   4.119
 2416TIP3    H1 7205   5.029   3.676   4.053
 2416TIP3    H2 7206   5.068   3.703   4.197
 2417TIP3   OH2 7207   7.988   2.542   2.854
 2417TIP3    H1 7208   7.963   2.633   2.867
 2417TIP3    H2 7209   8.082   2.545   2.835
 2418TIP3   OH2 7210   5.920   2.491   3.134
 2418TIP3    H1 7211   5.994   2.491   3.073
 2418TIP3    H2 7212   5.955   2.452   3.214
 2419TIP3   OH2 7213   3.156   5.715   5.027
 2419TIP3    H1 7214   3.233   5.772   5.030
 2419TIP3    H2 7215   3.144   5.688   5.118
 2420TIP3   OH2 7216   1.855   4.580   1.954
 2420TIP3    H1 7217   1.857   4.580   1.858
 2420TIP3    H2 7218   1.828   4.668   1.978
 2421TIP3   OH2 7219   5.818   7.208   1.396
 2421TIP3    H1 7220   5.729   7.176   1.406
 2421TIP3    H2 7221   5.865   7.135   1.354
 2422TIP3   OH2 7222   8.090   3.843   5.100
 2422TIP3    H1 7223   8.060   3.752   5.100
 2422TIP3    H2 7224   8.179   3.839   5.133
 2423TIP3   OH2 7225   7.877   7.293   6.435
 2423TIP3    H1 7226   7.845   7.272   6.523
 2423TIP3    H2 7227   7.895   7.387   6.438
 2424TIP3   OH2 7228   1.053   7.074   2.646
 2424TIP3    H1 7229   1.073   7.120   2.727
 2424TIP3    H2 7230   0.962   7.098   2.626
 2425TIP3   OH2 7231   0.328   2.668   0.601
 2425TIP3    H1 7232   0.252   2.643   0.653
 2425TIP3    H2 7233   0.356   2.752   0.638
 2426TIP3   OH2 7234   2.864   2.342   1.423
 2426TIP3    H1 7235   2.945   2.294   1.404
 2426TIP3    H2 7236   2.803   2.311   1.355
 2427TIP3   OH2 7237   1.443   2.266   2.542
 2427TIP3    H1 7238   1.525   2.219   2.530
 2427TIP3    H2 7239   1.465   2.340   2.599
 2428TIP3   OH2 7240   1.329   5.182   5.112
 2428TIP3    H1 7241   1.368   5.266   5.087
 2428TIP3    H2 7242   1.402   5.119   5.108
 2429TIP3   OH2 7243   5.877   5.782   1.647
 2429TIP3    H1 7244   5.894   5.856   1.588
 2429TIP3    H2 7245   5.906   5.705   1.599
 2430TIP3   OH2 7246   3.630   1.757   2.092
 2430TIP3    H1 7247   3.678   1.771   2.010
 2430TIP3    H2 7248   3.637   1.663   2.109
 2431TIP3   OH2 7249   4.151   5.650   2.062
 2431TIP3    H1 7250   4.214   5.597   2.012
 2431TIP3    H2 7251   4.068   5.604   2.052
 2432TIP3   OH2 7252   4.434   3.751   2.606
 2432TIP3    H1 7253   4.432   3.670   2.554
 2432TIP3    H2 7254   4.442   3.720   2.696
 2433TIP3   OH2 7255   0.743   6.252   4.780
 2433TIP3    H1 7256   0.778   6.164   4.765
 2433TIP3    H2 7257   0.784   6.306   4.713
 2434TIP3   OH2 7258   3.491   3.773   6.728
 2434TIP3    H1 7259   3.575   3.765   6.684
 2434TIP3    H2 7260   3.493   3.706   6.797
 2435TIP3   OH2 7261   1.868   1.913   1.678
 2435TIP3    H1 7262   1.827   1.858   1.611
 2435TIP3    H2 7263   1.862   2.002   1.642
 2436TIP3   OH2 7264   0.346   4.530   2.683
 2436TIP3    H1 7265   0.375   4.596   2.621
 2436TIP3    H2 7266   0.256   4.554   2.704
 2437TIP3   OH2 7267   2.076   6.176   0.965
 2437TIP3    H1 7268   2.170   6.191   0.977
 2437TIP3    H2 7269   2.035   6.218   1.041
 2438TIP3   OH2 7270   3.791   7.422   5.215
 2438TIP3    H1 7271   3.857   7.415   5.284
 2438TIP3    H2 7272   3.716   7.463   5.257
 2439TIP3   OH2 7273   4.786   3.025   0.855
 2439TIP3    H1 7274   4.783   3.117   0.880
 2439TIP3    H2 7275   4.871   2.994   0.886
 2440TIP3   OH2 7276   4.643   6.168   1.421
 2440TIP3    H1 7277   4.589   6.222   1.363
 2440TIP3    H2 7278   4.608   6.183   1.509
 2441TIP3   OH2 7279   2.516   3.879   4.734
 2441TIP3    H1 7280   2.606   3.895   4.703
 2441TIP3    H2 7281   2.520   3.898   4.828
 2442TIP3   OH2 7282   4.315   5.067   2.525
 2442TIP3    H1 7283   4.390   5.127   2.525
 2442TIP3    H2 7284   4.312   5.033   2.436
 2443TIP3   OH2 7285   1.059   7.049   4.982
 2443TIP3    H1 7286   1.104   7.133   4.987
 2443TIP3    H2 7287   1.001   7.047   5.058
 2444TIP3   OH2 7288   3.731   6.459   6.602
 2444TIP3    H1 7289   3.709   6.511   6.525
 2444TIP3    H2 7290   3.823   6.479   6.619
 2445TIP3   OH2 7291   6.124   7.448   4.234
 2445TIP3    H1 7292   6.076   7.510   4.289
 2445TIP3    H2 7293   6.093   7.467   4.145
 2446TIP3   OH2 7294   1.900   6.936   3.075
 2446TIP3    H1 7295   1.913   6.844   3.055
 2446TIP3    H2 7296   1.895   6.979   2.990
 2447TIP3   OH2 7297   2.405   7.457   2.975
 2447TIP3    H1 7298   2.399   7.543   3.018
 2447TIP3    H2 7299   2.490   7.423   3.000
 2448TIP3   OH2 7300   4.402   1.307   4.619
 2448TIP3    H1 7301   4.380   1.335   4.708
 2448TIP3    H2 7302   4.387   1.212   4.620
 2449TIP3   OH2 7303   0.670   7.042   5.514
 2449TIP3    H1 7304   0.747   7.098   5.521
 2449TIP3    H2 7305   0.596   7.101   5.524
 2450TIP3   OH2 7306   6.125   4.373   0.443
 2450TIP3    H1 7307   6.068   4.398   0.515
 2450TIP3    H2 7308   6.133   4.278   0.450
 2451TIP3   OH2 7309   5.218   0.077   6.005
 2451TIP3    H1 7310   5.155   0.143   5.976
 2451TIP3    H2 7311   5.297   0.095   5.954
 2452TIP3   OH2 7312   4.745   7.695   2.783
 2452TIP3    H1 7313   4.779   7.764   2.726
 2452TIP3    H2 7314   4.747   7.616   2.728
 2453TIP3   OH2 7315   5.269   2.802   3.119
 2453TIP3    H1 7316   5.358   2.831   3.100
 2453TIP3    H2 7317   5.214   2.878   3.098
 2454TIP3   OH2 7318   7.442   4.663   0.535
 2454TIP3    H1 7319   7.359   4.678   0.490
 2454TIP3    H2 7320   7.480   4.587   0.492
 2455TIP3   OH2 7321   2.866   7.151   1.888
 2455TIP3    H1 7322   2.805   7.148   1.962
 2455TIP3    H2 7323   2.874   7.059   1.861
 2456TIP3   OH2 7324   8.215   7.453   6.571
 2456TIP3    H1 7325   8.310   7.445   6.582
 2456TIP3    H2 7326   8.179   7.380   6.622
 2457TIP3   OH2 7327   2.096   0.492   0.307
 2457TIP3    H1 7328   2.089   0.521   0.398
 2457TIP3    H2 7329   2.068   0.568   0.256
 2458TIP3   OH2 7330   2.668   2.836   1.810
 2458TIP3    H1 7331   2.738   2.861   1.750
 2458TIP3    H2 7332   2.707   2.769   1.866
 2459TIP3   OH2 7333   2.171   1.437   3.875
 2459TIP3    H1 7334   2.199   1.346   3.870
 2459TIP3    H2 7335   2.116   1.449   3.798
 2460TIP3   OH2 7336   1.943   6.883   4.550
 2460TIP3    H1 7337   1.893   6.801   4.550
 2460TIP3    H2 7338   1.995   6.879   4.629
 2461TIP3   OH2 7339   3.111   2.427   4.436
 2461TIP3    H1 7340   3.136   2.450   4.526
 2461TIP3    H2 7341   3.095   2.333   4.438
 2462TIP3   OH2 7342   5.165   2.440   1.272
 2462TIP3    H1 7343   5.105   2.467   1.202
 2462TIP3    H2 7344   5.162   2.511   1.336
 2463TIP3   OH2 7345   6.767   5.461   0.891
 2463TIP3    H1 7346   6.772   5.500   0.804
 2463TIP3    H2 7347   6.849   5.413   0.901
 2464TIP3   OH2 7348   8.231   1.836   3.504
 2464TIP3    H1 7349   8.303   1.898   3.496
 2464TIP3    H2 7350   8.238   1.781   3.425
 2465TIP3   OH2 7351   0.730   6.580   0.806
 2465TIP3    H1 7352   0.795   6.545   0.866
 2465TIP3    H2 7353   0.745   6.533   0.724
 2466TIP3   OH2 7354   3.126   1.033   3.658
 2466TIP3    H1 7355   3.120   0.937   3.654
 2466TIP3    H2 7356   3.212   1.053   3.622
 2467TIP3   OH2 7357   4.204   5.898   3.596
 2467TIP3    H1 7358   4.185   5.957   3.524
 2467TIP3    H2 7359   4.119   5.867   3.626
 2468TIP3   OH2 7360   1.011   2.473   2.281
 2468TIP3    H1 7361   1.009   2.561   2.319
 2468TIP3    H2 7362   1.068   2.423   2.340
 2469TIP3   OH2 7363   1.837   3.909   5.221
 2469TIP3    H1 7364   1.788   3.892   5.141
 2469TIP3    H2 7365   1.842   4.005   5.226
 2470TIP3   OH2 7366   4.941   1.156   4.377
 2470TIP3    H1 7367   4.983   1.191   4.298
 2470TIP3    H2 7368   4.848   1.179   4.366
 2471TIP3   OH2 7369   8.269   6.899   3.588
 2471TIP3    H1 7370   8.186   6.902   3.542
 2471TIP3    H2 7371   8.331   6.863   3.524
 2472TIP3   OH2 7372   6.741   2.735   2.587
 2472TIP3    H1 7373   6.737   2.668   2.654
 2472TIP3    H2 7374   6.653   2.738   2.550
 2473TIP3   OH2 7375   3.133   6.441   0.581
 2473TIP3    H1 7376   3.158   6.533   0.575
 2473TIP3    H2 7377   3.059   6.431   0.521
 2474TIP3   OH2 7378   6.014   7.087   4.885
 2474TIP3    H1 7379   6.028   7.065   4.978
 2474TIP3    H2 7380   6.032   7.180   4.880
 2475TIP3   OH2 7381   5.592   6.169   0.254
 2475TIP3    H1 7382   5.553   6.209   0.332
 2475TIP3    H2 7383   5.664   6.228   0.230
 2476TIP3   OH2 7384   2.448   2.280   1.274
 2476TIP3    H1 7385   2.442   2.187   1.297
 2476TIP3    H2 7386   2.541   2.297   1.262
 2477TIP3   OH2 7387   7.533   6.775   3.453
 2477TIP3    H1 7388   7.534   6.785   3.358
 2477TIP3    H2 7389   7.551   6.863   3.487
 2478TIP3   OH2 7390   7.406   0.927   5.675
 2478TIP3    H1 7391   7.334   0.979   5.639
 2478TIP3    H2 7392   7.467   0.917   5.603
 2479TIP3   OH2 7393   0.265   3.797   0.100
 2479TIP3    H1 7394   0.317   3.836   0.029
 2479TIP3    H2 7395   0.235   3.872   0.151
 2480TIP3   OH2 7396   7.943   0.891   3.560
 2480TIP3    H1 7397   8.037   0.884   3.577
 2480TIP3    H2 7398   7.932   0.977   3.518
 2481TIP3   OH2 7399   8.318   6.768   6.117
 2481TIP3    H1 7400   8.298   6.676   6.099
 2481TIP3    H2 7401   8.266   6.816   6.053
 2482TIP3   OH2 7402   4.482   5.298   2.487
 2482TIP3    H1 7403   4.518   5.370   2.537
 2482TIP3    H2 7404   4.508   5.315   2.396
 2483TIP3   OH2 7405   7.444   0.300   1.952
 2483TIP3    H1 7406   7.516   0.298   2.015
 2483TIP3    H2 7407   7.452   0.217   1.904
 2484TIP3   OH2 7408   0.500   3.153   0.553
 2484TIP3    H1 7409   0.424   3.184   0.504
 2484TIP3    H2 7410   0.559   3.228   0.556
 2485TIP3   OH2 7411   1.400   6.924   1.106
 2485TIP3    H1 7412   1.324   6.978   1.128
 2485TIP3    H2 7413   1.374   6.835   1.129
 2486TIP3   OH2 7414   7.711   5.907   0.314
 2486TIP3    H1 7415   7.778   5.855   0.269
 2486TIP3    H2 7416   7.736   5.998   0.298
 2487TIP3   OH2 7417   0.106   5.311   0.341
 2487TIP3    H1 7418   0.089   5.301   0.435
 2487TIP3    H2 7419   0.122   5.405   0.329
 2488TIP3   OH2 7420   1.747   6.323   3.360
 2488TIP3    H1 7421   1.802   6.248   3.383
 2488TIP3    H2 7422   1.780   6.395   3.415
 2489TIP3   OH2 7423   6.223   7.355   5.655
 2489TIP3    H1 7424   6.278   7.276   5.654
 2489TIP3    H2 7425   6.161   7.339   5.726
 2490TIP3   OH2 7426   4.699   4.306   0.890
 2490TIP3    H1 7427   4.658   4.362   0.824
 2490TIP3    H2 7428   4.715   4.364   0.964
 2491TIP3   OH2 7429   2.413   1.734   3.858
 2491TIP3    H1 7430   2.487   1.678   3.883
 2491TIP3    H2 7431   2.337   1.677   3.866
 2492TIP3   OH2 7432   3.177   4.549   1.766
 2492TIP3    H1 7433   3.269   4.572   1.770
 2492TIP3    H2 7434   3.138   4.611   1.705
 2493TIP3   OH2 7435   6.685   2.161   0.738
 2493TIP3    H1 7436   6.630   2.222   0.787
 2493TIP3    H2 7437   6.772   2.201   0.740
 2494TIP3   OH2 7438   2.010   1.844   5.937
 2494TIP3    H1 7439   2.043   1.921   5.983
 2494TIP3    H2 7440   2.084   1.812   5.886
 2495TIP3   OH2 7441   4.259   3.263   4.464
 2495TIP3    H1 7442   4.219   3.350   4.470
 2495TIP3    H2 7443   4.190   3.209   4.425
 2496TIP3   OH2 7444   5.048   7.504   1.672
 2496TIP3    H1 7445   5.026   7.445   1.743
 2496TIP3    H2 7446   5.040   7.592   1.710
 2497TIP3   OH2 7447   8.016   4.482   0.668
 2497TIP3    H1 7448   7.990   4.390   0.662
 2497TIP3    H2 7449   7.951   4.529   0.617
 2498TIP3   OH2 7450   5.579   0.757   4.601
 2498TIP3    H1 7451   5.495   0.748   4.647
 2498TIP3    H2 7452   5.597   0.851   4.602
 2499TIP3   OH2 7453   6.209   6.375   3.354
 2499TIP3    H1 7454   6.279   6.348   3.414
 2499TIP3    H2 7455   6.134   6.321   3.379
 2500TIP3   OH2 7456   4.575   3.976   5.405
 2500TIP3    H1 7457   4.662   3.962   5.443
 2500TIP3    H2 7458   4.551   4.065   5.432
 2501TIP3   OH2 7459   4.016   7.191   5.173
 2501TIP3    H1 7460   3.991   7.183   5.265
 2501TIP3    H2 7461   3.936   7.217   5.128
 2502TIP3   OH2 7462   4.732   2.498   0.105
 2502TIP3    H1 7463   4.755   2.586   0.135
 2502TIP3    H2 7464   4.645   2.482   0.143
 2503TIP3   OH2 7465   3.841   3.669   0.157
 2503TIP3    H1 7466   3.928   3.633   0.138
 2503TIP3    H2 7467   3.786   3.592   0.169
 2504TIP3   OH2 7468   6.769   1.243   0.887
 2504TIP3    H1 7469   6.684   1.278   0.860
 2504TIP3    H2 7470   6.823   1.321   0.902
 2505TIP3   OH2 7471   0.173   7.765   0.905
 2505TIP3    H1 7472   0.208   7.847   0.939
 2505TIP3    H2 7473   0.248   7.724   0.862
 2506TIP3   OH2 7474   1.544   7.605   2.734
 2506TIP3    H1 7475   1.621   7.550   2.748
 2506TIP3    H2 7476   1.578   7.683   2.691
 2507TIP3   OH2 7477   8.044   7.285  -0.008
 2507TIP3    H1 7478   8.074   7.362  -0.058
 2507TIP3    H2 7479   8.091   7.291   0.075
 2508TIP3   OH2 7480   3.769   7.145   2.136
 2508TIP3    H1 7481   3.745   7.232   2.166
 2508TIP3    H2 7482   3.698   7.120   2.077
 2509TIP3   OH2 7483   6.047   2.739   4.803
 2509TIP3    H1 7484   5.971   2.686   4.781
 2509TIP3    H2 7485   6.083   2.698   4.882
 2510TIP3   OH2 7486   7.043   0.043   2.075
 2510TIP3    H1 7487   7.032   0.027   2.169
 2510TIP3    H2 7488   7.101   0.119   2.071
 2511TIP3   OH2 7489   1.646   7.091   3.146
 2511TIP3    H1 7490   1.720   7.057   3.095
 2511TIP3    H2 7491   1.594   7.014   3.167
 2512TIP3   OH2 7492   4.963   0.120   4.475
 2512TIP3    H1 7493   4.936   0.154   4.561
 2512TIP3    H2 7494   4.891   0.063   4.448
 2513TIP3   OH2 7495   2.444   5.107   0.580
 2513TIP3    H1 7496   2.350   5.125   0.584
 2513TIP3    H2 7497   2.483   5.166   0.644
 2514TIP3   OH2 7498   1.423   1.799   3.468
 2514TIP3    H1 7499   1.408   1.708   3.443
 2514TIP3    H2 7500   1.393   1.804   3.559
 2515TIP3   OH2 7501   1.853   7.248   0.701
 2515TIP3    H1 7502   1.850   7.155   0.680
 2515TIP3    H2 7503   1.854   7.251   0.797
 2516TIP3   OH2 7504   4.012   1.831   2.735
 2516TIP3    H1 7505   3.960   1.901   2.695
 2516TIP3    H2 7506   4.001   1.757   2.677
 2517TIP3   OH2 7507   6.400   3.748   0.220
 2517TIP3    H1 7508   6.392   3.826   0.165
 2517TIP3    H2 7509   6.494   3.735   0.229
 2518TIP3   OH2 7510   2.577   5.805   4.011
 2518TIP3    H1 7511   2.647   5.783   4.072
 2518TIP3    H2 7512   2.618   5.803   3.925
 2519TIP3   OH2 7513   7.780   6.295   1.612
 2519TIP3    H1 7514   7.821   6.209   1.605
 2519TIP3    H2 7515   7.780   6.330   1.523
 2520TIP3   OH2 7516   4.403   7.042   1.607
 2520TIP3    H1 7517   4.338   7.005   1.548
 2520TIP3    H2 7518   4.483   7.048   1.554
 2521TIP3   OH2 7519   5.769   1.432   3.761
 2521TIP3    H1 7520   5.738   1.457   3.848
 2521TIP3    H2 7521   5.698   1.378   3.725
 2522TIP3   OH2 7522   2.677   6.067   2.142
 2522TIP3    H1 7523   2.632   6.128   2.083
 2522TIP3    H2 7524   2.742   6.121   2.188
 2523TIP3   OH2 7525   8.056   0.209   3.068
 2523TIP3    H1 7526   8.107   0.289   3.052
 2523TIP3    H2 7527   8.064   0.159   2.987
 2524TIP3   OH2 7528   2.003   2.343   1.174
 2524TIP3    H1 7529   1.948   2.391   1.112
 2524TIP3    H2 7530   2.073   2.404   1.196
 2525TIP3   OH2 7531   0.186   0.180   2.358
 2525TIP3    H1 7532   0.196   0.116   2.287
 2525TIP3    H2 7533   0.099   0.216   2.344
 2526TIP3   OH2 7534   6.376   7.297   5.279
 2526TIP3    H1 7535   6.351   7.268   5.192
 2526TIP3    H2 7536   6.336   7.384   5.288
 2527TIP3   OH2 7537   5.007   0.050   1.159
 2527TIP3    H1 7538   4.977  -0.036   1.191
 2527TIP3    H2 7539   5.076   0.029   1.096
 2528TIP3   OH2 7540   4.471   3.314   0.069
 2528TIP3    H1 7541   4.411   3.352   0.133
 2528TIP3    H2 7542   4.558   3.333   0.104
 2529TIP3   OH2 7543   6.631   0.073   2.598
 2529TIP3    H1 7544   6.541   0.060   2.569
 2529TIP3    H2 7545   6.625   0.136   2.669
 2530TIP3   OH2 7546   2.634   0.772   3.422
 2530TIP3    H1 7547   2.620   0.767   3.517
 2530TIP3    H2 7548   2.727   0.788   3.412
 2531TIP3   OH2 7549   7.437   0.436   3.810
 2531TIP3    H1 7550   7.348   0.407   3.831
 2531TIP3    H2 7551   7.447   0.416   3.717
 2532TIP3   OH2 7552   5.351   3.387   3.949
 2532TIP3    H1 7553   5.304   3.369   3.868
 2532TIP3    H2 7554   5.283   3.391   4.016
 2533TIP3   OH2 7555   3.513   0.914   4.183
 2533TIP3    H1 7556   3.572   0.985   4.206
 2533TIP3    H2 7557   3.553   0.835   4.220
 2534TIP3   OH2 7558   0.156   7.634   5.366
 2534TIP3    H1 7559   0.210   7.707   5.336
 2534TIP3    H2 7560   0.170   7.566   5.300
 2535TIP3   OH2 7561   0.715   3.109   3.098
 2535TIP3    H1 7562   0.756   3.099   3.184
 2535TIP3    H2 7563   0.622   3.118   3.116
 2536TIP3   OH2 7564   6.589   6.059   1.062
 2536TIP3    H1 7565   6.508   6.110   1.063
 2536TIP3    H2 7566   6.608   6.045   0.969
 2537TIP3   OH2 7567   5.035   3.397   3.302
 2537TIP3    H1 7568   5.074   3.319   3.341
 2537TIP3    H2 7569   4.989   3.364   3.224
 2538TIP3   OH2 7570   6.367   5.687   3.033
 2538TIP3    H1 7571   6.284   5.667   3.076
 2538TIP3    H2 7572   6.345   5.752   2.966
 2539TIP3   OH2 7573   1.662   2.757   6.490
 2539TIP3    H1 7574   1.590   2.696   6.504
 2539TIP3    H2 7575   1.662   2.812   6.569
 2540TIP3   OH2 7576   5.149   1.329   0.775
 2540TIP3    H1 7577   5.201   1.409   0.771
 2540TIP3    H2 7578   5.064   1.353   0.738
 2541TIP3   OH2 7579   3.768   5.143   5.499
 2541TIP3    H1 7580   3.699   5.118   5.561
 2541TIP3    H2 7581   3.850   5.130   5.548
 2542TIP3   OH2 7582   3.309   2.343   5.076
 2542TIP3    H1 7583   3.385   2.349   5.018
 2542TIP3    H2 7584   3.322   2.413   5.140
 2543TIP3   OH2 7585   1.172   2.312   0.128
 2543TIP3    H1 7586   1.118   2.274   0.198
 2543TIP3    H2 7587   1.125   2.290   0.047
 2544TIP3   OH2 7588   2.730   7.487   1.485
 2544TIP3    H1 7589   2.659   7.494   1.548
 2544TIP3    H2 7590   2.777   7.408   1.511
 2545TIP3   OH2 7591   6.095   7.792   5.509
 2545TIP3    H1 7592   6.153   7.832   5.574
 2545TIP3    H2 7593   6.028   7.747   5.560
 2546TIP3   OH2 7594   0.915   4.381   2.105
 2546TIP3    H1 7595   0.932   4.342   2.019
 2546TIP3    H2 7596   0.895   4.307   2.161
 2547TIP3   OH2 7597   6.432   3.107   0.352
 2547TIP3    H1 7598   6.485   3.085   0.429
 2547TIP3    H2 7599   6.377   3.030   0.339
 2548TIP3   OH2 7600   6.329   3.427   1.415
 2548TIP3    H1 7601   6.321   3.362   1.346
 2548TIP3    H2 7602   6.382   3.384   1.483
 2549TIP3   OH2 7603   2.871   3.612   4.201
 2549TIP3    H1 7604   2.927   3.634   4.127
 2549TIP3    H2 7605   2.798   3.563   4.163
 2550TIP3   OH2 7606   5.293   4.947   2.529
 2550TIP3    H1 7607   5.364   4.985   2.476
 2550TIP3    H2 7608   5.215   4.955   2.474
 2551TIP3   OH2 7609   2.810   6.988   6.689
 2551TIP3    H1 7610   2.810   7.079   6.716
 2551TIP3    H2 7611   2.737   6.981   6.627
 2552TIP3   OH2 7612   5.962   1.423   6.724
 2552TIP3    H1 7613   6.042   1.393   6.681
 2552TIP3    H2 7614   5.911   1.464   6.655
 2553TIP3   OH2 7615   5.491   0.162   1.717
 2553TIP3    H1 7616   5.501   0.246   1.674
 2553TIP3    H2 7617   5.555   0.105   1.674
 2554TIP3   OH2 7618   2.400   1.098   5.835
 2554TIP3    H1 7619   2.419   1.142   5.918
 2554TIP3    H2 7620   2.462   1.134   5.773
 2555TIP3   OH2 7621   5.934   3.448   6.018
 2555TIP3    H1 7622   5.879   3.392   5.963
 2555TIP3    H2 7623   5.889   3.532   6.019
 2556TIP3   OH2 7624   5.698   5.443   6.443
 2556TIP3    H1 7625   5.610   5.408   6.432
 2556TIP3    H2 7626   5.717   5.431   6.536
 2557TIP3   OH2 7627   5.094   7.237   3.836
 2557TIP3    H1 7628   5.069   7.150   3.867
 2557TIP3    H2 7629   5.135   7.278   3.912
 2558TIP3   OH2 7630   1.499   1.010   1.719
 2558TIP3    H1 7631   1.558   0.937   1.698
 2558TIP3    H2 7632   1.557   1.086   1.727
 2559TIP3   OH2 7633   0.774   4.961   5.342
 2559TIP3    H1 7634   0.788   4.877   5.298
 2559TIP3    H2 7635   0.826   4.955   5.422
 2560TIP3   OH2 7636   3.492   0.764   3.787
 2560TIP3    H1 7637   3.414   0.818   3.780
 2560TIP3    H2 7638   3.468   0.681   3.746
 2561TIP3   OH2 7639   0.226   5.507   4.244
 2561TIP3    H1 7640   0.262   5.421   4.223
 2561TIP3    H2 7641   0.131   5.494   4.249
 2562TIP3   OH2 7642   4.692   2.329   5.414
 2562TIP3    H1 7643   4.679   2.277   5.493
 2562TIP3    H2 7644   4.765   2.387   5.434
 2563TIP3   OH2 7645   6.421   1.503   1.912
 2563TIP3    H1 7646   6.407   1.592   1.878
 2563TIP3    H2 7647   6.494   1.469   1.860
 2564TIP3   OH2 7648   2.989   6.736   0.685
 2564TIP3    H1 7649   3.008   6.737   0.778
 2564TIP3    H2 7650   2.894   6.751   0.679
 2565TIP3   OH2 7651   2.936   3.350   1.127
 2565TIP3    H1 7652   2.857   3.321   1.175
 2565TIP3    H2 7653   2.984   3.269   1.110
 2566TIP3   OH2 7654   3.293   1.215   4.470
 2566TIP3    H1 7655   3.323   1.252   4.387
 2566TIP3    H2 7656   3.199   1.203   4.459
 2567TIP3   OH2 7657   1.041   7.597   1.664
 2567TIP3    H1 7658   1.113   7.590   1.601
 2567TIP3    H2 7659   0.966   7.625   1.612
 2568TIP3   OH2 7660   5.230   3.946   3.380
 2568TIP3    H1 7661   5.167   4.011   3.349
 2568TIP3    H2 7662   5.185   3.862   3.374
 2569TIP3   OH2 7663   1.669   2.515   3.531
 2569TIP3    H1 7664   1.753   2.478   3.503
 2569TIP3    H2 7665   1.671   2.509   3.626
 2570TIP3   OH2 7666   7.928   2.202   4.809
 2570TIP3    H1 7667   7.909   2.289   4.775
 2570TIP3    H2 7668   7.955   2.218   4.900
 2571TIP3   OH2 7669   0.369   7.460   3.545
 2571TIP3    H1 7670   0.288   7.491   3.583
 2571TIP3    H2 7671   0.371   7.366   3.564
 2572TIP3   OH2 7672   3.596   1.244   0.779
 2572TIP3    H1 7673   3.584   1.151   0.758
 2572TIP3    H2 7674   3.675   1.269   0.733
 2573TIP3   OH2 7675   4.217   6.825   5.132
 2573TIP3    H1 7676   4.281   6.765   5.093
 2573TIP3    H2 7677   4.234   6.909   5.091
 2574TIP3   OH2 7678   5.550   6.686   5.413
 2574TIP3    H1 7679   5.540   6.759   5.474
 2574TIP3    H2 7680   5.506   6.716   5.333
 2575TIP3   OH2 7681   4.400   0.731   4.083
 2575TIP3    H1 7682   4.472   0.668   4.084
 2575TIP3    H2 7683   4.441   0.815   4.066
 2576TIP3   OH2 7684   3.474   5.194   2.371
 2576TIP3    H1 7685   3.488   5.100   2.383
 2576TIP3    H2 7686   3.555   5.235   2.403
 2577TIP3   OH2 7687   2.518   1.841   0.478
 2577TIP3    H1 7688   2.579   1.874   0.544
 2577TIP3    H2 7689   2.559   1.760   0.446
 2578TIP3   OH2 7690   3.781   4.049   4.445
 2578TIP3    H1 7691   3.718   4.069   4.376
 2578TIP3    H2 7692   3.736   4.071   4.526
 2579TIP3   OH2 7693   1.591   4.173   4.365
 2579TIP3    H1 7694   1.676   4.141   4.394
 2579TIP3    H2 7695   1.529   4.104   4.390
 2580TIP3   OH2 7696   0.652   4.988   6.137
 2580TIP3    H1 7697   0.581   5.021   6.081
 2580TIP3    H2 7698   0.731   5.000   6.085
 2581TIP3   OH2 7699   8.080   7.024   4.666
 2581TIP3    H1 7700   8.041   7.078   4.597
 2581TIP3    H2 7701   8.156   6.984   4.624
 2582TIP3   OH2 7702   2.031   4.020   6.312
 2582TIP3    H1 7703   2.027   4.044   6.220
 2582TIP3    H2 7704   2.124   4.006   6.330
 2583TIP3   OH2 7705   2.178   1.543   4.406
 2583TIP3    H1 7706   2.234   1.493   4.466
 2583TIP3    H2 7707   2.099   1.562   4.457
 2584TIP3   OH2 7708   7.775   2.431   4.725
 2584TIP3    H1 7709   7.787   2.399   4.636
 2584TIP3    H2 7710   7.689   2.399   4.751
 2585TIP3   OH2 7711   5.539   2.850   6.572
 2585TIP3    H1 7712   5.535   2.940   6.603
 2585TIP3    H2 7713   5.580   2.856   6.486
 2586TIP3   OH2 7714   4.877   5.932   5.105
 2586TIP3    H1 7715   4.943   5.965   5.044
 2586TIP3    H2 7716   4.907   5.960   5.191
 2587TIP3   OH2 7717   6.621   7.493   0.853
 2587TIP3    H1 7718   6.572   7.493   0.935
 2587TIP3    H2 7719   6.645   7.401   0.839
 2588TIP3   OH2 7720   4.338   6.315   6.704
 2588TIP3    H1 7721   4.360   6.399   6.745
 2588TIP3    H2 7722   4.415   6.261   6.719
 2589TIP3   OH2 7723   5.639   2.577   3.160
 2589TIP3    H1 7724   5.714   2.518   3.150
 2589TIP3    H2 7725   5.601   2.583   3.072
 2590TIP3   OH2 7726   5.615   5.992   0.008
 2590TIP3    H1 7727   5.549   5.928   0.037
 2590TIP3    H2 7728   5.575   6.077   0.025
 2591TIP3   OH2 7729   4.837   5.403   6.065
 2591TIP3    H1 7730   4.890   5.396   5.986
 2591TIP3    H2 7731   4.848   5.494   6.094
 2592TIP3   OH2 7732   6.991   5.234   0.240
 2592TIP3    H1 7733   7.062   5.175   0.214
 2592TIP3    H2 7734   6.988   5.300   0.170
 2593TIP3   OH2 7735   2.614   0.559   2.994
 2593TIP3    H1 7736   2.598   0.535   2.903
 2593TIP3    H2 7737   2.653   0.480   3.032
 2594TIP3   OH2 7738   5.939   1.049   3.363
 2594TIP3    H1 7739   5.919   1.043   3.270
 2594TIP3    H2 7740   5.980   1.134   3.373
 2595TIP3   OH2 7741   5.242   5.480   2.131
 2595TIP3    H1 7742   5.227   5.511   2.041
 2595TIP3    H2 7743   5.217   5.554   2.186
 2596TIP3   OH2 7744   0.467   6.106   3.920
 2596TIP3    H1 7745   0.418   6.099   4.002
 2596TIP3    H2 7746   0.452   6.196   3.891
 2597TIP3   OH2 7747   7.097   4.827   4.749
 2597TIP3    H1 7748   7.115   4.736   4.770
 2597TIP3    H2 7749   7.169   4.853   4.691
 2598TIP3   OH2 7750   4.864   1.692   2.889
 2598TIP3    H1 7751   4.793   1.631   2.872
 2598TIP3    H2 7752   4.821   1.770   2.924
 2599TIP3   OH2 7753   6.650   1.186   0.230
 2599TIP3    H1 7754   6.739   1.202   0.261
 2599TIP3    H2 7755   6.637   1.092   0.241
 2600TIP3   OH2 7756   6.978   6.428   2.833
 2600TIP3    H1 7757   7.068   6.406   2.810
 2600TIP3    H2 7758   6.959   6.507   2.782
 2601TIP3   OH2 7759   0.044   7.563   1.863
 2601TIP3    H1 7760   0.137   7.539   1.865
 2601TIP3    H2 7761  -0.002   7.480   1.864
 2602TIP3   OH2 7762   4.766   5.610   6.448
 2602TIP3    H1 7763   4.721   5.574   6.372
 2602TIP3    H2 7764   4.712   5.582   6.523
 2603TIP3   OH2 7765   5.991   4.059   1.143
 2603TIP3    H1 7766   6.074   4.080   1.188
 2603TIP3    H2 7767   5.930   4.039   1.214
 2604TIP3   OH2 7768   6.236   2.271   1.330
 2604TIP3    H1 7769   6.303   2.287   1.264
 2604TIP3    H2 7770   6.172   2.341   1.316
 2605TIP3   OH2 7771   5.049   4.288   2.115
 2605TIP3    H1 7772   5.012   4.225   2.177
 2605TIP3    H2 7773   4.996   4.367   2.126
 2606TIP3   OH2 7774   3.242   7.351   4.114
 2606TIP3    H1 7775   3.329   7.361   4.153
 2606TIP3    H2 7776   3.259   7.330   4.023
 2607TIP3   OH2 7777   3.739   5.367   1.777
 2607TIP3    H1 7778   3.708   5.458   1.783
 2607TIP3    H2 7779   3.676   5.324   1.720
 2608TIP3   OH2 7780   0.005   3.313   4.157
 2608TIP3    H1 7781  -0.036   3.360   4.084
 2608TIP3    H2 7782   0.054   3.380   4.204
 2609TIP3   OH2 7783   6.931   3.726   0.785
 2609TIP3    H1 7784   6.871   3.661   0.824
 2609TIP3    H2 7785   6.923   3.711   0.691
 2610TIP3   OH2 7786   7.530   3.263   5.056
 2610TIP3    H1 7787   7.594   3.318   5.102
 2610TIP3    H2 7788   7.486   3.214   5.126
 2611TIP3   OH2 7789   3.091   0.161   0.971
 2611TIP3    H1 7790   3.133   0.122   0.894
 2611TIP3    H2 7791   3.159   0.157   1.039
 2612TIP3   OH2 7792   6.027   5.657   0.577
 2612TIP3    H1 7793   6.067   5.727   0.628
 2612TIP3    H2 7794   6.012   5.587   0.640
 2613TIP3   OH2 7795   6.556   1.890   4.131
 2613TIP3    H1 7796   6.626   1.954   4.144
 2613TIP3    H2 7797   6.547   1.847   4.217
 2614TIP3   OH2 7798   0.504   3.716   5.456
 2614TIP3    H1 7799   0.528   3.805   5.483
 2614TIP3    H2 7800   0.480   3.672   5.537
 2615TIP3   OH2 7801   3.241   3.128   3.324
 2615TIP3    H1 7802   3.316   3.168   3.368
 2615TIP3    H2 7803   3.214   3.057   3.383
 2616TIP3   OH2 7804   4.010   6.086   2.663
 2616TIP3    H1 7805   4.083   6.051   2.611
 2616TIP3    H2 7806   4.046   6.096   2.751
 2617TIP3   OH2 7807   4.478   1.985   2.876
 2617TIP3    H1 7808   4.521   1.916   2.925
 2617TIP3    H2 7809   4.549   2.042   2.846
 2618TIP3   OH2 7810   7.420   2.112   1.337
 2618TIP3    H1 7811   7.420   2.179   1.405
 2618TIP3    H2 7812   7.509   2.078   1.337
 2619TIP3   OH2 7813   3.814   7.350   3.114
 2619TIP3    H1 7814   3.815   7.433   3.067
 2619TIP3    H2 7815   3.821   7.283   3.046
 2620TIP3   OH2 7816   2.609   4.742   6.527
 2620TIP3    H1 7817   2.538   4.805   6.521
 2620TIP3    H2 7818   2.600   4.687   6.450
 2621TIP3   OH2 7819   4.379   0.963   6.517
 2621TIP3    H1 7820   4.435   0.915   6.456
 2621TIP3    H2 7821   4.356   1.044   6.470
 2622TIP3   OH2 7822   4.807   3.596   3.539
 2622TIP3    H1 7823   4.775   3.555   3.619
 2622TIP3    H2 7824   4.728   3.608   3.486
 2623TIP3   OH2 7825   6.260   6.048   4.849
 2623TIP3    H1 7826   6.222   5.980   4.793
 2623TIP3    H2 7827   6.346   6.066   4.810
 2624TIP3   OH2 7828   2.162   0.476   6.093
 2624TIP3    H1 7829   2.179   0.505   6.183
 2624TIP3    H2 7830   2.248   0.454   6.058
 2625TIP3   OH2 7831   6.754   5.177   3.743
 2625TIP3    H1 7832   6.698   5.249   3.772
 2625TIP3    H2 7833   6.823   5.220   3.692
 2626TIP3   OH2 7834   0.748   0.429   3.391
 2626TIP3    H1 7835   0.775   0.506   3.341
 2626TIP3    H2 7836   0.696   0.378   3.328
 2627TIP3   OH2 7837   4.674   2.439   1.220
 2627TIP3    H1 7838   4.695   2.466   1.309
 2627TIP3    H2 7839   4.657   2.521   1.173
 2628TIP3   OH2 7840   0.454   4.863   3.993
 2628TIP3    H1 7841   0.543   4.830   3.994
 2628TIP3    H2 7842   0.437   4.889   4.084
 2629TIP3   OH2 7843   7.258   5.789   5.318
 2629TIP3    H1 7844   7.343   5.750   5.340
 2629TIP3    H2 7845   7.207   5.781   5.399
 2630TIP3   OH2 7846   1.330   4.048   1.834
 2630TIP3    H1 7847   1.335   4.143   1.845
 2630TIP3    H2 7848   1.370   4.031   1.748
 2631TIP3   OH2 7849   2.965   4.377   4.028
 2631TIP3    H1 7850   2.895   4.416   3.974
 2631TIP3    H2 7851   2.975   4.288   3.994
 2632TIP3   OH2 7852   1.010   4.788   6.204
 2632TIP3    H1 7853   1.003   4.862   6.145
 2632TIP3    H2 7854   0.954   4.721   6.166
 2633TIP3   OH2 7855   2.695   3.785   3.712
 2633TIP3    H1 7856   2.783   3.820   3.699
 2633TIP3    H2 7857   2.637   3.859   3.693
 2634TIP3   OH2 7858   1.842   4.319   5.753
 2634TIP3    H1 7859   1.901   4.294   5.824
 2634TIP3    H2 7860   1.898   4.360   5.688
 2635TIP3   OH2 7861   2.343   1.506   0.394
 2635TIP3    H1 7862   2.282   1.518   0.322
 2635TIP3    H2 7863   2.318   1.572   0.459
 2636TIP3   OH2 7864   5.664   7.578   2.534
 2636TIP3    H1 7865   5.755   7.606   2.521
 2636TIP3    H2 7866   5.627   7.576   2.445
 2637TIP3   OH2 7867   3.470   2.519   4.625
 2637TIP3    H1 7868   3.388   2.471   4.632
 2637TIP3    H2 7869   3.488   2.524   4.531
 2638TIP3   OH2 7870   1.838   1.200   3.448
 2638TIP3    H1 7871   1.793   1.225   3.367
 2638TIP3    H2 7872   1.803   1.114   3.470
 2639TIP3   OH2 7873   0.978   3.520   2.373
 2639TIP3    H1 7874   0.945   3.433   2.350
 2639TIP3    H2 7875   0.925   3.580   2.320
 2640TIP3   OH2 7876   8.143   0.343   1.717
 2640TIP3    H1 7877   8.133   0.265   1.772
 2640TIP3    H2 7878   8.230   0.376   1.739
 2641TIP3   OH2 7879   3.103   0.102   0.558
 2641TIP3    H1 7880   3.164   0.124   0.628
 2641TIP3    H2 7881   3.122   0.011   0.537
 2642TIP3   OH2 7882   4.791   3.794   1.654
 2642TIP3    H1 7883   4.701   3.815   1.678
 2642TIP3    H2 7884   4.795   3.698   1.659
 2643TIP3   OH2 7885   5.337   0.206   6.312
 2643TIP3    H1 7886   5.413   0.212   6.253
 2643TIP3    H2 7887   5.373   0.222   6.399
 2644TIP3   OH2 7888   8.213   5.235   1.540
 2644TIP3    H1 7889   8.150   5.163   1.538
 2644TIP3    H2 7890   8.161   5.312   1.517
 2645TIP3   OH2 7891   2.960   5.613   6.431
 2645TIP3    H1 7892   3.016   5.673   6.383
 2645TIP3    H2 7893   2.981   5.526   6.396
 2646TIP3   OH2 7894   1.355   3.715   1.273
 2646TIP3    H1 7895   1.325   3.785   1.332
 2646TIP3    H2 7896   1.345   3.635   1.324
 2647TIP3   OH2 7897   8.046   2.451   6.706
 2647TIP3    H1 7898   8.095   2.500   6.771
 2647TIP3    H2 7899   7.965   2.425   6.750
 2648TIP3   OH2 7900   3.647   2.717   3.974
 2648TIP3    H1 7901   3.595   2.787   4.013
 2648TIP3    H2 7902   3.588   2.674   3.912
 2649TIP3   OH2 7903   7.630   0.395   5.501
 2649TIP3    H1 7904   7.637   0.475   5.553
 2649TIP3    H2 7905   7.657   0.421   5.413
 2650TIP3   OH2 7906   6.514   1.609   2.711
 2650TIP3    H1 7907   6.587   1.666   2.690
 2650TIP3    H2 7908   6.444   1.669   2.739
 2651TIP3   OH2 7909   4.043   0.547   5.466
 2651TIP3    H1 7910   4.116   0.594   5.424
 2651TIP3    H2 7911   4.031   0.593   5.550
 2652TIP3   OH2 7912   4.070   6.695   2.240
 2652TIP3    H1 7913   4.132   6.637   2.195
 2652TIP3    H2 7914   4.119   6.731   2.313
 2653TIP3   OH2 7915   2.935   1.180   4.281
 2653TIP3    H1 7916   2.853   1.166   4.233
 2653TIP3    H2 7917   2.907   1.202   4.370
 2654TIP3   OH2 7918   2.944   6.040   0.824
 2654TIP3    H1 7919   2.849   6.032   0.822
 2654TIP3    H2 7920   2.972   6.021   0.734
 2655TIP3   OH2 7921   1.302   6.286   0.263
 2655TIP3    H1 7922   1.368   6.333   0.212
 2655TIP3    H2 7923   1.235   6.263   0.200
 2656TIP3   OH2 7924   7.373   2.637   4.810
 2656TIP3    H1 7925   7.405   2.685   4.734
 2656TIP3    H2 7926   7.423   2.674   4.883
 2657TIP3   OH2 7927   2.923   0.672   6.761
 2657TIP3    H1 7928   2.846   0.728   6.774
 2657TIP3    H2 7929   2.926   0.617   6.839
 2658TIP3   OH2 7930   2.225   7.027   3.796
 2658TIP3    H1 7931   2.192   7.084   3.866
 2658TIP3    H2 7932   2.209   7.076   3.715
 2659TIP3   OH2 7933   6.954   2.623   1.766
 2659TIP3    H1 7934   7.020   2.557   1.787
 2659TIP3    H2 7935   6.985   2.664   1.686
 2660TIP3   OH2 7936   7.983   5.792   6.648
 2660TIP3    H1 7937   7.978   5.811   6.554
 2660TIP3    H2 7938   8.002   5.877   6.688
 2661TIP3   OH2 7939   0.195   4.283   6.751
 2661TIP3    H1 7940   0.264   4.255   6.810
 2661TIP3    H2 7941   0.178   4.374   6.776
 2662TIP3   OH2 7942   1.149   3.840   5.942
 2662TIP3    H1 7943   1.186   3.757   5.914
 2662TIP3    H2 7944   1.222   3.901   5.938
 2663TIP3   OH2 7945   2.081   2.126   0.886
 2663TIP3    H1 7946   2.043   2.179   0.957
 2663TIP3    H2 7947   2.013   2.061   0.866
 2664TIP3   OH2 7948   2.847   7.245   1.533
 2664TIP3    H1 7949   2.807   7.159   1.529
 2664TIP3    H2 7950   2.928   7.232   1.582
 2665TIP3   OH2 7951   5.540   5.600   2.334
 2665TIP3    H1 7952   5.483   5.634   2.402
 2665TIP3    H2 7953   5.515   5.648   2.255
 2666TIP3   OH2 7954   5.136   4.366   6.599
 2666TIP3    H1 7955   5.197   4.382   6.527
 2666TIP3    H2 7956   5.156   4.435   6.663
 2667TIP3   OH2 7957   1.923   7.428   5.595
 2667TIP3    H1 7958   1.949   7.359   5.534
 2667TIP3    H2 7959   1.870   7.383   5.660
 2668TIP3   OH2 7960   3.071   0.994   5.702
 2668TIP3    H1 7961   3.053   1.035   5.787
 2668TIP3    H2 7962   3.076   0.901   5.720
 2669TIP3   OH2 7963   7.500   5.520   0.229
 2669TIP3    H1 7964   7.444   5.472   0.290
 2669TIP3    H2 7965   7.467   5.609   0.229
 2670TIP3   OH2 7966   5.234   2.566   3.291
 2670TIP3    H1 7967   5.313   2.561   3.345
 2670TIP3    H2 7968   5.250   2.639   3.231
 2671TIP3   OH2 7969   1.169   1.029   0.328
 2671TIP3    H1 7970   1.179   1.093   0.258
 2671TIP3    H2 7971   1.181   1.080   0.409
 2672TIP3   OH2 7972   3.330   3.979   2.344
 2672TIP3    H1 7973   3.235   3.968   2.338
 2672TIP3    H2 7974   3.352   4.034   2.268
 2673TIP3   OH2 7975   6.048   5.560   1.864
 2673TIP3    H1 7976   5.954   5.553   1.880
 2673TIP3    H2 7977   6.064   5.653   1.855
 2674TIP3   OH2 7978   3.803   1.856   5.173
 2674TIP3    H1 7979   3.891   1.843   5.139
 2674TIP3    H2 7980   3.750   1.876   5.095
 2675TIP3   OH2 7981   0.458   7.470   2.246
 2675TIP3    H1 7982   0.522   7.539   2.227
 2675TIP3    H2 7983   0.403   7.506   2.315
 2676TIP3   OH2 7984   6.019   0.651   4.336
 2676TIP3    H1 7985   6.082   0.702   4.385
 2676TIP3    H2 7986   5.934   0.678   4.371
 2677TIP3   OH2 7987   5.268   7.128   5.574
 2677TIP3    H1 7988   5.301   7.117   5.663
 2677TIP3    H2 7989   5.236   7.042   5.549
 2678TIP3   OH2 7990   3.803   1.736   1.874
 2678TIP3    H1 7991   3.771   1.679   1.805
 2678TIP3    H2 7992   3.860   1.799   1.830
 2679TIP3   OH2 7993   8.083   4.217   6.106
 2679TIP3    H1 7994   8.145   4.284   6.134
 2679TIP3    H2 7995   8.025   4.262   6.044
 2680TIP3   OH2 7996   4.460   1.722   0.602
 2680TIP3    H1 7997   4.403   1.658   0.646
 2680TIP3    H2 7998   4.418   1.736   0.517
 2681TIP3   OH2 7999   5.084   0.502   3.923
 2681TIP3    H1 8000   5.014   0.441   3.900
 2681TIP3    H2 8001   5.121   0.467   4.004
 2682TIP3   OH2 8002   8.138   1.918   0.729
 2682TIP3    H1 8003   8.139   1.835   0.680
 2682TIP3    H2 8004   8.096   1.897   0.812
 2683TIP3   OH2 8005   6.151   0.381   4.202
 2683TIP3    H1 8006   6.244   0.404   4.192
 2683TIP3    H2 8007   6.121   0.366   4.113
 2684TIP3   OH2 8008   7.388   4.265   2.644
 2684TIP3    H1 8009   7.379   4.233   2.554
 2684TIP3    H2 8010   7.315   4.325   2.656
 2685TIP3   OH2 8011   3.416   6.329   5.969
 2685TIP3    H1 8012   3.390   6.398   5.908
 2685TIP3    H2 8013   3.337   6.276   5.981
 2686TIP3   OH2 8014   1.289   0.213   1.251
 2686TIP3    H1 8015   1.362   0.215   1.315
 2686TIP3    H2 8016   1.315   0.276   1.184
 2687TIP3   OH2 8017   6.251   3.843   4.473
 2687TIP3    H1 8018   6.265   3.938   4.472
 2687TIP3    H2 8019   6.328   3.807   4.428
 2688TIP3   OH2 8020   1.438   4.823   4.590
 2688TIP3    H1 8021   1.492   4.876   4.533
 2688TIP3    H2 8022   1.447   4.734   4.556
 2689TIP3   OH2 8023   2.774   5.003   0.921
 2689TIP3    H1 8024   2.679   5.008   0.931
 2689TIP3    H2 8025   2.792   5.045   0.837
 2690TIP3   OH2 8026   5.952   5.727   3.315
 2690TIP3    H1 8027   5.875   5.775   3.346
 2690TIP3    H2 8028   6.012   5.726   3.390
 2691TIP3   OH2 8029   1.432   2.642   0.483
 2691TIP3    H1 8030   1.390   2.629   0.569
 2691TIP3    H2 8031   1.369   2.606   0.421
 2692TIP3   OH2 8032   0.178   5.168   4.890
 2692TIP3    H1 8033   0.094   5.211   4.907
 2692TIP3    H2 8034   0.164   5.119   4.809
 2693TIP3   OH2 8035   1.691   6.419   6.282
 2693TIP3    H1 8036   1.667   6.484   6.348
 2693TIP3    H2 8037   1.779   6.446   6.253
 2694TIP3   OH2 8038   3.457   5.258   0.240
 2694TIP3    H1 8039   3.389   5.322   0.221
 2694TIP3    H2 8040   3.422   5.175   0.207
 2695TIP3   OH2 8041   4.700   4.595   2.936
 2695TIP3    H1 8042   4.785   4.551   2.926
 2695TIP3    H2 8043   4.664   4.558   3.017
 2696TIP3   OH2 8044   2.379   3.937   4.982
 2696TIP3    H1 8045   2.335   3.855   4.960
 2696TIP3    H2 8046   2.324   4.005   4.942
 2697TIP3   OH2 8047   6.511   7.114   6.385
 2697TIP3    H1 8048   6.556   7.031   6.374
 2697TIP3    H2 8049   6.459   7.125   6.305
 2698TIP3   OH2 8050   1.337   4.884   3.526
 2698TIP3    H1 8051   1.330   4.972   3.489
 2698TIP3    H2 8052   1.247   4.852   3.531
 2699TIP3   OH2 8053   5.996   0.732   0.903
 2699TIP3    H1 8054   5.933   0.661   0.891
 2699TIP3    H2 8055   6.075   0.689   0.935
 2700TIP3   OH2 8056   0.885   0.454   2.845
 2700TIP3    H1 8057   0.940   0.481   2.919
 2700TIP3    H2 8058   0.914   0.508   2.772
 2701TIP3   OH2 8059   5.092   6.581   0.517
 2701TIP3    H1 8060   5.177   6.580   0.473
 2701TIP3    H2 8061   5.104   6.525   0.594
 2702TIP3   OH2 8062   3.021   2.332   2.283
 2702TIP3    H1 8063   2.955   2.268   2.310
 2702TIP3    H2 8064   3.104   2.296   2.315
 2703TIP3   OH2 8065   8.241   2.502   0.497
 2703TIP3    H1 8066   8.318   2.466   0.452
 2703TIP3    H2 8067   8.220   2.436   0.564
 2704TIP3   OH2 8068   1.049   7.436   2.763
 2704TIP3    H1 8069   1.108   7.428   2.838
 2704TIP3    H2 8070   1.107   7.438   2.687
 2705TIP3   OH2 8071   6.865   5.411   3.345
 2705TIP3    H1 8072   6.828   5.363   3.272
 2705TIP3    H2 8073   6.956   5.429   3.318
 2706TIP3   OH2 8074   1.006   3.454   1.344
 2706TIP3    H1 8075   0.980   3.499   1.263
 2706TIP3    H2 8076   0.944   3.381   1.351
 2707TIP3   OH2 8077   1.293   2.333   0.549
 2707TIP3    H1 8078   1.275   2.273   0.476
 2707TIP3    H2 8079   1.244   2.297   0.622
 2708TIP3   OH2 8080   7.972   2.292   0.605
 2708TIP3    H1 8081   8.021   2.229   0.551
 2708TIP3    H2 8082   7.880   2.270   0.588
 2709TIP3   OH2 8083   2.564   4.644   2.151
 2709TIP3    H1 8084   2.646   4.597   2.165
 2709TIP3    H2 8085   2.558   4.704   2.226
 2710TIP3   OH2 8086   4.472   3.827   6.307
 2710TIP3    H1 8087   4.524   3.761   6.354
 2710TIP3    H2 8088   4.389   3.829   6.353
 2711TIP3   OH2 8089   7.710   6.959   2.289
 2711TIP3    H1 8090   7.782   7.002   2.243
 2711TIP3    H2 8091   7.707   7.002   2.374
 2712TIP3   OH2 8092   5.835   1.340   0.090
 2712TIP3    H1 8093   5.866   1.351   0.180
 2712TIP3    H2 8094   5.876   1.258   0.060
 2713TIP3   OH2 8095   3.461   6.199   4.714
 2713TIP3    H1 8096   3.400   6.139   4.673
 2713TIP3    H2 8097   3.528   6.214   4.647
 2714TIP3   OH2 8098   4.810   3.527   1.584
 2714TIP3    H1 8099   4.733   3.483   1.621
 2714TIP3    H2 8100   4.825   3.482   1.501
 2715TIP3   OH2 8101   0.531   6.000   3.413
 2715TIP3    H1 8102   0.619   6.038   3.404
 2715TIP3    H2 8103   0.541   5.932   3.479
 2716TIP3   OH2 8104   4.390   5.948   6.702
 2716TIP3    H1 8105   4.434   5.957   6.787
 2716TIP3    H2 8106   4.303   5.985   6.716
 2717TIP3   OH2 8107   3.699   2.911   6.333
 2717TIP3    H1 8108   3.645   2.878   6.262
 2717TIP3    H2 8109   3.657   2.879   6.413
 2718TIP3   OH2 8110   2.221   6.658   5.520
 2718TIP3    H1 8111   2.270   6.577   5.504
 2718TIP3    H2 8112   2.251   6.688   5.606
 2719TIP3   OH2 8113   3.696   0.697   5.045
 2719TIP3    H1 8114   3.706   0.710   4.951
 2719TIP3    H2 8115   3.632   0.626   5.053
 2720TIP3   OH2 8116   2.282   1.950   4.837
 2720TIP3    H1 8117   2.211   1.989   4.785
 2720TIP3    H2 8118   2.313   1.877   4.783
 2721TIP3   OH2 8119   5.293   7.506   0.568
 2721TIP3    H1 8120   5.370   7.557   0.542
 2721TIP3    H2 8121   5.236   7.508   0.491
 2722TIP3   OH2 8122   0.269   6.789   6.252
 2722TIP3    H1 8123   0.324   6.727   6.204
 2722TIP3    H2 8124   0.186   6.790   6.204
 2723TIP3   OH2 8125   7.805   6.123   4.876
 2723TIP3    H1 8126   7.802   6.034   4.841
 2723TIP3    H2 8127   7.724   6.132   4.927
 2724TIP3   OH2 8128   1.169   2.085   0.419
 2724TIP3    H1 8129   1.236   2.055   0.357
 2724TIP3    H2 8130   1.101   2.123   0.363
 2725TIP3   OH2 8131   3.743   3.756   6.623
 2725TIP3    H1 8132   3.797   3.692   6.669
 2725TIP3    H2 8133   3.716   3.712   6.543
 2726TIP3   OH2 8134   1.416   3.116   5.907
 2726TIP3    H1 8135   1.499   3.087   5.870
 2726TIP3    H2 8136   1.352   3.099   5.838
 2727TIP3   OH2 8137   1.507   0.121   4.950
 2727TIP3    H1 8138   1.433   0.061   4.957
 2727TIP3    H2 8139   1.512   0.141   4.856
 2728TIP3   OH2 8140   3.055   5.995   0.209
 2728TIP3    H1 8141   3.143   6.030   0.221
 2728TIP3    H2 8142   3.021   6.044   0.134
 2729TIP3   OH2 8143   6.818   0.484   0.888
 2729TIP3    H1 8144   6.885   0.543   0.923
 2729TIP3    H2 8145   6.753   0.542   0.847
 2730TIP3   OH2 8146   6.830   5.771   1.655
 2730TIP3    H1 8147   6.756   5.725   1.694
 2730TIP3    H2 8148   6.817   5.762   1.560
 2731TIP3   OH2 8149   2.909   7.614   4.700
 2731TIP3    H1 8150   2.986   7.557   4.692
 2731TIP3    H2 8151   2.915   7.673   4.625
 2732TIP3   OH2 8152   6.355   5.158   4.437
 2732TIP3    H1 8153   6.304   5.157   4.356
 2732TIP3    H2 8154   6.382   5.067   4.450
 2733TIP3   OH2 8155   3.012   0.507   5.611
 2733TIP3    H1 8156   2.964   0.461   5.680
 2733TIP3    H2 8157   3.069   0.440   5.573
 2734TIP3   OH2 8158   7.348   4.385   1.139
 2734TIP3    H1 8159   7.321   4.315   1.080
 2734TIP3    H2 8160   7.342   4.464   1.087
 2735TIP3   OH2 8161   7.266   5.324   0.893
 2735TIP3    H1 8162   7.293   5.249   0.946
 2735TIP3    H2 8163   7.336   5.389   0.906
 2736TIP3   OH2 8164   2.316   3.809   3.075
 2736TIP3    H1 8165   2.333   3.726   3.120
 2736TIP3    H2 8166   2.268   3.785   2.996
 2737TIP3   OH2 8167   5.828   6.303   0.129
 2737TIP3    H1 8168   5.893   6.343   0.187
 2737TIP3    H2 8169   5.879   6.254   0.065
 2738TIP3   OH2 8170   7.486   5.940   0.471
 2738TIP3    H1 8171   7.494   6.035   0.481
 2738TIP3    H2 8172   7.570   5.912   0.437
 2739TIP3   OH2 8173   2.745   6.283   3.297
 2739TIP3    H1 8174   2.807   6.334   3.246
 2739TIP3    H2 8175   2.660   6.302   3.257
 2740TIP3   OH2 8176   2.055   5.572   2.387
 2740TIP3    H1 8177   2.078   5.479   2.379
 2740TIP3    H2 8178   1.997   5.589   2.313
 2741TIP3   OH2 8179   7.145   6.443   1.589
 2741TIP3    H1 8180   7.061   6.396   1.588
 2741TIP3    H2 8181   7.193   6.405   1.663
 2742TIP3   OH2 8182   3.972   5.058   3.767
 2742TIP3    H1 8183   4.023   4.977   3.773
 2742TIP3    H2 8184   3.913   5.044   3.693
 2743TIP3   OH2 8185   0.733   1.969   4.695
 2743TIP3    H1 8186   0.767   1.881   4.678
 2743TIP3    H2 8187   0.745   1.981   4.789
 2744TIP3   OH2 8188   3.369   0.829   6.358
 2744TIP3    H1 8189   3.277   0.811   6.340
 2744TIP3    H2 8190   3.375   0.829   6.454
 2745TIP3   OH2 8191   4.853   7.001   2.272
 2745TIP3    H1 8192   4.912   6.928   2.255
 2745TIP3    H2 8193   4.899   7.055   2.337
 2746TIP3   OH2 8194   4.328   2.495   6.509
 2746TIP3    H1 8195   4.309   2.516   6.600
 2746TIP3    H2 8196   4.344   2.580   6.468
 2747TIP3   OH2 8197   0.038   5.604   6.592
 2747TIP3    H1 8198   0.082   5.526   6.558
 2747TIP3    H2 8199   0.003   5.648   6.514
 2748TIP3   OH2 8200   5.500   6.927   3.848
 2748TIP3    H1 8201   5.513   6.843   3.891
 2748TIP3    H2 8202   5.561   6.986   3.892
 2749TIP3   OH2 8203   5.822   0.271   1.838
 2749TIP3    H1 8204   5.783   0.263   1.750
 2749TIP3    H2 8205   5.904   0.223   1.833
 2750TIP3   OH2 8206   1.619   2.367   3.254
 2750TIP3    H1 8207   1.659   2.284   3.229
 2750TIP3    H2 8208   1.659   2.389   3.338
 2751TIP3   OH2 8209   3.048   1.658   2.518
 2751TIP3    H1 8210   3.053   1.626   2.428
 2751TIP3    H2 8211   2.954   1.671   2.534
 2752TIP3   OH2 8212   4.865   3.435   2.317
 2752TIP3    H1 8213   4.826   3.521   2.300
 2752TIP3    H2 8214   4.957   3.454   2.337
 2753TIP3   OH2 8215   3.867   6.474   3.705
 2753TIP3    H1 8216   3.929   6.490   3.776
 2753TIP3    H2 8217   3.842   6.382   3.715
 2754TIP3   OH2 8218   6.109   2.852   4.117
 2754TIP3    H1 8219   6.053   2.910   4.066
 2754TIP3    H2 8220   6.198   2.871   4.088
 2755TIP3   OH2 8221   4.984   2.574   3.087
 2755TIP3    H1 8222   5.073   2.600   3.112
 2755TIP3    H2 8223   4.941   2.555   3.170
 2756TIP3   OH2 8224   6.687   3.617   1.453
 2756TIP3    H1 8225   6.662   3.708   1.467
 2756TIP3    H2 8226   6.693   3.580   1.541
 2757TIP3   OH2 8227   7.945   4.970   1.781
 2757TIP3    H1 8228   7.935   5.022   1.701
 2757TIP3    H2 8229   8.039   4.956   1.789
 2758TIP3   OH2 8230   5.454   5.495   1.803
 2758TIP3    H1 8231   5.361   5.475   1.811
 2758TIP3    H2 8232   5.498   5.424   1.850
 2759TIP3   OH2 8233   1.594   2.654   5.229
 2759TIP3    H1 8234   1.588   2.733   5.282
 2759TIP3    H2 8235   1.687   2.646   5.207
 2760TIP3   OH2 8236   0.114   0.112   5.682
 2760TIP3    H1 8237   0.085   0.074   5.765
 2760TIP3    H2 8238   0.034   0.145   5.642
 2761TIP3   OH2 8239   1.213   3.644   3.538
 2761TIP3    H1 8240   1.301   3.679   3.553
 2761TIP3    H2 8241   1.171   3.708   3.481
 2762TIP3   OH2 8242   7.238   1.122   4.394
 2762TIP3    H1 8243   7.295   1.137   4.318
 2762TIP3    H2 8244   7.251   1.030   4.416
 2763TIP3   OH2 8245   7.832   3.120   6.308
 2763TIP3    H1 8246   7.904   3.182   6.302
 2763TIP3    H2 8247   7.753   3.173   6.299
 2764TIP3   OH2 8248   0.521   0.548   1.948
 2764TIP3    H1 8249   0.450   0.585   2.002
 2764TIP3    H2 8250   0.539   0.463   1.988
 2765TIP3   OH2 8251   6.047   6.576   4.728
 2765TIP3    H1 8252   6.140   6.579   4.709
 2765TIP3    H2 8253   6.042   6.560   4.822
 2766TIP3   OH2 8254   2.776   2.190   6.510
 2766TIP3    H1 8255   2.839   2.144   6.566
 2766TIP3    H2 8256   2.818   2.273   6.490
 2767TIP3   OH2 8257   2.445   2.720   0.821
 2767TIP3    H1 8258   2.454   2.813   0.798
 2767TIP3    H2 8259   2.492   2.711   0.903
 2768TIP3   OH2 8260   5.879   2.267   3.677
 2768TIP3    H1 8261   5.863   2.178   3.710
 2768TIP3    H2 8262   5.968   2.264   3.642
 2769TIP3   OH2 8263   3.241   5.560   3.253
 2769TIP3    H1 8264   3.329   5.565   3.216
 2769TIP3    H2 8265   3.255   5.535   3.344
 2770TIP3   OH2 8266   2.483   2.991   1.658
 2770TIP3    H1 8267   2.501   3.048   1.733
 2770TIP3    H2 8268   2.528   2.909   1.679
 2771TIP3   OH2 8269   5.798   3.684   2.103
 2771TIP3    H1 8270   5.849   3.738   2.164
 2771TIP3    H2 8271   5.822   3.717   2.016
 2772TIP3   OH2 8272   6.678   5.171   2.546
 2772TIP3    H1 8273   6.760   5.132   2.574
 2772TIP3    H2 8274   6.690   5.265   2.560
 2773TIP3   OH2 8275   6.673   2.127   4.912
 2773TIP3    H1 8276   6.642   2.101   4.998
 2773TIP3    H2 8277   6.615   2.081   4.851
 2774TIP3   OH2 8278   0.799   5.810   2.934
 2774TIP3    H1 8279   0.748   5.884   2.902
 2774TIP3    H2 8280   0.734   5.746   2.961
 2775TIP3   OH2 8281   4.290   0.438   1.827
 2775TIP3    H1 8282   4.289   0.534   1.829
 2775TIP3    H2 8283   4.209   0.412   1.870
 2776TIP3   OH2 8284   1.313   0.160   0.609
 2776TIP3    H1 8285   1.252   0.220   0.651
 2776TIP3    H2 8286   1.261   0.115   0.543
 2777TIP3   OH2 8287   4.748   2.831   2.984
 2777TIP3    H1 8288   4.729   2.738   2.998
 2777TIP3    H2 8289   4.807   2.833   2.909
 2778TIP3   OH2 8290   5.430   6.752   6.633
 2778TIP3    H1 8291   5.439   6.828   6.690
 2778TIP3    H2 8292   5.417   6.678   6.692
 2779TIP3   OH2 8293   5.021   7.719   1.839
 2779TIP3    H1 8294   5.013   7.814   1.841
 2779TIP3    H2 8295   5.051   7.695   1.927
 2780TIP3   OH2 8296   4.049   1.494   4.285
 2780TIP3    H1 8297   4.084   1.550   4.215
 2780TIP3    H2 8298   4.125   1.446   4.318
 2781TIP3   OH2 8299   2.717   0.442   5.293
 2781TIP3    H1 8300   2.625   0.424   5.272
 2781TIP3    H2 8301   2.740   0.375   5.358
 2782TIP3   OH2 8302   4.478   0.540   4.385
 2782TIP3    H1 8303   4.539   0.490   4.438
 2782TIP3    H2 8304   4.396   0.491   4.390
 2783TIP3   OH2 8305   2.504   2.350   5.362
 2783TIP3    H1 8306   2.541   2.326   5.277
 2783TIP3    H2 8307   2.503   2.446   5.362
 2784TIP3   OH2 8308   6.718   5.613   4.314
 2784TIP3    H1 8309   6.759   5.671   4.379
 2784TIP3    H2 8310   6.790   5.567   4.273
 2785TIP3   OH2 8311   5.213   7.703   6.451
 2785TIP3    H1 8312   5.252   7.741   6.530
 2785TIP3    H2 8313   5.141   7.650   6.482
 2786TIP3   OH2 8314   5.270   5.494   4.682
 2786TIP3    H1 8315   5.200   5.445   4.725
 2786TIP3    H2 8316   5.292   5.442   4.605
 2787TIP3   OH2 8317   4.288   3.991   4.771
 2787TIP3    H1 8318   4.348   3.979   4.845
 2787TIP3    H2 8319   4.322   4.068   4.725
 2788TIP3   OH2 8320   4.461   6.521   2.754
 2788TIP3    H1 8321   4.528   6.457   2.779
 2788TIP3    H2 8322   4.379   6.484   2.785
 2789TIP3   OH2 8323   2.234   3.222   1.831
 2789TIP3    H1 8324   2.328   3.225   1.849
 2789TIP3    H2 8325   2.195   3.278   1.898
 2790TIP3   OH2 8326   5.156   6.121   0.566
 2790TIP3    H1 8327   5.097   6.109   0.641
 2790TIP3    H2 8328   5.235   6.073   0.591
 2791TIP3   OH2 8329   7.271   4.413   2.151
 2791TIP3    H1 8330   7.314   4.465   2.083
 2791TIP3    H2 8331   7.262   4.474   2.225
 2792TIP3   OH2 8332   3.155   1.450   3.708
 2792TIP3    H1 8333   3.172   1.428   3.617
 2792TIP3    H2 8334   3.076   1.401   3.730
 2793TIP3   OH2 8335   4.155   4.861   3.011
 2793TIP3    H1 8336   4.244   4.858   3.046
 2793TIP3    H2 8337   4.164   4.900   2.924
 2794TIP3   OH2 8338   1.443   2.878   1.891
 2794TIP3    H1 8339   1.410   2.882   1.801
 2794TIP3    H2 8340   1.517   2.817   1.887
 2795TIP3   OH2 8341   5.456   1.304   0.589
 2795TIP3    H1 8342   5.478   1.348   0.508
 2795TIP3    H2 8343   5.391   1.239   0.564
 2796TIP3   OH2 8344   4.984   1.839   6.313
 2796TIP3    H1 8345   5.024   1.884   6.388
 2796TIP3    H2 8346   4.959   1.753   6.348
 2797TIP3   OH2 8347   6.754   1.951   5.604
 2797TIP3    H1 8348   6.719   2.028   5.560
 2797TIP3    H2 8349   6.845   1.973   5.623
 2798TIP3   OH2 8350   7.561   6.896   0.681
 2798TIP3    H1 8351   7.581   6.974   0.629
 2798TIP3    H2 8352   7.609   6.908   0.762
 2799TIP3   OH2 8353   3.004   5.989   0.506
 2799TIP3    H1 8354   3.089   5.982   0.550
 2799TIP3    H2 8355   3.026   6.007   0.415
 2800TIP3   OH2 8356   2.332   3.464   5.993
 2800TIP3    H1 8357   2.401   3.458   5.927
 2800TIP3    H2 8358   2.250   3.467   5.942
 2801TIP3   OH2 8359   1.034   7.052   1.981
 2801TIP3    H1 8360   1.041   7.095   2.066
 2801TIP3    H2 8361   1.062   7.119   1.918
 2802TIP3   OH2 8362   6.560   1.376   1.105
 2802TIP3    H1 8363   6.612   1.448   1.142
 2802TIP3    H2 8364   6.530   1.410   1.021
 2803TIP3   OH2 8365   1.897   3.034   4.643
 2803TIP3    H1 8366   1.910   2.993   4.558
 2803TIP3    H2 8367   1.842   2.972   4.692
 2804TIP3   OH2 8368   6.150   4.026   2.060
 2804TIP3    H1 8369   6.192   4.095   2.111
 2804TIP3    H2 8370   6.221   3.966   2.037
 2805TIP3   OH2 8371   1.570   3.222   2.626
 2805TIP3    H1 8372   1.567   3.317   2.626
 2805TIP3    H2 8373   1.478   3.195   2.627
 2806TIP3   OH2 8374   5.871   7.656   0.476
 2806TIP3    H1 8375   5.877   7.561   0.480
 2806TIP3    H2 8376   5.910   7.686   0.559
 2807TIP3   OH2 8377   3.269   7.172   0.290
 2807TIP3    H1 8378   3.302   7.143   0.205
 2807TIP3    H2 8379   3.178   7.195   0.273
 2808TIP3   OH2 8380   1.754   6.404   3.084
 2808TIP3    H1 8381   1.661   6.409   3.062
 2808TIP3    H2 8382   1.755   6.376   3.176
 2809TIP3   OH2 8383   4.454   0.848   5.210
 2809TIP3    H1 8384   4.518   0.900   5.162
 2809TIP3    H2 8385   4.472   0.867   5.302
 2810TIP3   OH2 8386   5.322   7.664   6.186
 2810TIP3    H1 8387   5.304   7.667   6.280
 2810TIP3    H2 8388   5.395   7.724   6.174
 2811TIP3   OH2 8389   7.490   3.128   0.212
 2811TIP3    H1 8390   7.419   3.081   0.170
 2811TIP3    H2 8391   7.567   3.108   0.159
 2812TIP3   OH2 8392   2.004   5.437   4.676
 2812TIP3    H1 8393   2.033   5.346   4.685
 2812TIP3    H2 8394   1.956   5.455   4.757
 2813TIP3   OH2 8395   1.437   6.746   3.595
 2813TIP3    H1 8396   1.414   6.815   3.657
 2813TIP3    H2 8397   1.357   6.731   3.544
 2814TIP3   OH2 8398   8.046   2.984   6.436
 2814TIP3    H1 8399   8.026   2.891   6.434
 2814TIP3    H2 8400   7.982   3.023   6.376
 2815TIP3   OH2 8401   3.915   7.131   5.407
 2815TIP3    H1 8402   3.993   7.077   5.421
 2815TIP3    H2 8403   3.843   7.079   5.445
 2816TIP3   OH2 8404   0.786   3.430   4.329
 2816TIP3    H1 8405   0.763   3.367   4.398
 2816TIP3    H2 8406   0.858   3.481   4.367
 2817TIP3   OH2 8407   2.035   1.356   3.264
 2817TIP3    H1 8408   2.063   1.445   3.240
 2817TIP3    H2 8409   1.970   1.370   3.333
 2818TIP3   OH2 8410   6.832   4.012   4.220
 2818TIP3    H1 8411   6.866   3.923   4.214
 2818TIP3    H2 8412   6.909   4.068   4.211
 2819TIP3   OH2 8413   8.265   3.664   4.634
 2819TIP3    H1 8414   8.209   3.740   4.649
 2819TIP3    H2 8415   8.222   3.617   4.563
 2820TIP3   OH2 8416   2.519   7.451   5.539
 2820TIP3    H1 8417   2.554   7.499   5.464
 2820TIP3    H2 8418   2.464   7.513   5.585
 2821TIP3   OH2 8419   2.914   3.629   0.575
 2821TIP3    H1 8420   2.944   3.680   0.500
 2821TIP3    H2 8421   2.835   3.585   0.544
 2822TIP3   OH2 8422   2.827   6.114   2.973
 2822TIP3    H1 8423   2.903   6.105   3.031
 2822TIP3    H2 8424   2.817   6.027   2.934
 2823TIP3   OH2 8425   1.524   0.308   0.137
 2823TIP3    H1 8426   1.584   0.257   0.082
 2823TIP3    H2 8427   1.511   0.254   0.215
 2824TIP3   OH2 8428   4.041   7.681   2.166
 2824TIP3    H1 8429   4.103   7.746   2.134
 2824TIP3    H2 8430   4.022   7.709   2.255
 2825TIP3   OH2 8431   7.049   4.195   4.211
 2825TIP3    H1 8432   7.073   4.287   4.220
 2825TIP3    H2 8433   7.086   4.153   4.289
 2826TIP3   OH2 8434   3.954   5.147   5.869
 2826TIP3    H1 8435   3.862   5.127   5.886
 2826TIP3    H2 8436   3.998   5.127   5.952
 2827TIP3   OH2 8437   7.314   5.051   3.824
 2827TIP3    H1 8438   7.345   5.125   3.876
 2827TIP3    H2 8439   7.243   5.087   3.771
 2828TIP3   OH2 8440   3.427   2.747   6.368
 2828TIP3    H1 8441   3.437   2.678   6.434
 2828TIP3    H2 8442   3.427   2.829   6.418
 2829TIP3   OH2 8443   1.200   6.378   0.490
 2829TIP3    H1 8444   1.135   6.430   0.443
 2829TIP3    H2 8445   1.239   6.321   0.423
 2830TIP3   OH2 8446   5.107   0.120   5.539
 2830TIP3    H1 8447   5.071   0.136   5.452
 2830TIP3    H2 8448   5.180   0.060   5.524
 2831TIP3   OH2 8449   0.453   6.747   2.878
 2831TIP3    H1 8450   0.521   6.814   2.885
 2831TIP3    H2 8451   0.396   6.763   2.953
 2832TIP3   OH2 8452   4.023   6.605   4.979
 2832TIP3    H1 8453   3.982   6.690   4.994
 2832TIP3    H2 8454   4.116   6.619   4.998
 2833TIP3   OH2 8455   3.458   7.058   3.304
 2833TIP3    H1 8456   3.499   7.144   3.298
 2833TIP3    H2 8457   3.367   7.074   3.279
 2834TIP3   OH2 8458   1.157   0.753   6.457
 2834TIP3    H1 8459   1.140   0.787   6.545
 2834TIP3    H2 8460   1.172   0.659   6.470
 2835TIP3   OH2 8461   3.743   7.625   6.297
 2835TIP3    H1 8462   3.830   7.637   6.337
 2835TIP3    H2 8463   3.696   7.705   6.320
 2836TIP3   OH2 8464   8.031   7.131   3.532
 2836TIP3    H1 8465   8.019   7.226   3.536
 2836TIP3    H2 8466   8.078   7.109   3.612
 2837TIP3   OH2 8467   7.320   5.494   5.001
 2837TIP3    H1 8468   7.242   5.510   5.053
 2837TIP3    H2 8469   7.288   5.452   4.921
 2838TIP3   OH2 8470   5.096   3.692   3.310
 2838TIP3    H1 8471   5.053   3.713   3.393
 2838TIP3    H2 8472   5.074   3.600   3.294
 2839TIP3   OH2 8473   7.107   4.024   5.668
 2839TIP3    H1 8474   7.123   4.015   5.762
 2839TIP3    H2 8475   7.182   4.073   5.635
 2840TIP3   OH2 8476   3.687   1.022   5.748
 2840TIP3    H1 8477   3.696   0.928   5.764
 2840TIP3    H2 8478   3.642   1.055   5.825
 2841TIP3   OH2 8479   1.829   7.669   4.656
 2841TIP3    H1 8480   1.798   7.716   4.734
 2841TIP3    H2 8481   1.778   7.589   4.654
 2842TIP3   OH2 8482   3.271   4.761   2.406
 2842TIP3    H1 8483   3.240   4.849   2.383
 2842TIP3    H2 8484   3.193   4.705   2.397
 2843TIP3   OH2 8485   0.426   7.232   5.571
 2843TIP3    H1 8486   0.490   7.274   5.629
 2843TIP3    H2 8487   0.346   7.283   5.583
 2844TIP3   OH2 8488   2.876   0.708   4.145
 2844TIP3    H1 8489   2.938   0.758   4.198
 2844TIP3    H2 8490   2.818   0.667   4.209
 2845TIP3   OH2 8491   7.292   2.748   5.667
 2845TIP3    H1 8492   7.269   2.822   5.611
 2845TIP3    H2 8493   7.258   2.671   5.621
 2846TIP3   OH2 8494   4.589   6.081   4.611
 2846TIP3    H1 8495   4.579   6.143   4.683
 2846TIP3    H2 8496   4.523   6.107   4.547
 2847TIP3   OH2 8497   2.597   0.657   0.919
 2847TIP3    H1 8498   2.639   0.716   0.982
 2847TIP3    H2 8499   2.651   0.666   0.840
 2848TIP3   OH2 8500   6.325   6.963   5.257
 2848TIP3    H1 8501   6.287   7.039   5.214
 2848TIP3    H2 8502   6.413   6.991   5.283
 2849TIP3   OH2 8503   7.471   1.420   5.393
 2849TIP3    H1 8504   7.457   1.481   5.465
 2849TIP3    H2 8505   7.394   1.432   5.337
 2850TIP3   OH2 8506   3.169   5.129   4.269
 2850TIP3    H1 8507   3.212   5.205   4.310
 2850TIP3    H2 8508   3.219   5.054   4.300
 2851TIP3   OH2 8509   4.088   1.222   5.006
 2851TIP3    H1 8510   4.029   1.186   5.074
 2851TIP3    H2 8511   4.047   1.304   4.980
 2852TIP3   OH2 8512  -0.004   4.274   3.927
 2852TIP3    H1 8513  -0.047   4.204   3.977
 2852TIP3    H2 8514  -0.002   4.349   3.987
 2853TIP3   OH2 8515   3.990   6.031   1.856
 2853TIP3    H1 8516   4.054   6.094   1.889
 2853TIP3    H2 8517   3.907   6.078   1.857
 2854TIP3   OH2 8518   0.452   3.650   1.973
 2854TIP3    H1 8519   0.515   3.578   1.975
 2854TIP3    H2 8520   0.379   3.616   1.921
 2855TIP3   OH2 8521   6.688   0.310   1.769
 2855TIP3    H1 8522   6.609   0.262   1.793
 2855TIP3    H2 8523   6.725   0.262   1.695
 2856TIP3   OH2 8524   4.668   1.125   3.614
 2856TIP3    H1 8525   4.608   1.191   3.650
 2856TIP3    H2 8526   4.613   1.048   3.600
 2857TIP3   OH2 8527   6.577   4.314   2.182
 2857TIP3    H1 8528   6.608   4.400   2.152
 2857TIP3    H2 8529   6.650   4.278   2.232
 2858TIP3   OH2 8530   6.679   0.392   3.752
 2858TIP3    H1 8531   6.757   0.446   3.756
 2858TIP3    H2 8532   6.633   0.408   3.834
 2859TIP3   OH2 8533   4.970   4.519   0.746
 2859TIP3    H1 8534   5.025   4.474   0.682
 2859TIP3    H2 8535   4.890   4.540   0.698
 2860TIP3   OH2 8536   2.696   4.926   2.104
 2860TIP3    H1 8537   2.767   4.958   2.160
 2860TIP3    H2 8538   2.673   4.841   2.140
 2861TIP3   OH2 8539   1.230   3.072   6.424
 2861TIP3    H1 8540   1.311   3.118   6.446
 2861TIP3    H2 8541   1.190   3.050   6.508
 2862TIP3   OH2 8542   4.846   1.931   5.418
 2862TIP3    H1 8543   4.837   1.963   5.328
 2862TIP3    H2 8544   4.895   2.000   5.463
 2863TIP3   OH2 8545   2.664   4.179   0.940
 2863TIP3    H1 8546   2.587   4.162   0.885
 2863TIP3    H2 8547   2.687   4.270   0.921
 2864TIP3   OH2 8548   8.185   4.577   5.718
 2864TIP3    H1 8549   8.220   4.622   5.794
 2864TIP3    H2 8550   8.199   4.638   5.646
 2865TIP3   OH2 8551   0.927   6.385   0.962
 2865TIP3    H1 8552   0.965   6.382   0.874
 2865TIP3    H2 8553   0.938   6.296   0.996
 2866TIP3   OH2 8554   5.245   1.873   4.872
 2866TIP3    H1 8555   5.235   1.871   4.967
 2866TIP3    H2 8556   5.274   1.962   4.852
 2867TIP3   OH2 8557   4.951   3.758   4.852
 2867TIP3    H1 8558   4.860   3.759   4.882
 2867TIP3    H2 8559   4.994   3.827   4.902
 2868TIP3   OH2 8560  -0.013   5.654   3.572
 2868TIP3    H1 8561   0.024   5.673   3.486
 2868TIP3    H2 8562   0.035   5.577   3.602
 2869TIP3   OH2 8563   1.688   5.112   6.286
 2869TIP3    H1 8564   1.614   5.120   6.345
 2869TIP3    H2 8565   1.714   5.020   6.292
 2870TIP3   OH2 8566   3.515   2.329   4.872
 2870TIP3    H1 8567   3.498   2.359   4.783
 2870TIP3    H2 8568   3.572   2.253   4.861
 2871TIP3   OH2 8569   5.319   3.409   5.546
 2871TIP3    H1 8570   5.322   3.442   5.456
 2871TIP3    H2 8571   5.336   3.315   5.537
 2872TIP3   OH2 8572   4.670   3.016   4.763
 2872TIP3    H1 8573   4.650   3.102   4.801
 2872TIP3    H2 8574   4.588   2.990   4.720
 2873TIP3   OH2 8575   5.018   2.017   1.078
 2873TIP3    H1 8576   5.045   1.925   1.078
 2873TIP3    H2 8577   5.049   2.051   1.162
 2874TIP3   OH2 8578   0.071   6.153   2.067
 2874TIP3    H1 8579   0.106   6.069   2.038
 2874TIP3    H2 8580   0.009   6.131   2.137
 2875TIP3   OH2 8581   4.825   2.309   5.861
 2875TIP3    H1 8582   4.793   2.399   5.854
 2875TIP3    H2 8583   4.911   2.317   5.902
 2876TIP3   OH2 8584   7.046   2.327   2.275
 2876TIP3    H1 8585   6.987   2.402   2.275
 2876TIP3    H2 8586   7.133   2.365   2.288
 2877TIP3   OH2 8587   8.239   2.597   5.757
 2877TIP3    H1 8588   8.187   2.678   5.761
 2877TIP3    H2 8589   8.326   2.626   5.728
 2878TIP3   OH2 8590   7.698   5.401   0.068
 2878TIP3    H1 8591   7.647   5.435   0.141
 2878TIP3    H2 8592   7.634   5.384  -0.001
 2879TIP3   OH2 8593   6.256   4.977   2.744
 2879TIP3    H1 8594   6.263   4.903   2.803
 2879TIP3    H2 8595   6.322   5.039   2.774
 2880TIP3   OH2 8596   5.422   7.428   4.583
 2880TIP3    H1 8597   5.438   7.488   4.510
 2880TIP3    H2 8598   5.366   7.478   4.642
 2881TIP3   OH2 8599   6.864   7.325   5.267
 2881TIP3    H1 8600   6.770   7.337   5.282
 2881TIP3    H2 8601   6.890   7.402   5.215
 2882TIP3   OH2 8602   1.317   4.457   3.321
 2882TIP3    H1 8603   1.363   4.537   3.294
 2882TIP3    H2 8604   1.297   4.412   3.239
 2883TIP3   OH2 8605   4.366   5.072   3.696
 2883TIP3    H1 8606   4.378   5.147   3.754
 2883TIP3    H2 8607   4.342   5.000   3.754
 2884TIP3   OH2 8608   0.838   1.718   4.674
 2884TIP3    H1 8609   0.929   1.716   4.702
 2884TIP3    H2 8610   0.833   1.650   4.606
 2885TIP3   OH2 8611   7.431   6.283   3.294
 2885TIP3    H1 8612   7.465   6.330   3.370
 2885TIP3    H2 8613   7.504   6.229   3.264
 2886TIP3   OH2 8614   3.875   0.901   6.517
 2886TIP3    H1 8615   3.798   0.958   6.514
 2886TIP3    H2 8616   3.857   0.841   6.589
 2887TIP3   OH2 8617   0.544   1.849   1.828
 2887TIP3    H1 8618   0.624   1.892   1.857
 2887TIP3    H2 8619   0.506   1.908   1.763
 2888TIP3   OH2 8620   5.450   2.793   4.859
 2888TIP3    H1 8621   5.521   2.734   4.833
 2888TIP3    H2 8622   5.471   2.876   4.816
 2889TIP3   OH2 8623   5.292   5.120   2.053
 2889TIP3    H1 8624   5.217   5.133   2.111
 2889TIP3    H2 8625   5.265   5.048   1.996
 2890TIP3   OH2 8626   5.521   6.918   5.562
 2890TIP3    H1 8627   5.429   6.942   5.573
 2890TIP3    H2 8628   5.560   6.992   5.516
 2891TIP3   OH2 8629   5.056   2.342   0.304
 2891TIP3    H1 8630   5.133   2.327   0.359
 2891TIP3    H2 8631   5.021   2.425   0.335
 2892TIP3   OH2 8632   4.415   7.361   5.350
 2892TIP3    H1 8633   4.471   7.438   5.360
 2892TIP3    H2 8634   4.335   7.395   5.310
 2893TIP3   OH2 8635   6.144   1.334   0.554
 2893TIP3    H1 8636   6.189   1.251   0.569
 2893TIP3    H2 8637   6.213   1.394   0.526
 2894TIP3   OH2 8638   6.636   4.662   6.153
 2894TIP3    H1 8639   6.707   4.711   6.112
 2894TIP3    H2 8640   6.568   4.657   6.087
 2895TIP3   OH2 8641   5.551   5.521   1.558
 2895TIP3    H1 8642   5.540   5.518   1.653
 2895TIP3    H2 8643   5.493   5.590   1.528
 2896TIP3   OH2 8644   3.905   3.834   2.322
 2896TIP3    H1 8645   3.917   3.823   2.416
 2896TIP3    H2 8646   3.855   3.757   2.294
 2897TIP3   OH2 8647   3.604   7.267   6.708
 2897TIP3    H1 8648   3.563   7.188   6.672
 2897TIP3    H2 8649   3.694   7.263   6.677
 2898TIP3   OH2 8650   7.364   4.332   4.191
 2898TIP3    H1 8651   7.379   4.355   4.282
 2898TIP3    H2 8652   7.272   4.354   4.175
 2899TIP3   OH2 8653   3.063   1.734   6.564
 2899TIP3    H1 8654   2.974   1.700   6.574
 2899TIP3    H2 8655   3.117   1.679   6.620
 2900TIP3   OH2 8656   4.506   6.726   0.624
 2900TIP3    H1 8657   4.489   6.815   0.654
 2900TIP3    H2 8658   4.591   6.732   0.580
 2901TIP3   OH2 8659   3.560   6.998   0.684
 2901TIP3    H1 8660   3.476   7.045   0.679
 2901TIP3    H2 8661   3.589   6.991   0.593
 2902TIP3   OH2 8662   7.626   2.032   2.462
 2902TIP3    H1 8663   7.698   2.011   2.402
 2902TIP3    H2 8664   7.567   1.956   2.456
 2903TIP3   OH2 8665   7.428   5.856   6.733
 2903TIP3    H1 8666   7.428   5.946   6.703
 2903TIP3    H2 8667   7.420   5.862   6.828
 2904TIP3   OH2 8668   7.543   4.895   3.126
 2904TIP3    H1 8669   7.560   4.974   3.177
 2904TIP3    H2 8670   7.457   4.909   3.088
 2905TIP3   OH2 8671   1.662   5.156   5.244
 2905TIP3    H1 8672   1.658   5.060   5.239
 2905TIP3    H2 8673   1.698   5.174   5.331
 2906TIP3   OH2 8674   2.911   0.769   3.428
 2906TIP3    H1 8675   2.947   0.820   3.355
 2906TIP3    H2 8676   2.983   0.762   3.490
 2907TIP3   OH2 8677   2.264   3.045   4.368
 2907TIP3    H1 8678   2.216   3.065   4.448
 2907TIP3    H2 8679   2.206   3.075   4.297
 2908TIP3   OH2 8680   4.256   2.230   1.711
 2908TIP3    H1 8681   4.300   2.313   1.697
 2908TIP3    H2 8682   4.229   2.232   1.804
 2909TIP3   OH2 8683   6.216   3.132   1.627
 2909TIP3    H1 8684   6.228   3.046   1.587
 2909TIP3    H2 8685   6.263   3.127   1.710
 2910TIP3   OH2 8686   4.412   0.505   2.928
 2910TIP3    H1 8687   4.374   0.427   2.889
 2910TIP3    H2 8688   4.476   0.535   2.863
 2911TIP3   OH2 8689   5.291   1.859   0.569
 2911TIP3    H1 8690   5.370   1.901   0.534
 2911TIP3    H2 8691   5.323   1.808   0.644
 2912TIP3   OH2 8692   4.749   7.498   5.426
 2912TIP3    H1 8693   4.657   7.521   5.411
 2912TIP3    H2 8694   4.748   7.444   5.505
 2913TIP3   OH2 8695   7.058   0.614   6.314
 2913TIP3    H1 8696   7.080   0.529   6.352
 2913TIP3    H2 8697   7.140   0.646   6.278
 2914TIP3   OH2 8698   7.913   3.965   1.455
 2914TIP3    H1 8699   7.891   3.886   1.504
 2914TIP3    H2 8700   7.970   3.934   1.385
 2915TIP3   OH2 8701   7.168   2.637   1.128
 2915TIP3    H1 8702   7.110   2.637   1.204
 2915TIP3    H2 8703   7.139   2.562   1.075
 2916TIP3   OH2 8704   6.970   2.833   2.214
 2916TIP3    H1 8705   7.038   2.790   2.162
 2916TIP3    H2 8706   6.907   2.866   2.150
 2917TIP3   OH2 8707   8.269   2.301   3.180
 2917TIP3    H1 8708   8.278   2.234   3.112
 2917TIP3    H2 8709   8.265   2.251   3.262
 2918TIP3   OH2 8710   0.243   4.075   4.505
 2918TIP3    H1 8711   0.263   4.167   4.516
 2918TIP3    H2 8712   0.195   4.070   4.422
 2919TIP3   OH2 8713   4.530   1.733   4.683
 2919TIP3    H1 8714   4.592   1.802   4.707
 2919TIP3    H2 8715   4.475   1.723   4.761
 2920TIP3   OH2 8716   4.823   6.766   5.907
 2920TIP3    H1 8717   4.883   6.841   5.909
 2920TIP3    H2 8718   4.878   6.693   5.877
 2921TIP3   OH2 8719   4.885   0.141   5.708
 2921TIP3    H1 8720   4.907   0.193   5.785
 2921TIP3    H2 8721   4.961   0.149   5.650
 2922TIP3   OH2 8722   2.103   3.561   1.699
 2922TIP3    H1 8723   2.167   3.617   1.656
 2922TIP3    H2 8724   2.094   3.485   1.641
 2923TIP3   OH2 8725   4.506   4.681   2.245
 2923TIP3    H1 8726   4.449   4.740   2.197
 2923TIP3    H2 8727   4.457   4.659   2.324
 2924TIP3   OH2 8728   5.161   2.468   5.289
 2924TIP3    H1 8729   5.087   2.526   5.268
 2924TIP3    H2 8730   5.201   2.448   5.204
 2925TIP3   OH2 8731   1.412   3.953   1.587
 2925TIP3    H1 8732   1.348   3.886   1.611
 2925TIP3    H2 8733   1.495   3.905   1.578
 2926TIP3   OH2 8734   4.559   0.372   3.927
 2926TIP3    H1 8735   4.544   0.316   4.003
 2926TIP3    H2 8736   4.594   0.453   3.963
 2927TIP3   OH2 8737   2.079   0.515   0.618
 2927TIP3    H1 8738   2.104   0.489   0.707
 2927TIP3    H2 8739   1.994   0.472   0.604
 2928TIP3   OH2 8740   1.840   0.794   2.903
 2928TIP3    H1 8741   1.860   0.733   2.974
 2928TIP3    H2 8742   1.839   0.740   2.824
 2929TIP3   OH2 8743   2.676   7.066   3.781
 2929TIP3    H1 8744   2.603   7.026   3.829
 2929TIP3    H2 8745   2.691   7.149   3.824
 2930TIP3   OH2 8746   1.285   0.191   5.611
 2930TIP3    H1 8747   1.336   0.141   5.546
 2930TIP3    H2 8748   1.265   0.127   5.679
 2931TIP3   OH2 8749   1.863   1.172   0.145
 2931TIP3    H1 8750   1.859   1.126   0.229
 2931TIP3    H2 8751   1.816   1.116   0.084
 2932TIP3   OH2 8752   1.881   7.542   1.355
 2932TIP3    H1 8753   1.901   7.601   1.283
 2932TIP3    H2 8754   1.800   7.577   1.393
 2933TIP3   OH2 8755   6.874   1.267   2.134
 2933TIP3    H1 8756   6.829   1.309   2.208
 2933TIP3    H2 8757   6.928   1.337   2.097
 2934TIP3   OH2 8758   4.581   1.648   4.409
 2934TIP3    H1 8759   4.562   1.555   4.408
 2934TIP3    H2 8760   4.599   1.669   4.501
 2935TIP3   OH2 8761   7.436   6.806   2.784
 2935TIP3    H1 8762   7.483   6.723   2.784
 2935TIP3    H2 8763   7.349   6.784   2.817
 2936TIP3   OH2 8764   0.037   4.190   3.667
 2936TIP3    H1 8765   0.098   4.125   3.701
 2936TIP3    H2 8766   0.006   4.237   3.744
 2937TIP3   OH2 8767   0.194   2.058   6.189
 2937TIP3    H1 8768   0.240   2.014   6.261
 2937TIP3    H2 8769   0.249   2.042   6.112
 2938TIP3   OH2 8770   5.241   5.307   1.507
 2938TIP3    H1 8771   5.288   5.288   1.426
 2938TIP3    H2 8772   5.310   5.333   1.569
 2939TIP3   OH2 8773   0.788   2.314   4.632
 2939TIP3    H1 8774   0.743   2.260   4.568
 2939TIP3    H2 8775   0.863   2.260   4.660
 2940TIP3   OH2 8776   5.159   7.213   4.457
 2940TIP3    H1 8777   5.180   7.235   4.548
 2940TIP3    H2 8778   5.164   7.118   4.453
 2941TIP3   OH2 8779   7.902   0.176   5.500
 2941TIP3    H1 8780   7.853   0.252   5.468
 2941TIP3    H2 8781   7.967   0.160   5.432
 2942TIP3   OH2 8782   2.582   3.878   2.064
 2942TIP3    H1 8783   2.658   3.890   2.007
 2942TIP3    H2 8784   2.546   3.794   2.038
 2943TIP3   OH2 8785   2.360   7.124   4.715
 2943TIP3    H1 8786   2.321   7.190   4.658
 2943TIP3    H2 8787   2.285   7.084   4.760
 2944TIP3   OH2 8788   1.940   0.365   1.642
 2944TIP3    H1 8789   1.987   0.295   1.597
 2944TIP3    H2 8790   1.903   0.324   1.719
 2945TIP3   OH2 8791   8.143   7.415   2.271
 2945TIP3    H1 8792   8.063   7.405   2.324
 2945TIP3    H2 8793   8.194   7.481   2.318
 2946TIP3   OH2 8794   7.444   5.719   6.327
 2946TIP3    H1 8795   7.537   5.726   6.347
 2946TIP3    H2 8796   7.403   5.698   6.411
 2947TIP3   OH2 8797   7.708   2.224   1.236
 2947TIP3    H1 8798   7.761   2.155   1.198
 2947TIP3    H2 8799   7.760   2.258   1.309
 2948TIP3   OH2 8800   7.563   5.886   5.218
 2948TIP3    H1 8801   7.552   5.847   5.304
 2948TIP3    H2 8802   7.524   5.822   5.157
 2949TIP3   OH2 8803   7.628   2.538   2.902
 2949TIP3    H1 8804   7.695   2.529   2.969
 2949TIP3    H2 8805   7.545   2.535   2.950
 2950TIP3   OH2 8806   2.947   3.484   3.553
 2950TIP3    H1 8807   3.008   3.414   3.528
 2950TIP3    H2 8808   2.992   3.533   3.621
 2951TIP3   OH2 8809   1.809   1.648   5.277
 2951TIP3    H1 8810   1.804   1.736   5.315
 2951TIP3    H2 8811   1.816   1.590   5.353
 2952TIP3   OH2 8812   1.771   0.272   4.835
 2952TIP3    H1 8813   1.790   0.358   4.798
 2952TIP3    H2 8814   1.710   0.232   4.773
 2953TIP3   OH2 8815   5.168   4.238   4.644
 2953TIP3    H1 8816   5.176   4.178   4.718
 2953TIP3    H2 8817   5.128   4.186   4.575
 2954TIP3   OH2 8818   8.160   4.493   0.889
 2954TIP3    H1 8819   8.126   4.470   0.803
 2954TIP3    H2 8820   8.232   4.553   0.872
 2955TIP3   OH2 8821   3.550   4.623   6.452
 2955TIP3    H1 8822   3.553   4.531   6.477
 2955TIP3    H2 8823   3.634   4.658   6.482
 2956TIP3   OH2 8824   5.676   3.510   1.047
 2956TIP3    H1 8825   5.673   3.597   1.086
 2956TIP3    H2 8826   5.735   3.460   1.104
 2957TIP3   OH2 8827   8.238   7.449   0.979
 2957TIP3    H1 8828   8.232   7.513   1.050
 2957TIP3    H2 8829   8.189   7.373   1.010
 2958TIP3   OH2 8830   2.480   6.639   5.258
 2958TIP3    H1 8831   2.493   6.590   5.177
 2958TIP3    H2 8832   2.482   6.731   5.231
 2959TIP3   OH2 8833   2.036   1.567   3.623
 2959TIP3    H1 8834   2.033   1.622   3.545
 2959TIP3    H2 8835   1.986   1.615   3.689
 2960TIP3   OH2 8836   4.006   6.889   1.964
 2960TIP3    H1 8837   3.912   6.900   1.954
 2960TIP3    H2 8838   4.027   6.812   1.911
 2961TIP3   OH2 8839   4.785   1.054   6.705
 2961TIP3    H1 8840   4.828   1.112   6.767
 2961TIP3    H2 8841   4.709   1.021   6.752
 2962TIP3   OH2 8842   4.121   1.383   3.100
 2962TIP3    H1 8843   4.161   1.463   3.133
 2962TIP3    H2 8844   4.030   1.388   3.129
 2963TIP3   OH2 8845   2.453   6.520   3.206
 2963TIP3    H1 8846   2.544   6.551   3.208
 2963TIP3    H2 8847   2.422   6.532   3.296
 2964TIP3   OH2 8848   3.890   4.070   0.686
 2964TIP3    H1 8849   3.826   4.058   0.616
 2964TIP3    H2 8850   3.848   4.032   0.764
 2965TIP3   OH2 8851   1.272   5.021   6.205
 2965TIP3    H1 8852   1.218   5.091   6.169
 2965TIP3    H2 8853   1.310   5.059   6.285
 2966TIP3   OH2 8854   0.598   4.899   0.408
 2966TIP3    H1 8855   0.567   4.917   0.320
 2966TIP3    H2 8856   0.603   4.984   0.450
 2967TIP3   OH2 8857   2.882   0.664   4.541
 2967TIP3    H1 8858   2.844   0.692   4.624
 2967TIP3    H2 8859   2.964   0.713   4.534
 2968TIP3   OH2 8860   2.451   0.232   0.206
 2968TIP3    H1 8861   2.414   0.146   0.186
 2968TIP3    H2 8862   2.481   0.225   0.296
 2969TIP3   OH2 8863   2.898   3.785   4.409
 2969TIP3    H1 8864   2.912   3.721   4.478
 2969TIP3    H2 8865   2.877   3.733   4.331
 2970TIP3   OH2 8866   0.491   4.766   4.771
 2970TIP3    H1 8867   0.408   4.733   4.737
 2970TIP3    H2 8868   0.531   4.813   4.698
 2971TIP3   OH2 8869   2.881   0.262   5.013
 2971TIP3    H1 8870   2.791   0.232   5.023
 2971TIP3    H2 8871   2.912   0.276   5.102
 2972TIP3   OH2 8872   6.965   7.378   0.742
 2972TIP3    H1 8873   7.034   7.370   0.808
 2972TIP3    H2 8874   6.885   7.351   0.787
 2973TIP3   OH2 8875   5.754   3.632   2.774
 2973TIP3    H1 8876   5.687   3.700   2.779
 2973TIP3    H2 8877   5.711   3.553   2.807
 2974TIP3   OH2 8878   4.412   1.110   3.290
 2974TIP3    H1 8879   4.422   1.179   3.355
 2974TIP3    H2 8880   4.453   1.033   3.331
 2975TIP3   OH2 8881   4.252   5.030   6.305
 2975TIP3    H1 8882   4.221   4.991   6.387
 2975TIP3    H2 8883   4.273   5.120   6.328
 2976TIP3   OH2 8884   6.960   1.253   2.474
 2976TIP3    H1 8885   6.973   1.221   2.563
 2976TIP3    H2 8886   6.869   1.282   2.471
 2977TIP3   OH2 8887   8.051   2.891   0.876
 2977TIP3    H1 8888   8.113   2.964   0.875
 2977TIP3    H2 8889   8.106   2.813   0.881
 2978TIP3   OH2 8890   5.153   5.314   6.646
 2978TIP3    H1 8891   5.067   5.355   6.633
 2978TIP3    H2 8892   5.216   5.378   6.614
 2979TIP3   OH2 8893   5.643   6.587   3.728
 2979TIP3    H1 8894   5.560   6.603   3.771
 2979TIP3    H2 8895   5.628   6.509   3.675
 2980TIP3   OH2 8896   3.420   4.422   2.825
 2980TIP3    H1 8897   3.379   4.336   2.824
 2980TIP3    H2 8898   3.352   4.482   2.794
 2981TIP3   OH2 8899   0.120   2.593   2.272
 2981TIP3    H1 8900   0.137   2.687   2.281
 2981TIP3    H2 8901   0.090   2.583   2.181
 2982TIP3   OH2 8902   1.724   2.437   6.654
 2982TIP3    H1 8903   1.686   2.521   6.679
 2982TIP3    H2 8904   1.687   2.373   6.715
 2983TIP3   OH2 8905   2.802   1.423   5.411
 2983TIP3    H1 8906   2.782   1.357   5.345
 2983TIP3    H2 8907   2.732   1.415   5.475
 2984TIP3   OH2 8908   3.783   4.879   1.452
 2984TIP3    H1 8909   3.763   4.971   1.439
 2984TIP3    H2 8910   3.860   4.878   1.508
 2985TIP3   OH2 8911   0.878   4.910   0.212
 2985TIP3    H1 8912   0.806   4.966   0.239
 2985TIP3    H2 8913   0.890   4.848   0.284
 2986TIP3   OH2 8914   7.567   0.333   6.182
 2986TIP3    H1 8915   7.533   0.308   6.097
 2986TIP3    H2 8916   7.580   0.428   6.176
 2987TIP3   OH2 8917   1.487   7.459   3.496
 2987TIP3    H1 8918   1.485   7.461   3.591
 2987TIP3    H2 8919   1.566   7.508   3.472
 2988TIP3   OH2 8920   7.448   4.127   1.930
 2988TIP3    H1 8921   7.471   4.201   1.873
 2988TIP3    H2 8922   7.353   4.133   1.939
 2989TIP3   OH2 8923   6.815   2.456   3.408
 2989TIP3    H1 8924   6.725   2.426   3.417
 2989TIP3    H2 8925   6.807   2.542   3.365
 2990TIP3   OH2 8926   2.154   5.308   2.444
 2990TIP3    H1 8927   2.127   5.217   2.432
 2990TIP3    H2 8928   2.241   5.313   2.404
 2991TIP3   OH2 8929   6.799   6.074   4.767
 2991TIP3    H1 8930   6.879   6.056   4.719
 2991TIP3    H2 8931   6.800   6.012   4.840
 2992TIP3   OH2 8932   4.716   4.432   4.533
 2992TIP3    H1 8933   4.808   4.452   4.550
 2992TIP3    H2 8934   4.681   4.405   4.618
 2993TIP3   OH2 8935   6.604   5.148   5.968
 2993TIP3    H1 8936   6.533   5.209   5.947
 2993TIP3    H2 8937   6.580   5.110   6.052
 2994TIP3   OH2 8938   3.953   1.723   4.906
 2994TIP3    H1 8939   4.002   1.700   4.986
 2994TIP3    H2 8940   3.863   1.700   4.927
 2995TIP3   OH2 8941   2.225   6.690   5.792
 2995TIP3    H1 8942   2.211   6.747   5.868
 2995TIP3    H2 8943   2.320   6.690   5.780
 2996TIP3   OH2 8944   5.037   2.713   0.768
 2996TIP3    H1 8945   4.992   2.771   0.706
 2996TIP3    H2 8946   4.974   2.700   0.839
 2997TIP3   OH2 8947   1.517   4.183   2.197
 2997TIP3    H1 8948   1.521   4.244   2.124
 2997TIP3    H2 8949   1.578   4.114   2.174
 2998TIP3   OH2 8950   6.435   0.651   0.651
 2998TIP3    H1 8951   6.473   0.730   0.688
 2998TIP3    H2 8952   6.403   0.601   0.727
 2999TIP3   OH2 8953   5.480   2.562   0.924
 2999TIP3    H1 8954   5.514   2.532   1.008
 2999TIP3    H2 8955   5.413   2.498   0.900
 3000TIP3   OH2 8956   7.020   5.029   5.709
 3000TIP3    H1 8957   6.982   4.947   5.677
 3000TIP3    H2 8958   6.955   5.064   5.770
 3001TIP3   OH2 8959   3.080   0.214   1.707
 3001TIP3    H1 8960   3.013   0.248   1.647
 3001TIP3    H2 8961   3.054   0.247   1.793
 3002TIP3   OH2 8962   7.729   6.643   0.338
 3002TIP3    H1 8963   7.638   6.653   0.366
 3002TIP3    H2 8964   7.723   6.601   0.252
 3003TIP3   OH2 8965   1.087   1.545   5.403
 3003TIP3    H1 8966   0.993   1.563   5.399
 3003TIP3    H2 8967   1.123   1.594   5.329
 3004TIP3   OH2 8968   2.799   4.790   3.443
 3004TIP3    H1 8969   2.861   4.822   3.509
 3004TIP3    H2 8970   2.751   4.720   3.488
 3005TIP3   OH2 8971   3.893   3.635   1.469
 3005TIP3    H1 8972   3.962   3.695   1.498
 3005TIP3    H2 8973   3.918   3.550   1.507
 3006TIP3   OH2 8974   2.967   0.596   0.931
 3006TIP3    H1 8975   2.953   0.689   0.918
 3006TIP3    H2 8976   2.935   0.555   0.850
 3007TIP3   OH2 8977   7.685   5.912   2.309
 3007TIP3    H1 8978   7.703   5.979   2.243
 3007TIP3    H2 8979   7.746   5.841   2.288
 3008TIP3   OH2 8980   1.219   5.438   1.785
 3008TIP3    H1 8981   1.172   5.455   1.866
 3008TIP3    H2 8982   1.311   5.454   1.806
 3009TIP3   OH2 8983   4.218   7.361   3.669
 3009TIP3    H1 8984   4.148   7.299   3.648
 3009TIP3    H2 8985   4.177   7.425   3.728
 3010TIP3   OH2 8986   4.322   3.965   2.458
 3010TIP3    H1 8987   4.352   3.915   2.534
 3010TIP3    H2 8988   4.398   3.970   2.401
 3011TIP3   OH2 8989   7.704   3.795   0.365
 3011TIP3    H1 8990   7.693   3.863   0.432
 3011TIP3    H2 8991   7.623   3.746   0.367
 3012TIP3   OH2 8992   1.205   4.623   0.273
 3012TIP3    H1 8993   1.252   4.671   0.205
 3012TIP3    H2 8994   1.192   4.536   0.236
 3013TIP3   OH2 8995   4.316   5.474   0.881
 3013TIP3    H1 8996   4.249   5.440   0.822
 3013TIP3    H2 8997   4.289   5.564   0.899
 3014TIP3   OH2 8998   2.873   6.352   3.651
 3014TIP3    H1 8999   2.869   6.428   3.710
 3014TIP3    H2 9000   2.952   6.366   3.600
 3015TIP3   OH2 9001   8.268   0.859   1.866
 3015TIP3    H1 9002   8.200   0.897   1.921
 3015TIP3    H2 9003   8.221   0.819   1.794
 3016TIP3   OH2 9004   4.584   2.879   0.304
 3016TIP3    H1 9005   4.611   2.936   0.231
 3016TIP3    H2 9006   4.512   2.926   0.345
 3017TIP3   OH2 9007   5.366   7.493   5.024
 3017TIP3    H1 9008   5.406   7.560   5.079
 3017TIP3    H2 9009   5.425   7.418   5.030
 3018TIP3   OH2 9010   6.593   0.874   1.282
 3018TIP3    H1 9011   6.604   0.968   1.276
 3018TIP3    H2 9012   6.569   0.846   1.194
 3019TIP3   OH2 9013   3.684   4.150   4.694
 3019TIP3    H1 9014   3.748   4.219   4.714
 3019TIP3    H2 9015   3.616   4.162   4.761
 3020TIP3   OH2 9016   6.175   1.988   3.097
 3020TIP3    H1 9017   6.251   1.956   3.049
 3020TIP3    H2 9018   6.110   1.918   3.087
 3021TIP3   OH2 9019   4.118   7.707   1.322
 3021TIP3    H1 9020   4.120   7.800   1.297
 3021TIP3    H2 9021   4.198   7.671   1.284
 3022TIP3   OH2 9022   1.534   0.805   2.054
 3022TIP3    H1 9023   1.504   0.729   2.004
 3022TIP3    H2 9024   1.627   0.812   2.035
 3023TIP3   OH2 9025   3.806   3.508   3.506
 3023TIP3    H1 9026   3.771   3.443   3.445
 3023TIP3    H2 9027   3.794   3.468   3.593
 3024TIP3   OH2 9028   0.696   2.391   5.040
 3024TIP3    H1 9029   0.623   2.329   5.028
 3024TIP3    H2 9030   0.701   2.439   4.958
 3025TIP3   OH2 9031   8.178   5.680   1.982
 3025TIP3    H1 9032   8.271   5.659   1.979
 3025TIP3    H2 9033   8.136   5.598   2.011
 3026TIP3   OH2 9034   3.448   3.355   4.933
 3026TIP3    H1 9035   3.397   3.275   4.942
 3026TIP3    H2 9036   3.499   3.343   4.853
 3027TIP3   OH2 9037   6.446   5.277   3.788
 3027TIP3    H1 9038   6.445   5.184   3.769
 3027TIP3    H2 9039   6.452   5.282   3.884
 3028TIP3   OH2 9040   2.432   3.490   4.290
 3028TIP3    H1 9041   2.397   3.478   4.378
 3028TIP3    H2 9042   2.377   3.434   4.235
 3029TIP3   OH2 9043   4.362   4.273   0.778
 3029TIP3    H1 9044   4.319   4.218   0.844
 3029TIP3    H2 9045   4.361   4.361   0.815
 3030TIP3   OH2 9046   2.442   1.869   0.207
 3030TIP3    H1 9047   2.492   1.831   0.134
 3030TIP3    H2 9048   2.493   1.846   0.285
 3031TIP3   OH2 9049   5.467   0.365   5.716
 3031TIP3    H1 9050   5.534   0.433   5.725
 3031TIP3    H2 9051   5.503   0.304   5.652
 3032TIP3   OH2 9052   0.519   4.501   1.456
 3032TIP3    H1 9053   0.439   4.490   1.405
 3032TIP3    H2 9054   0.586   4.452   1.407
 3033TIP3   OH2 9055   3.858   4.680   3.075
 3033TIP3    H1 9056   3.762   4.682   3.082
 3033TIP3    H2 9057   3.885   4.771   3.087
 3034TIP3   OH2 9058   7.891   4.544   2.393
 3034TIP3    H1 9059   7.954   4.559   2.322
 3034TIP3    H2 9060   7.811   4.586   2.362
 3035TIP3   OH2 9061   4.754   1.946   1.189
 3035TIP3    H1 9062   4.750   2.038   1.216
 3035TIP3    H2 9063   4.827   1.942   1.127
 3036TIP3   OH2 9064   2.031   7.021   5.880
 3036TIP3    H1 9065   2.004   6.986   5.965
 3036TIP3    H2 9066   1.999   6.957   5.817
 3037TIP3   OH2 9067   6.442   4.941   4.038
 3037TIP3    H1 9068   6.451   4.869   4.101
 3037TIP3    H2 9069   6.528   4.947   3.997
 3038TIP3   OH2 9070   3.058   3.739   5.070
 3038TIP3    H1 9071   3.138   3.709   5.112
 3038TIP3    H2 9072   3.021   3.803   5.131
 3039TIP3   OH2 9073   4.411   0.397   4.868
 3039TIP3    H1 9074   4.481   0.333   4.884
 3039TIP3    H2 9075   4.438   0.474   4.918
 3040TIP3   OH2 9076   1.750   5.462   5.598
 3040TIP3    H1 9077   1.768   5.495   5.686
 3040TIP3    H2 9078   1.655   5.463   5.591
 3041TIP3   OH2 9079   7.391   3.392   0.165
 3041TIP3    H1 9080   7.429   3.307   0.186
 3041TIP3    H2 9081   7.297   3.378   0.164
 3042TIP3   OH2 9082   2.916   1.027   3.267
 3042TIP3    H1 9083   2.897   1.060   3.180
 3042TIP3    H2 9084   3.011   1.028   3.274
 3043TIP3   OH2 9085   5.564   1.749   3.903
 3043TIP3    H1 9086   5.558   1.659   3.870
 3043TIP3    H2 9087   5.482   1.790   3.877
 3044TIP3   OH2 9088   0.538   0.212   5.379
 3044TIP3    H1 9089   0.543   0.122   5.412
 3044TIP3    H2 9090   0.559   0.267   5.455
 3045TIP3   OH2 9091   3.135   7.261   1.271
 3045TIP3    H1 9092   3.087   7.341   1.288
 3045TIP3    H2 9093   3.122   7.208   1.349
 3046TIP3   OH2 9094   3.112   2.633   0.383
 3046TIP3    H1 9095   3.053   2.587   0.444
 3046TIP3    H2 9096   3.081   2.607   0.296
 3047TIP3   OH2 9097   3.799   1.710   3.204
 3047TIP3    H1 9098   3.856   1.732   3.278
 3047TIP3    H2 9099   3.858   1.707   3.128
 3048TIP3   OH2 9100   0.782   5.980   2.595
 3048TIP3    H1 9101   0.804   5.999   2.686
 3048TIP3    H2 9102   0.844   5.911   2.570
 3049TIP3   OH2 9103   3.976   6.019   1.450
 3049TIP3    H1 9104   3.910   5.968   1.403
 3049TIP3    H2 9105   3.927   6.090   1.491
 3050TIP3   OH2 9106   3.106   7.362   5.967
 3050TIP3    H1 9107   3.012   7.349   5.956
 3050TIP3    H2 9108   3.123   7.448   5.928
 3051TIP3   OH2 9109   4.005   0.824   5.699
 3051TIP3    H1 9110   3.911   0.808   5.690
 3051TIP3    H2 9111   4.037   0.836   5.610
 3052TIP3   OH2 9112   2.340   5.932   5.836
 3052TIP3    H1 9113   2.404   5.876   5.792
 3052TIP3    H2 9114   2.256   5.905   5.798
 3053TIP3   OH2 9115   2.216   5.563   1.012
 3053TIP3    H1 9116   2.131   5.521   1.003
 3053TIP3    H2 9117   2.277   5.503   0.968
 3054TIP3   OH2 9118   3.776   6.010   2.548
 3054TIP3    H1 9119   3.758   6.041   2.459
 3054TIP3    H2 9120   3.870   6.020   2.559
 3055TIP3   OH2 9121   1.153   4.628   2.642
 3055TIP3    H1 9122   1.076   4.591   2.685
 3055TIP3    H2 9123   1.144   4.600   2.550
 3056TIP3   OH2 9124   8.041   3.688   2.475
 3056TIP3    H1 9125   8.033   3.593   2.477
 3056TIP3    H2 9126   8.061   3.712   2.566
 3057TIP3   OH2 9127   5.854   4.457   5.869
 3057TIP3    H1 9128   5.866   4.512   5.946
 3057TIP3    H2 9129   5.861   4.367   5.902
 3058TIP3   OH2 9130   5.021   5.445   3.713
 3058TIP3    H1 9131   4.961   5.454   3.639
 3058TIP3    H2 9132   5.030   5.351   3.726
 3059TIP3   OH2 9133   3.234   4.937   3.710
 3059TIP3    H1 9134   3.246   4.906   3.800
 3059TIP3    H2 9135   3.313   4.909   3.664
 3060TIP3   OH2 9136   3.653   7.265   3.883
 3060TIP3    H1 9137   3.731   7.253   3.937
 3060TIP3    H2 9138   3.629   7.177   3.855
 3061TIP3   OH2 9139   0.059   0.416   0.745
 3061TIP3    H1 9140   0.003   0.351   0.702
 3061TIP3    H2 9141   0.144   0.406   0.704
 3062TIP3   OH2 9142   1.686   3.005   0.047
 3062TIP3    H1 9143   1.717   2.938   0.109
 3062TIP3    H2 9144   1.625   2.958  -0.010
 3063TIP3   OH2 9145   0.046   2.498   3.590
 3063TIP3    H1 9146  -0.013   2.563   3.551
 3063TIP3    H2 9147   0.003   2.472   3.671
 3064TIP3   OH2 9148   4.646   4.202   0.356
 3064TIP3    H1 9149   4.560   4.170   0.328
 3064TIP3    H2 9150   4.636   4.219   0.450
 3065TIP3   OH2 9151   3.451   7.587   0.392
 3065TIP3    H1 9152   3.450   7.662   0.333
 3065TIP3    H2 9153   3.460   7.625   0.480
 3066TIP3   OH2 9154   2.362   7.650   4.603
 3066TIP3    H1 9155   2.363   7.565   4.560
 3066TIP3    H2 9156   2.270   7.674   4.607
 3067TIP3   OH2 9157   4.209   1.085   4.684
 3067TIP3    H1 9158   4.189   1.064   4.592
 3067TIP3    H2 9159   4.126   1.119   4.719
 3068TIP3   OH2 9160   0.864   4.480   5.733
 3068TIP3    H1 9161   0.844   4.401   5.683
 3068TIP3    H2 9162   0.943   4.515   5.691
 3069TIP3   OH2 9163   5.220   3.202   1.584
 3069TIP3    H1 9164   5.285   3.272   1.582
 3069TIP3    H2 9165   5.271   3.121   1.584
 3070TIP3   OH2 9166   7.169   6.763   0.571
 3070TIP3    H1 9167   7.102   6.722   0.517
 3070TIP3    H2 9168   7.226   6.691   0.598
 3071TIP3   OH2 9169   7.326   1.066   5.904
 3071TIP3    H1 9170   7.259   1.123   5.867
 3071TIP3    H2 9171   7.357   1.013   5.830
 3072TIP3   OH2 9172   6.820   4.345   1.024
 3072TIP3    H1 9173   6.756   4.278   1.046
 3072TIP3    H2 9174   6.899   4.296   1.001
 3073TIP3   OH2 9175   6.596   3.043   0.598
 3073TIP3    H1 9176   6.580   2.956   0.636
 3073TIP3    H2 9177   6.580   3.104   0.671
 3074TIP3   OH2 9178   0.225   2.282   4.459
 3074TIP3    H1 9179   0.131   2.289   4.445
 3074TIP3    H2 9180   0.264   2.299   4.373
 3075TIP3   OH2 9181   3.862   3.470   4.414
 3075TIP3    H1 9182   3.934   3.408   4.403
 3075TIP3    H2 9183   3.784   3.415   4.423
 3076TIP3   OH2 9184   3.600   2.350   3.655
 3076TIP3    H1 9185   3.680   2.302   3.678
 3076TIP3    H2 9186   3.546   2.346   3.735
 3077TIP3   OH2 9187   7.939   5.766   6.346
 3077TIP3    H1 9188   7.930   5.801   6.257
 3077TIP3    H2 9189   7.854   5.726   6.365
 3078TIP3   OH2 9190   4.837   7.777   3.520
 3078TIP3    H1 9191   4.797   7.857   3.556
 3078TIP3    H2 9192   4.831   7.788   3.425
 3079TIP3   OH2 9193   8.169   7.388   5.355
 3079TIP3    H1 9194   8.077   7.362   5.361
 3079TIP3    H2 9195   8.170   7.461   5.294
 3080TIP3   OH2 9196   0.217   3.938   2.108
 3080TIP3    H1 9197   0.287   3.906   2.165
 3080TIP3    H2 9198   0.173   4.005   2.160
 3081TIP3   OH2 9199   2.540   2.738   3.308
 3081TIP3    H1 9200   2.581   2.798   3.370
 3081TIP3    H2 9201   2.525   2.791   3.229
 3082TIP3   OH2 9202   4.988   2.123   5.573
 3082TIP3    H1 9203   5.042   2.071   5.632
 3082TIP3    H2 9204   5.045   2.141   5.498
 3083TIP3   OH2 9205   3.732   6.613   0.918
 3083TIP3    H1 9206   3.676   6.545   0.881
 3083TIP3    H2 9207   3.818   6.571   0.927
 3084TIP3   OH2 9208   5.601   1.743   5.676
 3084TIP3    H1 9209   5.513   1.746   5.713
 3084TIP3    H2 9210   5.596   1.801   5.599
 3085TIP3   OH2 9211   3.351   3.080   4.885
 3085TIP3    H1 9212   3.367   3.041   4.971
 3085TIP3    H2 9213   3.413   3.036   4.827
 3086TIP3   OH2 9214   7.438   3.785   6.542
 3086TIP3    H1 9215   7.400   3.870   6.521
 3086TIP3    H2 9216   7.367   3.735   6.581
 3087TIP3   OH2 9217   1.579   2.339   0.565
 3087TIP3    H1 9218   1.614   2.383   0.488
 3087TIP3    H2 9219   1.490   2.373   0.573
 3088TIP3   OH2 9220   4.102   2.585   6.277
 3088TIP3    H1 9221   4.036   2.637   6.233
 3088TIP3    H2 9222   4.053   2.517   6.324
 3089TIP3   OH2 9223   2.258   4.925   3.948
 3089TIP3    H1 9224   2.260   4.986   4.022
 3089TIP3    H2 9225   2.200   4.855   3.977
 3090TIP3   OH2 9226   3.797   3.602   2.021
 3090TIP3    H1 9227   3.855   3.563   1.956
 3090TIP3    H2 9228   3.767   3.528   2.074
 3091TIP3   OH2 9229   1.924   0.347   0.140
 3091TIP3    H1 9230   1.977   0.391   0.206
 3091TIP3    H2 9231   1.932   0.402   0.062
 3092TIP3   OH2 9232   7.353   1.672   4.228
 3092TIP3    H1 9233   7.414   1.691   4.299
 3092TIP3    H2 9234   7.343   1.577   4.230
 3093TIP3   OH2 9235   6.194   6.914   0.334
 3093TIP3    H1 9236   6.124   6.852   0.310
 3093TIP3    H2 9237   6.148   6.994   0.357
 3094TIP3   OH2 9238   1.600   1.906   3.226
 3094TIP3    H1 9239   1.520   1.949   3.196
 3094TIP3    H2 9240   1.600   1.919   3.320
 3095TIP3   OH2 9241   5.370   3.641   4.077
 3095TIP3    H1 9242   5.402   3.578   4.012
 3095TIP3    H2 9243   5.276   3.644   4.063
 3096TIP3   OH2 9244   7.953   5.781   1.738
 3096TIP3    H1 9245   7.952   5.729   1.658
 3096TIP3    H2 9246   8.044   5.812   1.745
 3097TIP3   OH2 9247   5.114   0.209   1.606
 3097TIP3    H1 9248   5.133   0.129   1.557
 3097TIP3    H2 9249   5.155   0.195   1.691
 3098TIP3   OH2 9250   6.945   7.038   2.845
 3098TIP3    H1 9251   7.012   7.042   2.913
 3098TIP3    H2 9252   6.886   6.968   2.874
 3099TIP3   OH2 9253   7.508   4.933   2.552
 3099TIP3    H1 9254   7.541   4.922   2.641
 3099TIP3    H2 9255   7.566   4.878   2.499
 3100TIP3   OH2 9256   1.614   3.812   6.086
 3100TIP3    H1 9257   1.621   3.807   5.991
 3100TIP3    H2 9258   1.533   3.861   6.102
 3101TIP3   OH2 9259   2.966   7.042   2.860
 3101TIP3    H1 9260   2.956   7.080   2.948
 3101TIP3    H2 9261   3.026   7.101   2.815
 3102TIP3   OH2 9262   5.813   2.042   1.282
 3102TIP3    H1 9263   5.873   2.005   1.217
 3102TIP3    H2 9264   5.868   2.104   1.331
 3103TIP3   OH2 9265   0.143   6.478   0.855
 3103TIP3    H1 9266   0.198   6.468   0.932
 3103TIP3    H2 9267   0.108   6.567   0.862
 3104TIP3   OH2 9268   4.483   0.349   5.682
 3104TIP3    H1 9269   4.509   0.315   5.768
 3104TIP3    H2 9270   4.434   0.429   5.702
 3105TIP3   OH2 9271   6.655   4.467   2.983
 3105TIP3    H1 9272   6.656   4.375   2.957
 3105TIP3    H2 9273   6.628   4.514   2.904
 3106TIP3   OH2 9274   3.549   1.108   5.994
 3106TIP3    H1 9275   3.570   1.047   6.065
 3106TIP3    H2 9276   3.537   1.192   6.037
 3107TIP3   OH2 9277   1.913   3.262   2.389
 3107TIP3    H1 9278   1.948   3.241   2.476
 3107TIP3    H2 9279   1.819   3.273   2.403
 3108TIP3   OH2 9280   6.091   0.827   6.513
 3108TIP3    H1 9281   6.081   0.913   6.555
 3108TIP3    H2 9282   6.042   0.835   6.431
 3109TIP3   OH2 9283   5.807   5.963   3.363
 3109TIP3    H1 9284   5.879   6.007   3.318
 3109TIP3    H2 9285   5.798   6.011   3.446
 3110TIP3   OH2 9286   6.464   4.959   5.666
 3110TIP3    H1 9287   6.392   4.977   5.726
 3110TIP3    H2 9288   6.473   4.864   5.667
 3111TIP3   OH2 9289   6.408   5.539   4.366
 3111TIP3    H1 9290   6.501   5.518   4.361
 3111TIP3    H2 9291   6.406   5.634   4.375
 3112TIP3   OH2 9292   6.935   0.112   1.152
 3112TIP3    H1 9293   6.896   0.155   1.228
 3112TIP3    H2 9294   6.870   0.124   1.082
 3113TIP3   OH2 9295   2.403   0.539   2.395
 3113TIP3    H1 9296   2.353   0.557   2.474
 3113TIP3    H2 9297   2.488   0.581   2.410
 3114TIP3   OH2 9298   6.279   2.036   3.364
 3114TIP3    H1 9299   6.266   1.964   3.425
 3114TIP3    H2 9300   6.255   2.001   3.279
 3115TIP3   OH2 9301   5.315   3.967   4.581
 3115TIP3    H1 9302   5.238   3.912   4.570
 3115TIP3    H2 9303   5.386   3.917   4.542
 3116TIP3   OH2 9304   6.963   1.523   0.407
 3116TIP3    H1 9305   6.943   1.519   0.314
 3116TIP3    H2 9306   6.996   1.435   0.428
 3117TIP3   OH2 9307   6.372   6.039   5.528
 3117TIP3    H1 9308   6.389   5.985   5.451
 3117TIP3    H2 9309   6.327   5.981   5.590
 3118TIP3   OH2 9310   0.776   6.890   1.414
 3118TIP3    H1 9311   0.782   6.884   1.319
 3118TIP3    H2 9312   0.844   6.831   1.446
 3119TIP3   OH2 9313   2.379   1.816   6.047
 3119TIP3    H1 9314   2.370   1.893   6.104
 3119TIP3    H2 9315   2.374   1.742   6.107
 3120TIP3   OH2 9316   6.336   5.976   1.358
 3120TIP3    H1 9317   6.423   6.014   1.362
 3120TIP3    H2 9318   6.300   6.006   1.274
 3121TIP3   OH2 9319   3.966   4.064   2.053
 3121TIP3    H1 9320   3.993   4.045   1.963
 3121TIP3    H2 9321   4.040   4.035   2.107
 3122TIP3   OH2 9322   4.866   5.065   1.209
 3122TIP3    H1 9323   4.959   5.087   1.200
 3122TIP3    H2 9324   4.849   5.074   1.303
 3123TIP3   OH2 9325   0.204   0.802   3.470
 3123TIP3    H1 9326   0.183   0.893   3.448
 3123TIP3    H2 9327   0.292   0.789   3.434
 3124TIP3   OH2 9328   2.830   3.418   3.313
 3124TIP3    H1 9329   2.856   3.326   3.307
 3124TIP3    H2 9330   2.879   3.452   3.388
 3125TIP3   OH2 9331   0.299   0.121   6.527
 3125TIP3    H1 9332   0.261   0.208   6.534
 3125TIP3    H2 9333   0.322   0.098   6.617
 3126TIP3   OH2 9334   4.638   1.497   1.584
 3126TIP3    H1 9335   4.724   1.471   1.550
 3126TIP3    H2 9336   4.579   1.426   1.557
 3127TIP3   OH2 9337   2.155   5.842   3.685
 3127TIP3    H1 9338   2.092   5.789   3.637
 3127TIP3    H2 9339   2.177   5.790   3.762
 3128TIP3   OH2 9340   4.952   4.187   1.065
 3128TIP3    H1 9341   4.944   4.190   0.970
 3128TIP3    H2 9342   5.029   4.241   1.084
 3129TIP3   OH2 9343   6.375   0.960   4.763
 3129TIP3    H1 9344   6.328   1.040   4.786
 3129TIP3    H2 9345   6.422   0.936   4.842
 3130TIP3   OH2 9346   0.447   2.274   0.548
 3130TIP3    H1 9347   0.445   2.339   0.478
 3130TIP3    H2 9348   0.527   2.224   0.531
 3131TIP3   OH2 9349   2.466   5.120   0.974
 3131TIP3    H1 9350   2.381   5.165   0.976
 3131TIP3    H2 9351   2.472   5.078   1.060
 3132TIP3   OH2 9352   2.779   0.484   1.720
 3132TIP3    H1 9353   2.783   0.403   1.670
 3132TIP3    H2 9354   2.735   0.459   1.802
 3133TIP3   OH2 9355   3.367   5.422   6.428
 3133TIP3    H1 9356   3.396   5.495   6.482
 3133TIP3    H2 9357   3.428   5.421   6.354
 3134TIP3   OH2 9358   2.328   4.609   4.493
 3134TIP3    H1 9359   2.411   4.651   4.472
 3134TIP3    H2 9360   2.350   4.544   4.560
 3135TIP3   OH2 9361   0.997   1.636   6.230
 3135TIP3    H1 9362   1.072   1.611   6.284
 3135TIP3    H2 9363   1.034   1.649   6.143
 3136TIP3   OH2 9364   4.449   5.722   2.434
 3136TIP3    H1 9365   4.382   5.743   2.500
 3136TIP3    H2 9366   4.512   5.793   2.440
 3137TIP3   OH2 9367   0.053   2.604   6.077
 3137TIP3    H1 9368   0.063   2.638   5.988
 3137TIP3    H2 9369   0.026   2.513   6.065
 3138TIP3   OH2 9370   8.220   2.073   6.121
 3138TIP3    H1 9371   8.216   2.013   6.046
 3138TIP3    H2 9372   8.313   2.077   6.143
 3139TIP3   OH2 9373   0.688   6.317   5.035
 3139TIP3    H1 9374   0.699   6.283   4.946
 3139TIP3    H2 9375   0.679   6.412   5.022
 3140TIP3   OH2 9376   7.463   3.032   6.068
 3140TIP3    H1 9377   7.553   3.065   6.058
 3140TIP3    H2 9378   7.449   3.031   6.163
 3141TIP3   OH2 9379   1.256   1.390   4.674
 3141TIP3    H1 9380   1.269   1.318   4.735
 3141TIP3    H2 9381   1.200   1.353   4.605
 3142TIP3   OH2 9382   6.534   4.277   1.551
 3142TIP3    H1 9383   6.531   4.232   1.636
 3142TIP3    H2 9384   6.444   4.304   1.536
 3143TIP3   OH2 9385   1.442   2.773   5.937
 3143TIP3    H1 9386   1.533   2.782   5.909
 3143TIP3    H2 9387   1.400   2.726   5.864
 3144TIP3   OH2 9388   4.783   0.356   3.633
 3144TIP3    H1 9389   4.753   0.289   3.572
 3144TIP3    H2 9390   4.871   0.378   3.605
 3145TIP3   OH2 9391   4.344   5.248   1.115
 3145TIP3    H1 9392   4.260   5.271   1.074
 3145TIP3    H2 9393   4.321   5.183   1.181
 3146TIP3   OH2 9394   3.341   7.616   4.058
 3146TIP3    H1 9395   3.350   7.547   4.124
 3146TIP3    H2 9396   3.364   7.573   3.976
 3147TIP3   OH2 9397   3.868   0.124   4.151
 3147TIP3    H1 9398   3.870   0.100   4.244
 3147TIP3    H2 9399   3.834   0.046   4.107
 3148TIP3   OH2 9400   5.925   2.892   1.357
 3148TIP3    H1 9401   5.942   2.831   1.429
 3148TIP3    H2 9402   5.863   2.955   1.392
 3149TIP3   OH2 9403   4.708   3.789   0.513
 3149TIP3    H1 9404   4.778   3.854   0.511
 3149TIP3    H2 9405   4.728   3.735   0.589
 3150TIP3   OH2 9406   1.216   1.937   5.910
 3150TIP3    H1 9407   1.173   2.020   5.890
 3150TIP3    H2 9408   1.280   1.926   5.839
 3151TIP3   OH2 9409   4.097   6.450   1.596
 3151TIP3    H1 9410   4.065   6.503   1.523
 3151TIP3    H2 9411   4.161   6.390   1.557
 3152TIP3   OH2 9412   5.192   6.428   3.117
 3152TIP3    H1 9413   5.252   6.359   3.092
 3152TIP3    H2 9414   5.185   6.421   3.212
 3153TIP3   OH2 9415   1.912   5.781   6.581
 3153TIP3    H1 9416   1.900   5.696   6.539
 3153TIP3    H2 9417   1.833   5.830   6.561
 3154TIP3   OH2 9418   7.943   1.770   2.757
 3154TIP3    H1 9419   7.944   1.776   2.852
 3154TIP3    H2 9420   7.973   1.857   2.728
 3155TIP3   OH2 9421   0.196   6.940   1.858
 3155TIP3    H1 9422   0.114   6.908   1.895
 3155TIP3    H2 9423   0.253   6.953   1.933
 3156TIP3   OH2 9424   3.203   5.206   2.618
 3156TIP3    H1 9425   3.241   5.291   2.594
 3156TIP3    H2 9426   3.112   5.226   2.640
 3157TIP3   OH2 9427   4.292   0.294   1.108
 3157TIP3    H1 9428   4.217   0.235   1.118
 3157TIP3    H2 9429   4.306   0.299   1.013
 3158TIP3   OH2 9430   7.815   4.961   4.625
 3158TIP3    H1 9431   7.857   4.993   4.704
 3158TIP3    H2 9432   7.872   4.890   4.594
 3159TIP3   OH2 9433   5.066   1.154   2.180
 3159TIP3    H1 9434   5.135   1.218   2.199
 3159TIP3    H2 9435   5.064   1.149   2.084
 3160TIP3   OH2 9436   7.767   5.590   0.899
 3160TIP3    H1 9437   7.770   5.527   0.970
 3160TIP3    H2 9438   7.788   5.674   0.939
 3161TIP3   OH2 9439   1.426   6.467   3.903
 3161TIP3    H1 9440   1.387   6.434   3.822
 3161TIP3    H2 9441   1.366   6.439   3.972
 3162TIP3   OH2 9442   5.925   5.112   0.478
 3162TIP3    H1 9443   5.907   5.018   0.481
 3162TIP3    H2 9444   5.998   5.121   0.416
 3163TIP3   OH2 9445   2.971   6.024   5.773
 3163TIP3    H1 9446   2.882   6.022   5.808
 3163TIP3    H2 9447   2.972   6.100   5.715
 3164TIP3   OH2 9448   3.420   4.205   0.297
 3164TIP3    H1 9449   3.378   4.133   0.249
 3164TIP3    H2 9450   3.389   4.195   0.387
 3165TIP3   OH2 9451   6.104   1.059   6.644
 3165TIP3    H1 9452   6.197   1.038   6.641
 3165TIP3    H2 9453   6.087   1.105   6.562
 3166TIP3   OH2 9454   4.177   0.446   0.599
 3166TIP3    H1 9455   4.214   0.490   0.675
 3166TIP3    H2 9456   4.122   0.377   0.637
 3167TIP3   OH2 9457   4.353   1.794   2.396
 3167TIP3    H1 9458   4.269   1.835   2.372
 3167TIP3    H2 9459   4.398   1.784   2.312
 3168TIP3   OH2 9460   6.288   6.293   5.673
 3168TIP3    H1 9461   6.330   6.222   5.624
 3168TIP3    H2 9462   6.194   6.272   5.669
 3169TIP3   OH2 9463   0.629   0.347   6.162
 3169TIP3    H1 9464   0.716   0.357   6.201
 3169TIP3    H2 9465   0.591   0.435   6.165
 3170TIP3   OH2 9466   3.854   2.951   3.053
 3170TIP3    H1 9467   3.922   2.885   3.062
 3170TIP3    H2 9468   3.821   2.939   2.964
 3171TIP3   OH2 9469   6.903   3.802   5.607
 3171TIP3    H1 9470   6.885   3.858   5.683
 3171TIP3    H2 9471   6.956   3.856   5.549
 3172TIP3   OH2 9472   7.869   4.716   0.645
 3172TIP3    H1 9473   7.803   4.784   0.632
 3172TIP3    H2 9474   7.947   4.763   0.675
 3173TIP3   OH2 9475   5.911   1.157   1.855
 3173TIP3    H1 9476   5.876   1.069   1.870
 3173TIP3    H2 9477   5.834   1.212   1.842
 3174TIP3   OH2 9478   2.701   7.364   2.523
 3174TIP3    H1 9479   2.657   7.416   2.456
 3174TIP3    H2 9480   2.662   7.393   2.606
 3175TIP3   OH2 9481   6.995   0.773   0.749
 3175TIP3    H1 9482   7.031   0.729   0.826
 3175TIP3    H2 9483   6.902   0.784   0.768
 3176TIP3   OH2 9484   3.444   5.856   6.206
 3176TIP3    H1 9485   3.465   5.949   6.199
 3176TIP3    H2 9486   3.438   5.826   6.115
 3177TIP3   OH2 9487   1.168   6.359   3.925
 3177TIP3    H1 9488   1.175   6.362   3.830
 3177TIP3    H2 9489   1.141   6.269   3.945
 3178TIP3   OH2 9490   0.927   5.196   3.659
 3178TIP3    H1 9491   0.921   5.281   3.705
 3178TIP3    H2 9492   0.965   5.137   3.724
 3179TIP3   OH2 9493   8.181   4.443   4.974
 3179TIP3    H1 9494   8.187   4.530   4.935
 3179TIP3    H2 9495   8.137   4.389   4.908
 3180TIP3   OH2 9496   3.835   7.363   1.810
 3180TIP3    H1 9497   3.828   7.361   1.715
 3180TIP3    H2 9498   3.796   7.446   1.836
 3181TIP3   OH2 9499   4.060   1.700   5.156
 3181TIP3    H1 9500   4.034   1.636   5.222
 3181TIP3    H2 9501   4.105   1.769   5.206
 3182TIP3   OH2 9502   4.707   6.818   2.878
 3182TIP3    H1 9503   4.717   6.742   2.821
 3182TIP3    H2 9504   4.796   6.836   2.909
 3183TIP3   OH2 9505   6.690   7.806   2.112
 3183TIP3    H1 9506   6.685   7.881   2.052
 3183TIP3    H2 9507   6.617   7.749   2.085
 3184TIP3   OH2 9508   1.716   3.824   3.739
 3184TIP3    H1 9509   1.744   3.756   3.799
 3184TIP3    H2 9510   1.656   3.779   3.679
 3185TIP3   OH2 9511   2.641   6.531   2.534
 3185TIP3    H1 9512   2.718   6.505   2.484
 3185TIP3    H2 9513   2.571   6.476   2.499
 3186TIP3   OH2 9514   8.068   3.925   3.261
 3186TIP3    H1 9515   8.090   4.002   3.209
 3186TIP3    H2 9516   8.087   3.950   3.351
 3187TIP3   OH2 9517   5.252   2.114  -0.012
 3187TIP3    H1 9518   5.248   2.085   0.079
 3187TIP3    H2 9519   5.346   2.118  -0.032
 3188TIP3   OH2 9520   6.932   4.548   2.948
 3188TIP3    H1 9521   6.859   4.495   2.980
 3188TIP3    H2 9522   6.973   4.495   2.880
 3189TIP3   OH2 9523   7.183   0.404   1.747
 3189TIP3    H1 9524   7.255   0.436   1.693
 3189TIP3    H2 9525   7.176   0.312   1.725
 3190TIP3   OH2 9526   4.899   1.309   5.344
 3190TIP3    H1 9527   4.837   1.239   5.364
 3190TIP3    H2 9528   4.859   1.388   5.382
 3191TIP3   OH2 9529   2.333   5.434   6.022
 3191TIP3    H1 9530   2.350   5.508   6.080
 3191TIP3    H2 9531   2.260   5.388   6.064
 3192TIP3   OH2 9532   7.329   3.953   2.513
 3192TIP3    H1 9533   7.342   4.020   2.446
 3192TIP3    H2 9534   7.397   3.888   2.497
 3193TIP3   OH2 9535   1.544   4.997   6.769
 3193TIP3    H1 9536   1.510   4.947   6.695
 3193TIP3    H2 9537   1.603   4.937   6.814
 3194TIP3   OH2 9538   4.225   5.738   1.013
 3194TIP3    H1 9539   4.206   5.826   1.045
 3194TIP3    H2 9540   4.319   5.736   0.998
 3195TIP3   OH2 9541   7.657   5.741   4.010
 3195TIP3    H1 9542   7.741   5.704   3.981
 3195TIP3    H2 9543   7.615   5.769   3.929
 3196TIP3   OH2 9544   3.521   7.359   4.697
 3196TIP3    H1 9545   3.500   7.349   4.605
 3196TIP3    H2 9546   3.548   7.451   4.706
 3197TIP3   OH2 9547   0.327   2.687   2.775
 3197TIP3    H1 9548   0.272   2.742   2.830
 3197TIP3    H2 9549   0.311   2.598   2.806
 3198TIP3   OH2 9550   3.108   2.442   6.009
 3198TIP3    H1 9551   3.079   2.481   6.091
 3198TIP3    H2 9552   3.201   2.463   6.004
 3199TIP3   OH2 9553   7.001   4.090   0.329
 3199TIP3    H1 9554   6.929   4.095   0.393
 3199TIP3    H2 9555   7.016   3.997   0.317
 3200TIP3   OH2 9556   7.615   0.265   2.180
 3200TIP3    H1 9557   7.659   0.329   2.124
 3200TIP3    H2 9558   7.600   0.311   2.262
 3201TIP3   OH2 9559   3.435   6.774   4.881
 3201TIP3    H1 9560   3.435   6.690   4.835
 3201TIP3    H2 9561   3.343   6.795   4.893
 3202TIP3   OH2 9562   5.553   1.356   3.069
 3202TIP3    H1 9563   5.575   1.443   3.103
 3202TIP3    H2 9564   5.619   1.340   3.001
 3203TIP3   OH2 9565   1.699   7.751   5.828
 3203TIP3    H1 9566   1.677   7.661   5.852
 3203TIP3    H2 9567   1.618   7.801   5.843
 3204TIP3   OH2 9568   0.465   2.503   0.893
 3204TIP3    H1 9569   0.394   2.458   0.847
 3204TIP3    H2 9570   0.541   2.445   0.883
 3205TIP3   OH2 9571   3.979   0.932   1.339
 3205TIP3    H1 9572   3.898   0.902   1.382
 3205TIP3    H2 9573   4.023   0.985   1.405
 3206TIP3   OH2 9574   5.444   2.381   1.174
 3206TIP3    H1 9575   5.490   2.388   1.258
 3206TIP3    H2 9576   5.352   2.400   1.196
 3207TIP3   OH2 9577   6.627   1.472   0.267
 3207TIP3    H1 9578   6.709   1.499   0.224
 3207TIP3    H2 9579   6.562   1.477   0.197
 3208TIP3   OH2 9580   6.379   5.652   0.528
 3208TIP3    H1 9581   6.285   5.666   0.541
 3208TIP3    H2 9582   6.417   5.662   0.615
 3209TIP3   OH2 9583   4.966   2.909   1.003
 3209TIP3    H1 9584   5.051   2.924   0.961
 3209TIP3    H2 9585   4.986   2.855   1.079
 3210TIP3   OH2 9586   2.693   0.113   2.264
 3210TIP3    H1 9587   2.635   0.149   2.197
 3210TIP3    H2 9588   2.666   0.157   2.345
 3211TIP3   OH2 9589   5.741   1.737   2.188
 3211TIP3    H1 9590   5.813   1.731   2.252
 3211TIP3    H2 9591   5.686   1.808   2.219
 3212TIP3   OH2 9592   3.900   5.403   1.151
 3212TIP3    H1 9593   3.903   5.435   1.061
 3212TIP3    H2 9594   3.906   5.308   1.143
 3213TIP3   OH2 9595   7.904   5.362   4.882
 3213TIP3    H1 9596   7.868   5.300   4.944
 3213TIP3    H2 9597   7.905   5.315   4.798
 3214TIP3   OH2 9598   7.958   0.383   3.748
 3214TIP3    H1 9599   7.991   0.465   3.710
 3214TIP3    H2 9600   7.906   0.343   3.679
 3215TIP3   OH2 9601   3.036   6.714   6.275
 3215TIP3    H1 9602   3.062   6.806   6.274
 3215TIP3    H2 9603   3.028   6.691   6.182
 3216TIP3   OH2 9604   4.933   1.122   3.576
 3216TIP3    H1 9605   4.838   1.124   3.578
 3216TIP3    H2 9606   4.956   1.141   3.485
 3217TIP3   OH2 9607   6.855   6.527   4.245
 3217TIP3    H1 9608   6.947   6.550   4.257
 3217TIP3    H2 9609   6.856   6.433   4.226
 3218TIP3   OH2 9610   0.400   0.198   1.708
 3218TIP3    H1 9611   0.410   0.177   1.615
 3218TIP3    H2 9612   0.423   0.117   1.754
 3219TIP3   OH2 9613   5.758   2.989   0.827
 3219TIP3    H1 9614   5.783   2.922   0.891
 3219TIP3    H2 9615   5.838   3.005   0.777
 3220TIP3   OH2 9616   8.081   7.283   0.665
 3220TIP3    H1 9617   8.053   7.373   0.678
 3220TIP3    H2 9618   8.176   7.284   0.679
 3221TIP3   OH2 9619   3.296   0.538   2.720
 3221TIP3    H1 9620   3.319   0.620   2.678
 3221TIP3    H2 9621   3.215   0.556   2.766
 3222TIP3   OH2 9622   3.783   4.392   1.466
 3222TIP3    H1 9623   3.866   4.422   1.430
 3222TIP3    H2 9624   3.751   4.329   1.402
 3223TIP3   OH2 9625   7.306   0.403   6.009
 3223TIP3    H1 9626   7.317   0.445   5.924
 3223TIP3    H2 9627   7.310   0.475   6.073
 3224TIP3   OH2 9628   1.572   3.556   6.795
 3224TIP3    H1 9629   1.666   3.560   6.779
 3224TIP3    H2 9630   1.536   3.625   6.739
 3225TIP3   OH2 9631   2.457   4.117   0.777
 3225TIP3    H1 9632   2.473   4.137   0.685
 3225TIP3    H2 9633   2.428   4.026   0.778
 3226TIP3   OH2 9634   3.839   2.982   4.338
 3226TIP3    H1 9635   3.902   2.911   4.348
 3226TIP3    H2 9636   3.756   2.939   4.322
 3227TIP3   OH2 9637   2.432   1.268   0.488
 3227TIP3    H1 9638   2.441   1.288   0.581
 3227TIP3    H2 9639   2.405   1.350   0.448
 3228TIP3   OH2 9640   1.295   0.463   0.194
 3228TIP3    H1 9641   1.335   0.549   0.189
 3228TIP3    H2 9642   1.360   0.404   0.156
 3229TIP3   OH2 9643   7.692   2.038   5.680
 3229TIP3    H1 9644   7.747   1.995   5.615
 3229TIP3    H2 9645   7.743   2.114   5.707
 3230TIP3   OH2 9646   2.887   0.281   2.595
 3230TIP3    H1 9647   2.855   0.294   2.506
 3230TIP3    H2 9648   2.885   0.368   2.635
 3231TIP3   OH2 9649   7.710   3.161   4.634
 3231TIP3    H1 9650   7.694   3.200   4.548
 3231TIP3    H2 9651   7.716   3.235   4.694
 3232TIP3   OH2 9652   4.512   3.956   1.974
 3232TIP3    H1 9653   4.496   4.050   1.966
 3232TIP3    H2 9654   4.577   3.949   2.044
 3233TIP3   OH2 9655   7.813   6.140   0.207
 3233TIP3    H1 9656   7.731   6.179   0.238
 3233TIP3    H2 9657   7.874   6.214   0.200
 3234TIP3   OH2 9658   0.656   5.539   4.123
 3234TIP3    H1 9659   0.602   5.573   4.051
 3234TIP3    H2 9660   0.704   5.615   4.154
 3235TIP3   OH2 9661   2.410   1.581   4.913
 3235TIP3    H1 9662   2.365   1.500   4.890
 3235TIP3    H2 9663   2.382   1.600   5.002
 3236TIP3   OH2 9664   6.674   4.281   1.322
 3236TIP3    H1 9665   6.719   4.202   1.351
 3236TIP3    H2 9666   6.614   4.302   1.393
 3237TIP3   OH2 9667   6.984   0.123   5.661
 3237TIP3    H1 9668   7.044   0.190   5.627
 3237TIP3    H2 9669   6.991   0.051   5.599
 3238TIP3   OH2 9670   2.624   1.683   1.249
 3238TIP3    H1 9671   2.603   1.609   1.193
 3238TIP3    H2 9672   2.669   1.645   1.324
 3239TIP3   OH2 9673   1.377   3.814   3.763
 3239TIP3    H1 9674   1.425   3.791   3.683
 3239TIP3    H2 9675   1.416   3.897   3.791
 3240TIP3   OH2 9676   3.183   6.877   2.641
 3240TIP3    H1 9677   3.255   6.889   2.580
 3240TIP3    H2 9678   3.223   6.839   2.719
 3241TIP3   OH2 9679   2.688   0.056   4.953
 3241TIP3    H1 9680   2.715   0.007   4.875
 3241TIP3    H2 9681   2.750   0.029   5.021
 3242TIP3   OH2 9682   5.077   3.443   1.795
 3242TIP3    H1 9683   5.041   3.363   1.757
 3242TIP3    H2 9684   5.025   3.458   1.874
 3243TIP3   OH2 9685   2.819   5.356   5.289
 3243TIP3    H1 9686   2.803   5.440   5.246
 3243TIP3    H2 9687   2.733   5.314   5.295
 3244TIP3   OH2 9688   7.695   1.252   5.143
 3244TIP3    H1 9689   7.758   1.194   5.100
 3244TIP3    H2 9690   7.745   1.295   5.212
 3245TIP3   OH2 9691   1.260   1.274   4.937
 3245TIP3    H1 9692   1.230   1.363   4.956
 3245TIP3    H2 9693   1.220   1.219   5.004
 3246TIP3   OH2 9694   2.305   0.358   5.602
 3246TIP3    H1 9695   2.386   0.408   5.588
 3246TIP3    H2 9696   2.240   0.424   5.626
 3247TIP3   OH2 9697   7.981   4.621   5.233
 3247TIP3    H1 9698   8.017   4.691   5.179
 3247TIP3    H2 9699   8.042   4.613   5.306
 3248TIP3   OH2 9700   4.685   3.205   6.690
 3248TIP3    H1 9701   4.748   3.229   6.759
 3248TIP3    H2 9702   4.718   3.248   6.611
 3249TIP3   OH2 9703   3.907   6.859   4.978
 3249TIP3    H1 9704   3.955   6.908   4.911
 3249TIP3    H2 9705   3.825   6.907   4.987
 3250TIP3   OH2 9706   7.524   1.499   0.765
 3250TIP3    H1 9707   7.607   1.541   0.742
 3250TIP3    H2 9708   7.548   1.408   0.783
 3251TIP3   OH2 9709   6.277   3.565   2.478
 3251TIP3    H1 9710   6.183   3.551   2.464
 3251TIP3    H2 9711   6.305   3.491   2.531
 3252TIP3   OH2 9712   7.092   0.138   1.616
 3252TIP3    H1 9713   7.069   0.088   1.694
 3252TIP3    H2 9714   7.010   0.145   1.567
 3253TIP3   OH2 9715   7.715   6.612   3.183
 3253TIP3    H1 9716   7.712   6.598   3.278
 3253TIP3    H2 9717   7.738   6.526   3.147
 3254TIP3   OH2 9718   0.703   7.161   1.730
 3254TIP3    H1 9719   0.658   7.098   1.787
 3254TIP3    H2 9720   0.723   7.234   1.788
 3255TIP3   OH2 9721   8.034   4.252   6.489
 3255TIP3    H1 9722   8.093   4.180   6.472
 3255TIP3    H2 9723   7.966   4.244   6.422
 3256TIP3   OH2 9724   6.722   1.414   5.623
 3256TIP3    H1 9725   6.666   1.399   5.700
 3256TIP3    H2 9726   6.750   1.326   5.597
 3257TIP3   OH2 9727   6.146   3.690   5.304
 3257TIP3    H1 9728   6.215   3.702   5.239
 3257TIP3    H2 9729   6.096   3.771   5.302
 3258TIP3   OH2 9730   6.995   0.875   5.589
 3258TIP3    H1 9731   6.946   0.916   5.517
 3258TIP3    H2 9732   6.974   0.782   5.582
 3259TIP3   OH2 9733   6.515   4.620   1.316
 3259TIP3    H1 9734   6.473   4.699   1.349
 3259TIP3    H2 9735   6.582   4.600   1.382
 3260TIP3   OH2 9736   1.009   0.982   4.834
 3260TIP3    H1 9737   0.934   0.994   4.893
 3260TIP3    H2 9738   1.083   0.963   4.892
 3261TIP3   OH2 9739   8.100   1.990   3.888
 3261TIP3    H1 9740   8.181   2.038   3.875
 3261TIP3    H2 9741   8.084   1.996   3.982
 3262TIP3   OH2 9742   6.262   0.383  -0.023
 3262TIP3    H1 9743   6.286   0.327   0.051
 3262TIP3    H2 9744   6.287   0.471   0.004
 3263TIP3   OH2 9745   4.435   4.824   4.721
 3263TIP3    H1 9746   4.384   4.863   4.649
 3263TIP3    H2 9747   4.521   4.808   4.683
 3264TIP3   OH2 9748   4.140   6.481   4.172
 3264TIP3    H1 9749   4.207   6.541   4.204
 3264TIP3    H2 9750   4.131   6.416   4.242
 3265TIP3   OH2 9751   8.144   2.668   1.674
 3265TIP3    H1 9752   8.234   2.691   1.652
 3265TIP3    H2 9753   8.148   2.576   1.700
 3266TIP3   OH2 9754   6.700   2.202   4.469
 3266TIP3    H1 9755   6.738   2.268   4.528
 3266TIP3    H2 9756   6.773   2.176   4.412
 3267TIP3   OH2 9757   1.223   7.409   4.055
 3267TIP3    H1 9758   1.156   7.411   4.123
 3267TIP3    H2 9759   1.193   7.472   3.989
 3268TIP3   OH2 9760   7.325   6.159   5.415
 3268TIP3    H1 9761   7.350   6.106   5.490
 3268TIP3    H2 9762   7.406   6.200   5.387
 3269TIP3   OH2 9763   7.777   2.007   3.742
 3269TIP3    H1 9764   7.742   2.018   3.831
 3269TIP3    H2 9765   7.870   2.028   3.751
 3270TIP3   OH2 9766   2.679   1.793   1.907
 3270TIP3    H1 9767   2.696   1.729   1.977
 3270TIP3    H2 9768   2.628   1.862   1.950
 3271TIP3   OH2 9769   0.695   2.133   1.576
 3271TIP3    H1 9770   0.736   2.208   1.619
 3271TIP3    H2 9771   0.767   2.072   1.560
 3272TIP3   OH2 9772   5.466   1.463   0.816
 3272TIP3    H1 9773   5.476   1.385   0.762
 3272TIP3    H2 9774   5.434   1.430   0.900
 3273TIP3   OH2 9775   1.771   0.883   1.341
 3273TIP3    H1 9776   1.749   0.863   1.432
 3273TIP3    H2 9777   1.764   0.979   1.336
 3274TIP3   OH2 9778   6.024   4.170   5.109
 3274TIP3    H1 9779   6.115   4.199   5.113
 3274TIP3    H2 9780   5.973   4.250   5.125
 3275TIP3   OH2 9781   2.616   1.502   2.927
 3275TIP3    H1 9782   2.524   1.488   2.903
 3275TIP3    H2 9783   2.619   1.489   3.022
 3276TIP3   OH2 9784   1.801   6.033   0.601
 3276TIP3    H1 9785   1.825   5.999   0.515
 3276TIP3    H2 9786   1.707   6.017   0.608
 3277TIP3   OH2 9787   7.718   1.674   5.140
 3277TIP3    H1 9788   7.648   1.616   5.109
 3277TIP3    H2 9789   7.781   1.615   5.182
 3278TIP3   OH2 9790   4.937   6.971   1.014
 3278TIP3    H1 9791   5.023   6.930   1.016
 3278TIP3    H2 9792   4.954   7.064   1.033
 3279TIP3   OH2 9793   7.785   2.362   4.464
 3279TIP3    H1 9794   7.725   2.295   4.433
 3279TIP3    H2 9795   7.868   2.343   4.420
 3280TIP3   OH2 9796   6.644   4.646   6.698
 3280TIP3    H1 9797   6.578   4.601   6.645
 3280TIP3    H2 9798   6.647   4.734   6.662
 3281TIP3   OH2 9799   5.827   5.410   6.687
 3281TIP3    H1 9800   5.843   5.424   6.780
 3281TIP3    H2 9801   5.913   5.420   6.646
 3282TIP3   OH2 9802   0.468   7.819   0.823
 3282TIP3    H1 9803   0.560   7.845   0.824
 3282TIP3    H2 9804   0.463   7.754   0.753
 3283TIP3   OH2 9805   3.086   2.844   5.867
 3283TIP3    H1 9806   3.067   2.847   5.961
 3283TIP3    H2 9807   3.175   2.879   5.860
 3284TIP3   OH2 9808   1.413   4.189   0.146
 3284TIP3    H1 9809   1.484   4.140   0.103
 3284TIP3    H2 9810   1.455   4.270   0.176
 3285TIP3   OH2 9811   0.492   6.115   0.185
 3285TIP3    H1 9812   0.427   6.077   0.126
 3285TIP3    H2 9813   0.546   6.041   0.211
 3286TIP3   OH2 9814   5.434   3.599   5.712
 3286TIP3    H1 9815   5.522   3.615   5.677
 3286TIP3    H2 9816   5.393   3.541   5.647
 3287TIP3   OH2 9817   7.600   4.701   5.880
 3287TIP3    H1 9818   7.638   4.788   5.880
 3287TIP3    H2 9819   7.674   4.642   5.866
 3288TIP3   OH2 9820   5.301   3.023   4.127
 3288TIP3    H1 9821   5.208   3.044   4.124
 3288TIP3    H2 9822   5.308   2.952   4.191
 3289TIP3   OH2 9823   4.489   4.709   5.021
 3289TIP3    H1 9824   4.461   4.752   4.940
 3289TIP3    H2 9825   4.417   4.724   5.082
 3290TIP3   OH2 9826   1.996   7.424   3.597
 3290TIP3    H1 9827   1.951   7.483   3.656
 3290TIP3    H2 9828   2.061   7.479   3.553
 3291TIP3   OH2 9829   5.282   2.815   6.518
 3291TIP3    H1 9830   5.366   2.793   6.559
 3291TIP3    H2 9831   5.218   2.802   6.587
 3292TIP3   OH2 9832   5.596   6.312   3.637
 3292TIP3    H1 9833   5.560   6.349   3.556
 3292TIP3    H2 9834   5.524   6.259   3.672
 3293TIP3   OH2 9835   1.640   7.721   3.771
 3293TIP3    H1 9836   1.579   7.723   3.845
 3293TIP3    H2 9837   1.688   7.803   3.776
 3294TIP3   OH2 9838   5.779   1.130   6.179
 3294TIP3    H1 9839   5.705   1.070   6.167
 3294TIP3    H2 9840   5.748   1.193   6.243
 3295TIP3   OH2 9841   6.005   1.236   4.450
 3295TIP3    H1 9842   6.050   1.157   4.479
 3295TIP3    H2 9843   6.039   1.305   4.507
 3296TIP3   OH2 9844   7.929   3.018   5.889
 3296TIP3    H1 9845   7.852   2.973   5.924
 3296TIP3    H2 9846   7.896   3.072   5.818
 3297TIP3   OH2 9847   4.121   4.689   5.528
 3297TIP3    H1 9848   4.075   4.611   5.494
 3297TIP3    H2 9849   4.051   4.751   5.548
 3298TIP3   OH2 9850   5.585   6.382   2.249
 3298TIP3    H1 9851   5.664   6.348   2.207
 3298TIP3    H2 9852   5.611   6.398   2.340
 3299TIP3   OH2 9853   6.844   2.499   2.715
 3299TIP3    H1 9854   6.886   2.467   2.795
 3299TIP3    H2 9855   6.752   2.512   2.740
 3300TIP3   OH2 9856   1.904   4.824   2.065
 3300TIP3    H1 9857   1.934   4.784   2.146
 3300TIP3    H2 9858   1.835   4.884   2.092
 3301TIP3   OH2 9859   1.511   6.375   2.963
 3301TIP3    H1 9860   1.561   6.366   2.882
 3301TIP3    H2 9861   1.456   6.452   2.949
 3302TIP3   OH2 9862   0.786   7.219   0.190
 3302TIP3    H1 9863   0.754   7.146   0.243
 3302TIP3    H2 9864   0.858   7.182   0.139
 3303TIP3   OH2 9865   6.241   2.063   2.747
 3303TIP3    H1 9866   6.211   2.139   2.698
 3303TIP3    H2 9867   6.331   2.083   2.771
 3304TIP3   OH2 9868   6.521   4.037   4.557
 3304TIP3    H1 9869   6.547   3.959   4.508
 3304TIP3    H2 9870   6.532   4.109   4.494
 3305TIP3   OH2 9871   8.191   6.362   1.997
 3305TIP3    H1 9872   8.258   6.299   2.025
 3305TIP3    H2 9873   8.119   6.307   1.967
 3306TIP3   OH2 9874   1.589   3.740   1.612
 3306TIP3    H1 9875   1.628   3.728   1.699
 3306TIP3    H2 9876   1.647   3.692   1.553
 3307TIP3   OH2 9877   2.685   3.960   3.995
 3307TIP3    H1 9878   2.705   4.029   3.932
 3307TIP3    H2 9879   2.658   3.886   3.941
 3308TIP3   OH2 9880   2.849   4.029   0.202
 3308TIP3    H1 9881   2.819   4.092   0.136
 3308TIP3    H2 9882   2.861   4.081   0.281
 3309TIP3   OH2 9883   5.235   0.167   1.235
 3309TIP3    H1 9884   5.161   0.125   1.193
 3309TIP3    H2 9885   5.305   0.164   1.170
 3310TIP3   OH2 9886   5.121   5.752   1.141
 3310TIP3    H1 9887   5.205   5.790   1.118
 3310TIP3    H2 9888   5.076   5.738   1.057
 3311TIP3   OH2 9889   2.523   5.603   5.026
 3311TIP3    H1 9890   2.475   5.531   4.985
 3311TIP3    H2 9891   2.607   5.605   4.980
 3312TIP3   OH2 9892   8.230   4.618   6.072
 3312TIP3    H1 9893   8.148   4.588   6.112
 3312TIP3    H2 9894   8.213   4.709   6.048
 3313TIP3   OH2 9895   7.800   0.474   4.220
 3313TIP3    H1 9896   7.752   0.411   4.167
 3313TIP3    H2 9897   7.874   0.500   4.165
 3314TIP3   OH2 9898   3.002   7.047   5.856
 3314TIP3    H1 9899   3.070   6.995   5.899
 3314TIP3    H2 9900   2.969   7.104   5.925
 3315TIP3   OH2 9901   4.356   5.974   3.351
 3315TIP3    H1 9902   4.334   6.026   3.274
 3315TIP3    H2 9903   4.351   6.036   3.424
 3316TIP3   OH2 9904   5.963   0.837   3.789
 3316TIP3    H1 9905   5.995   0.819   3.877
 3316TIP3    H2 9906   6.022   0.789   3.731
 3317TIP3   OH2 9907   0.372   6.455   3.211
 3317TIP3    H1 9908   0.417   6.471   3.129
 3317TIP3    H2 9909   0.331   6.369   3.199
 3318TIP3   OH2 9910   3.803   5.010   3.544
 3318TIP3    H1 9911   3.708   5.018   3.547
 3318TIP3    H2 9912   3.829   5.069   3.473
 3319TIP3   OH2 9913   3.447   7.396   5.854
 3319TIP3    H1 9914   3.540   7.374   5.855
 3319TIP3    H2 9915   3.444   7.487   5.885
 3320TIP3   OH2 9916   6.896   5.665   5.935
 3320TIP3    H1 9917   6.833   5.644   6.004
 3320TIP3    H2 9918   6.932   5.750   5.961
 3321TIP3   OH2 9919   2.046   3.816   5.524
 3321TIP3    H1 9920   1.986   3.891   5.526
 3321TIP3    H2 9921   2.122   3.848   5.475
 3322TIP3   OH2 9922   6.294   5.308   0.301
 3322TIP3    H1 9923   6.216   5.326   0.352
 3322TIP3    H2 9924   6.310   5.389   0.252
 3323TIP3   OH2 9925   1.041   2.447   5.324
 3323TIP3    H1 9926   1.017   2.373   5.380
 3323TIP3    H2 9927   1.098   2.501   5.379
 3324TIP3   OH2 9928   3.368   3.915   3.280
 3324TIP3    H1 9929   3.442   3.855   3.266
 3324TIP3    H2 9930   3.308   3.895   3.209
 3325TIP3   OH2 9931   1.754   2.390   5.388
 3325TIP3    H1 9932   1.731   2.365   5.299
 3325TIP3    H2 9933   1.847   2.372   5.395
 3326TIP3   OH2 9934   1.236   3.690   0.699
 3326TIP3    H1 9935   1.200   3.687   0.787
 3326TIP3    H2 9936   1.185   3.626   0.650
 3327TIP3   OH2 9937   5.365   4.846   4.171
 3327TIP3    H1 9938   5.457   4.847   4.145
 3327TIP3    H2 9939   5.350   4.756   4.201
 3328TIP3   OH2 9940   0.617   0.253   5.882
 3328TIP3    H1 9941   0.661   0.250   5.967
 3328TIP3    H2 9942   0.585   0.164   5.869
 3329TIP3   OH2 9943   6.140   7.395   1.101
 3329TIP3    H1 9944   6.087   7.318   1.123
 3329TIP3    H2 9945   6.204   7.400   1.172
 3330TIP3   OH2 9946   1.950   5.006   4.269
 3330TIP3    H1 9947   1.951   5.077   4.333
 3330TIP3    H2 9948   1.934   5.049   4.185
 3331TIP3   OH2 9949   1.732   3.439   4.496
 3331TIP3    H1 9950   1.781   3.520   4.506
 3331TIP3    H2 9951   1.729   3.401   4.584
 3332TIP3   OH2 9952   8.176   3.641   4.207
 3332TIP3    H1 9953   8.158   3.575   4.140
 3332TIP3    H2 9954   8.199   3.590   4.285
 3333TIP3   OH2 9955   6.721   4.267   6.195
 3333TIP3    H1 9956   6.661   4.268   6.121
 3333TIP3    H2 9957   6.808   4.269   6.156
 3334TIP3   OH2 9958   4.316   2.752   0.394
 3334TIP3    H1 9959   4.330   2.824   0.455
 3334TIP3    H2 9960   4.388   2.759   0.331
 3335TIP3   OH2 9961   2.374   4.998   2.409
 3335TIP3    H1 9962   2.384   5.060   2.337
 3335TIP3    H2 9963   2.439   4.930   2.391
 3336TIP3   OH2 9964   0.328   1.342   4.495
 3336TIP3    H1 9965   0.381   1.262   4.496
 3336TIP3    H2 9966   0.238   1.311   4.509
 3337TIP3   OH2 9967   4.183   2.806   3.818
 3337TIP3    H1 9968   4.211   2.836   3.905
 3337TIP3    H2 9969   4.099   2.763   3.834
 3338TIP3   OH2 9970   5.914   5.141   1.796
 3338TIP3    H1 9971   5.893   5.207   1.730
 3338TIP3    H2 9972   5.845   5.149   1.861
 3339TIP3   OH2 9973   6.740   3.587   6.306
 3339TIP3    H1 9974   6.815   3.549   6.260
 3339TIP3    H2 9975   6.738   3.679   6.278
 3340TIP3   OH2 9976   3.145   4.518   4.957
 3340TIP3    H1 9977   3.102   4.604   4.964
 3340TIP3    H2 9978   3.075   4.460   4.927
 3341TIP3   OH2 9979   6.633   1.589   5.032
 3341TIP3    H1 9980   6.683   1.559   4.956
 3341TIP3    H2 9981   6.631   1.513   5.090
 3342TIP3   OH2 9982   2.051   3.339   3.086
 3342TIP3    H1 9983   1.968   3.385   3.076
 3342TIP3    H2 9984   2.030   3.248   3.067
 3343TIP3   OH2 9985   6.591   5.497   1.530
 3343TIP3    H1 9986   6.597   5.592   1.515
 3343TIP3    H2 9987   6.631   5.484   1.616
 3344TIP3   OH2 9988   3.878   4.823   2.430
 3344TIP3    H1 9989   3.818   4.876   2.481
 3344TIP3    H2 9990   3.834   4.739   2.420
 3345TIP3   OH2 9991   6.953   0.874   2.083
 3345TIP3    H1 9992   7.016   0.845   2.017
 3345TIP3    H2 9993   6.904   0.795   2.106
 3346TIP3   OH2 9994   1.218   6.912   5.155
 3346TIP3    H1 9995   1.190   6.967   5.082
 3346TIP3    H2 9996   1.252   6.833   5.114
 3347TIP3   OH2 9997   2.132   5.296   4.165
 3347TIP3    H1 9998   2.100   5.325   4.250
 3347TIP3    H2 9999   2.223   5.270   4.181
 3348TIP3   OH210000   7.359   1.328   1.071
 3348TIP3    H110001   7.293   1.273   1.113
 3348TIP3    H210002   7.436   1.320   1.128
 3349TIP3   OH210003   1.438   2.901   6.236
 3349TIP3    H110004   1.386   2.954   6.296
 3349TIP3    H210005   1.392   2.907   6.152
 3350TIP3   OH210006   0.626   3.312   1.694
 3350TIP3    H110007   0.569   3.269   1.630
 3350TIP3    H210008   0.672   3.240   1.738
 3351TIP3   OH210009   3.968   0.981   4.098
 3351TIP3    H110010   3.909   1.045   4.059
 3351TIP3    H210011   3.927   0.896   4.080
 3352TIP3   OH210012   3.107   5.234   2.022
 3352TIP3    H110013   3.123   5.328   2.019
 3352TIP3    H210014   3.065   5.214   1.938
 3353TIP3   OH210015   0.839   6.090   2.308
 3353TIP3    H110016   0.926   6.128   2.301
 3353TIP3    H210017   0.849   6.017   2.369
 3354TIP3   OH210018   5.318   6.093   2.002
 3354TIP3    H110019   5.404   6.054   1.984
 3354TIP3    H210020   5.283   6.113   1.915
 3355TIP3   OH210021   5.834   0.655   4.876
 3355TIP3    H110022   5.760   0.711   4.853
 3355TIP3    H210023   5.803   0.566   4.858
 3356TIP3   OH210024   6.568   2.165   1.623
 3356TIP3    H110025   6.499   2.231   1.628
 3356TIP3    H210026   6.604   2.163   1.712
 3357TIP3   OH210027   3.979   5.819   6.615
 3357TIP3    H110028   4.040   5.857   6.553
 3357TIP3    H210029   4.032   5.758   6.666
 3358TIP3   OH210030   6.651   2.989   1.943
 3358TIP3    H110031   6.716   3.008   2.010
 3358TIP3    H210032   6.690   2.918   1.891
 3359TIP3   OH210033   8.231   5.247   5.777
 3359TIP3    H110034   8.266   5.305   5.845
 3359TIP3    H210035   8.139   5.236   5.801
 3360TIP3   OH210036   1.880   2.473   0.637
 3360TIP3    H110037   1.793   2.433   0.642
 3360TIP3    H210038   1.906   2.463   0.546
 3361TIP3   OH210039   5.657   7.505   2.818
 3361TIP3    H110040   5.668   7.517   2.723
 3361TIP3    H210041   5.692   7.585   2.856
 3362TIP3   OH210042   5.411   0.626   0.847
 3362TIP3    H110043   5.328   0.603   0.805
 3362TIP3    H210044   5.396   0.611   0.940
 3363TIP3   OH210045   7.843   3.842   2.092
 3363TIP3    H110046   7.888   3.759   2.104
 3363TIP3    H210047   7.827   3.873   2.181
 3364TIP3   OH210048   1.950   3.075   3.163
 3364TIP3    H110049   1.996   3.001   3.203
 3364TIP3    H210050   1.887   3.102   3.230
 3365TIP3   OH210051   1.718   7.398   4.066
 3365TIP3    H110052   1.805   7.387   4.106
 3365TIP3    H210053   1.659   7.351   4.124
 3366TIP3   OH210054   0.768   2.239   6.059
 3366TIP3    H110055   0.744   2.332   6.066
 3366TIP3    H210056   0.718   2.207   5.984
 3367TIP3   OH210057   0.180   3.681   5.873
 3367TIP3    H110058   0.084   3.675   5.880
 3367TIP3    H210059   0.196   3.768   5.837
 3368TIP3   OH210060   0.762   1.974   6.106
 3368TIP3    H110061   0.766   2.067   6.128
 3368TIP3    H210062   0.791   1.930   6.185
 3369TIP3   OH210063   7.880   4.778   2.169
 3369TIP3    H110064   7.957   4.722   2.179
 3369TIP3    H210065   7.821   4.728   2.113
 3370TIP3   OH210066   1.918   0.057   3.999
 3370TIP3    H110067   2.007   0.088   4.015
 3370TIP3    H210068   1.927  -0.004   3.925
 3371TIP3   OH210069   1.310   4.139   5.017
 3371TIP3    H110070   1.313   4.235   5.015
 3371TIP3    H210071   1.287   4.115   4.927
 3372TIP3   OH210072   5.677   4.684   5.042
 3372TIP3    H110073   5.629   4.739   4.981
 3372TIP3    H210074   5.749   4.648   4.990
 3373TIP3   OH210075   5.122   0.410   0.305
 3373TIP3    H110076   5.057   0.479   0.291
 3373TIP3    H210077   5.079   0.330   0.273
 3374TIP3   OH210078   7.860   1.712   4.342
 3374TIP3    H110079   7.772   1.694   4.377
 3374TIP3    H210080   7.909   1.632   4.359
 3375TIP3   OH210081   5.151   0.918   5.023
 3375TIP3    H110082   5.212   0.931   4.950
 3375TIP3    H210083   5.065   0.934   4.985
 3376TIP3   OH210084   1.908   1.021   3.809
 3376TIP3    H110085   1.948   0.998   3.725
 3376TIP3    H210086   1.865   1.105   3.793
 3377TIP3   OH210087   6.433   4.041   4.026
 3377TIP3    H110088   6.424   4.131   3.995
 3377TIP3    H210089   6.429   3.988   3.946
 3378TIP3   OH210090   4.365   2.881   3.214
 3378TIP3    H110091   4.326   2.864   3.299
 3378TIP3    H210092   4.450   2.919   3.233
 3379TIP3   OH210093   4.236   1.617   2.595
 3379TIP3    H110094   4.272   1.681   2.534
 3379TIP3    H210095   4.142   1.617   2.576
 3380TIP3   OH210096   3.666   0.909   0.581
 3380TIP3    H110097   3.671   0.816   0.604
 3380TIP3    H210098   3.575   0.933   0.598
 3381TIP3   OH210099   2.390   7.307   4.368
 3381TIP3    H110100   2.336   7.308   4.447
 3381TIP3    H210101   2.380   7.395   4.331
 3382TIP3   OH210102   6.157   2.687   1.397
 3382TIP3    H110103   6.090   2.716   1.459
 3382TIP3    H210104   6.232   2.665   1.452
 3383TIP3   OH210105   5.499   0.462   1.193
 3383TIP3    H110106   5.520   0.434   1.282
 3383TIP3    H210107   5.549   0.542   1.181
 3384TIP3   OH210108   1.255   1.223   0.527
 3384TIP3    H110109   1.205   1.195   0.603
 3384TIP3    H210110   1.214   1.305   0.499
 3385TIP3   OH210111   4.489   4.322   0.000
 3385TIP3    H110112   4.566   4.290  -0.047
 3385TIP3    H210113   4.524   4.392   0.056
 3386TIP3   OH210114   5.667   2.901   5.415
 3386TIP3    H110115   5.646   2.823   5.363
 3386TIP3    H210116   5.607   2.968   5.384
 3387TIP3   OH210117   5.405   0.528   4.052
 3387TIP3    H110118   5.405   0.611   4.004
 3387TIP3    H210119   5.497   0.514   4.076
 3388TIP3   OH210120   3.885   2.409   1.392
 3388TIP3    H110121   3.954   2.374   1.449
 3388TIP3    H210122   3.813   2.346   1.398
 3389TIP3   OH210123   2.090   3.684   4.326
 3389TIP3    H110124   2.082   3.647   4.414
 3389TIP3    H210125   2.077   3.610   4.267
 3390TIP3   OH210126   2.738   2.609   1.346
 3390TIP3    H110127   2.653   2.594   1.386
 3390TIP3    H210128   2.783   2.525   1.354
 3391TIP3   OH210129   5.072   5.256   2.874
 3391TIP3    H110130   5.029   5.240   2.790
 3391TIP3    H210131   5.008   5.227   2.939
 3392TIP3   OH210132   5.573   1.321   0.001
 3392TIP3    H110133   5.516   1.364   0.065
 3392TIP3    H210134   5.659   1.319   0.044
 3393TIP3   OH210135   1.127   6.561   5.986
 3393TIP3    H110136   1.184   6.588   6.058
 3393TIP3    H210137   1.106   6.470   6.005
 3394TIP3   OH210138   4.280   2.683   2.270
 3394TIP3    H110139   4.316   2.639   2.347
 3394TIP3    H210140   4.193   2.711   2.297
 3395TIP3   OH210141   3.262   6.170   1.668
 3395TIP3    H110142   3.192   6.128   1.719
 3395TIP3    H210143   3.262   6.261   1.698
 3396TIP3   OH210144   3.746   2.099   5.484
 3396TIP3    H110145   3.692   2.177   5.478
 3396TIP3    H210146   3.835   2.130   5.466
 3397TIP3   OH210147   3.029   6.587   2.012
 3397TIP3    H110148   3.084   6.639   2.071
 3397TIP3    H210149   2.942   6.590   2.052
 3398TIP3   OH210150   5.886   2.907   3.890
 3398TIP3    H110151   5.928   2.890   3.806
 3398TIP3    H210152   5.850   2.995   3.882
 3399TIP3   OH210153   3.703   2.270   6.604
 3399TIP3    H110154   3.654   2.196   6.640
 3399TIP3    H210155   3.699   2.337   6.673
 3400TIP3   OH210156   1.098   0.439   1.853
 3400TIP3    H110157   1.121   0.377   1.923
 3400TIP3    H210158   1.042   0.503   1.896
 3401TIP3   OH210159   3.988   2.958   1.491
 3401TIP3    H110160   4.051   3.029   1.479
 3401TIP3    H210161   3.980   2.949   1.586
 3402TIP3   OH210162   8.037   2.723   4.405
 3402TIP3    H110163   8.009   2.678   4.325
 3402TIP3    H210164   7.968   2.787   4.422
 3403TIP3   OH210165   5.617   6.654   3.448
 3403TIP3    H110166   5.542   6.594   3.453
 3403TIP3    H210167   5.608   6.710   3.524
 3404TIP3   OH210168   7.739   1.163   3.841
 3404TIP3    H110169   7.820   1.113   3.835
 3404TIP3    H210170   7.750   1.235   3.779
 3405TIP3   OH210171   3.483   7.786   0.181
 3405TIP3    H110172   3.566   7.824   0.210
 3405TIP3    H210173   3.437   7.859   0.138
 3406TIP3   OH210174   6.647   3.370   0.671
 3406TIP3    H110175   6.589   3.321   0.728
 3406TIP3    H210176   6.721   3.311   0.656
 3407TIP3   OH210177   2.227   3.430   6.418
 3407TIP3    H110178   2.220   3.506   6.476
 3407TIP3    H210179   2.160   3.444   6.351
 3408TIP3   OH210180   2.427   4.939   5.182
 3408TIP3    H110181   2.476   4.923   5.102
 3408TIP3    H210182   2.484   4.906   5.252
 3409TIP3   OH210183   4.246   7.754   4.791
 3409TIP3    H110184   4.273   7.825   4.850
 3409TIP3    H210185   4.197   7.694   4.847
 3410TIP3   OH210186   1.189   6.080   4.550
 3410TIP3    H110187   1.223   6.161   4.512
 3410TIP3    H210188   1.111   6.061   4.498
 3411TIP3   OH210189   0.307   5.976   2.177
 3411TIP3    H110190   0.398   5.965   2.206
 3411TIP3    H210191   0.256   5.926   2.240
 3412TIP3   OH210192   6.122   7.430   5.389
 3412TIP3    H110193   6.080   7.344   5.392
 3412TIP3    H210194   6.169   7.437   5.472
 3413TIP3   OH210195   0.627   4.081   1.602
 3413TIP3    H110196   0.550   4.101   1.549
 3413TIP3    H210197   0.656   4.166   1.636
 3414TIP3   OH210198   1.492   2.329   2.245
 3414TIP3    H110199   1.399   2.334   2.224
 3414TIP3    H210200   1.508   2.236   2.261
 3415TIP3   OH210201   1.194   3.138   2.322
 3415TIP3    H110202   1.167   3.066   2.265
 3415TIP3    H210203   1.118   3.154   2.379
 3416TIP3   OH210204   2.705   3.019   0.465
 3416TIP3    H110205   2.727   3.104   0.503
 3416TIP3    H210206   2.730   2.955   0.532
 3417TIP3   OH210207   6.149   0.423   4.849
 3417TIP3    H110208   6.171   0.503   4.802
 3417TIP3    H210209   6.053   0.417   4.842
 3418TIP3   OH210210   6.046   6.563   5.013
 3418TIP3    H110211   6.006   6.649   5.020
 3418TIP3    H210212   6.139   6.577   5.034
 3419TIP3   OH210213   7.407   3.764   1.440
 3419TIP3    H110214   7.396   3.845   1.391
 3419TIP3    H210215   7.404   3.790   1.532
 3420TIP3   OH210216   4.680   1.117   5.365
 3420TIP3    H110217   4.704   1.052   5.299
 3420TIP3    H210218   4.716   1.082   5.447
 3421TIP3   OH210219   4.633   1.007   1.256
 3421TIP3    H110220   4.692   0.932   1.245
 3421TIP3    H210221   4.686   1.072   1.303
 3422TIP3   OH210222   1.946   2.384   4.025
 3422TIP3    H110223   1.973   2.387   3.933
 3422TIP3    H210224   1.872   2.323   4.026
 3423TIP3   OH210225   0.954   4.901   4.679
 3423TIP3    H110226   1.042   4.867   4.662
 3423TIP3    H210227   0.909   4.829   4.722
 3424TIP3   OH210228   4.333   5.127   5.140
 3424TIP3    H110229   4.319   5.033   5.150
 3424TIP3    H210230   4.402   5.133   5.074
 3425TIP3   OH210231   6.743   6.413   1.607
 3425TIP3    H110232   6.806   6.343   1.596
 3425TIP3    H210233   6.750   6.465   1.526
 3426TIP3   OH210234   4.191   3.023   2.201
 3426TIP3    H110235   4.182   3.119   2.199
 3426TIP3    H210236   4.104   2.991   2.223
 3427TIP3   OH210237   4.492   2.462   4.213
 3427TIP3    H110238   4.531   2.477   4.299
 3427TIP3    H210239   4.527   2.377   4.185
 3428TIP3   OH210240   4.037   1.578   0.583
 3428TIP3    H110241   4.030   1.505   0.644
 3428TIP3    H210242   4.092   1.642   0.628
 3429TIP3   OH210243   1.904   7.194   3.741
 3429TIP3    H110244   1.943   7.273   3.704
 3429TIP3    H210245   1.963   7.123   3.715
 3430TIP3   OH210246   3.075   3.007   0.595
 3430TIP3    H110247   3.113   3.025   0.509
 3430TIP3    H210248   3.019   3.082   0.612
 3431TIP3   OH210249   8.018   4.692   3.061
 3431TIP3    H110250   7.931   4.720   3.087
 3431TIP3    H210251   8.022   4.599   3.086
 3432TIP3   OH210252   6.369   3.685   5.621
 3432TIP3    H110253   6.375   3.601   5.576
 3432TIP3    H210254   6.444   3.685   5.680
 3433TIP3   OH210255   5.457   3.268   1.896
 3433TIP3    H110256   5.524   3.255   1.828
 3433TIP3    H210257   5.404   3.189   1.892
 3434TIP3   OH210258   4.139   3.888   2.189
 3434TIP3    H110259   4.179   3.967   2.224
 3434TIP3    H210260   4.054   3.883   2.232
 3435TIP3   OH210261   1.297   4.073   1.107
 3435TIP3    H110262   1.291   4.044   1.198
 3435TIP3    H210263   1.254   4.003   1.057
 3436TIP3   OH210264   2.805   1.053   1.220
 3436TIP3    H110265   2.719   1.094   1.230
 3436TIP3    H210266   2.826   1.064   1.127
 3437TIP3   OH210267   4.666   6.346   2.825
 3437TIP3    H110268   4.730   6.307   2.885
 3437TIP3    H210269   4.635   6.273   2.772
 3438TIP3   OH210270   3.121   5.777   6.273
 3438TIP3    H110271   3.182   5.728   6.218
 3438TIP3    H210272   3.084   5.843   6.215
 3439TIP3   OH210273   2.819   0.788   6.421
 3439TIP3    H110274   2.848   0.710   6.375
 3439TIP3    H210275   2.827   0.767   6.514
 3440TIP3   OH210276   6.702   2.081   0.222
 3440TIP3    H110277   6.628   2.020   0.224
 3440TIP3    H210278   6.669   2.157   0.174
 3441TIP3   OH210279   1.603   1.537   2.147
 3441TIP3    H110280   1.571   1.449   2.167
 3441TIP3    H210281   1.698   1.528   2.140
 3442TIP3   OH210282   0.786   2.500   1.369
 3442TIP3    H110283   0.866   2.477   1.417
 3442TIP3    H210284   0.814   2.569   1.309
 3443TIP3   OH210285   6.873   4.462   6.382
 3443TIP3    H110286   6.877   4.538   6.324
 3443TIP3    H210287   6.853   4.389   6.323
 3444TIP3   OH210288   0.940   3.469   3.451
 3444TIP3    H110289   0.882   3.511   3.515
 3444TIP3    H210290   0.996   3.412   3.503
 3445TIP3   OH210291   5.889   1.823   4.696
 3445TIP3    H110292   5.835   1.838   4.618
 3445TIP3    H210293   5.827   1.796   4.763
 3446TIP3   OH210294   0.946   4.741   5.336
 3446TIP3    H110295   0.975   4.768   5.248
 3446TIP3    H210296   0.921   4.649   5.325
 3447TIP3   OH210297   5.222   4.435   2.492
 3447TIP3    H110298   5.167   4.359   2.474
 3447TIP3    H210299   5.312   4.401   2.492
 3448TIP3   OH210300   7.283   0.542   1.317
 3448TIP3    H110301   7.188   0.545   1.334
 3448TIP3    H210302   7.322   0.559   1.403
 3449TIP3   OH210303   5.206   6.408   2.810
 3449TIP3    H110304   5.151   6.352   2.756
 3449TIP3    H210305   5.145   6.469   2.851
 3450TIP3   OH210306   4.376   0.727   1.137
 3450TIP3    H110307   4.465   0.691   1.135
 3450TIP3    H210308   4.319   0.651   1.147
 3451TIP3   OH210309   1.173   2.246   0.777
 3451TIP3    H110310   1.261   2.273   0.802
 3451TIP3    H210311   1.147   2.183   0.844
 3452TIP3   OH210312   5.766   6.582   1.765
 3452TIP3    H110313   5.713   6.524   1.820
 3452TIP3    H210314   5.708   6.603   1.691
 3453TIP3   OH210315   7.476   2.229   2.345
 3453TIP3    H110316   7.531   2.173   2.400
 3453TIP3    H210317   7.477   2.187   2.259
 3454TIP3   OH210318   6.620   5.306   0.307
 3454TIP3    H110319   6.603   5.360   0.384
 3454TIP3    H210320   6.541   5.313   0.254
 3455TIP3   OH210321   0.506   4.208   3.499
 3455TIP3    H110322   0.576   4.144   3.485
 3455TIP3    H210323   0.483   4.200   3.592
 3456TIP3   OH210324   2.689   7.001   0.954
 3456TIP3    H110325   2.769   7.014   1.005
 3456TIP3    H210326   2.639   6.936   1.003
 3457TIP3   OH210327   4.988   1.090   6.517
 3457TIP3    H110328   4.926   1.087   6.589
 3457TIP3    H210329   4.984   1.002   6.479
 3458TIP3   OH210330   6.930   6.889   0.736
 3458TIP3    H110331   6.999   6.852   0.681
 3458TIP3    H210332   6.871   6.932   0.674
 3459TIP3   OH210333   3.931   0.040   1.394
 3459TIP3    H110334   3.891   0.106   1.450
 3459TIP3    H210335   3.872  -0.036   1.400
 3460TIP3   OH210336   5.656   0.318   5.006
 3460TIP3    H110337   5.647   0.343   4.914
 3460TIP3    H210338   5.674   0.400   5.051
 3461TIP3   OH210339   0.589   0.442   1.092
 3461TIP3    H110340   0.656   0.429   1.159
 3461TIP3    H210341   0.586   0.359   1.045
 3462TIP3   OH210342   2.371   0.116   1.415
 3462TIP3    H110343   2.412   0.129   1.330
 3462TIP3    H210344   2.305   0.048   1.400
 3463TIP3   OH210345   3.935   1.440   1.568
 3463TIP3    H110346   3.886   1.365   1.535
 3463TIP3    H210347   4.009   1.449   1.507
 3464TIP3   OH210348   3.226   3.795   4.334
 3464TIP3    H110349   3.305   3.849   4.341
 3464TIP3    H210350   3.177   3.815   4.414
 3465TIP3   OH210351   2.442   7.769   1.482
 3465TIP3    H110352   2.444   7.806   1.394
 3465TIP3    H210353   2.522   7.718   1.489
 3466TIP3   OH210354   1.765   6.675   0.276
 3466TIP3    H110355   1.798   6.743   0.217
 3466TIP3    H210356   1.817   6.598   0.254
 3467TIP3   OH210357   1.587   6.045   4.117
 3467TIP3    H110358   1.662   5.995   4.148
 3467TIP3    H210359   1.586   6.031   4.022
 3468TIP3   OH210360   6.123   6.977   4.249
 3468TIP3    H110361   6.151   7.043   4.186
 3468TIP3    H210362   6.141   7.016   4.335
 3469TIP3   OH210363   6.632   3.561   6.620
 3469TIP3    H110364   6.694   3.489   6.630
 3469TIP3    H210365   6.591   3.569   6.706
 3470TIP3   OH210366   7.876   3.889   3.480
 3470TIP3    H110367   7.917   3.855   3.401
 3470TIP3    H210368   7.942   3.946   3.520
 3471TIP3   OH210369   4.285   7.797   3.611
 3471TIP3    H110370   4.311   7.887   3.633
 3471TIP3    H210371   4.350   7.768   3.548
 3472TIP3   OH210372   7.422   4.364   0.741
 3472TIP3    H110373   7.404   4.278   0.779
 3472TIP3    H210374   7.410   4.425   0.813
 3473TIP3   OH210375   6.427   1.973   5.356
 3473TIP3    H110376   6.469   1.887   5.350
 3473TIP3    H210377   6.480   2.029   5.299
 3474TIP3   OH210378   5.047   0.891   4.426
 3474TIP3    H110379   5.042   0.983   4.403
 3474TIP3    H210380   4.956   0.864   4.439
 3475TIP3   OH210381   0.050   0.635   1.494
 3475TIP3    H110382   0.044   0.613   1.587
 3475TIP3    H210383   0.048   0.550   1.449
 3476TIP3   OH210384   5.449   4.882   6.660
 3476TIP3    H110385   5.434   4.973   6.635
 3476TIP3    H210386   5.449   4.884   6.756
 3477TIP3   OH210387   1.010   0.691   1.225
 3477TIP3    H110388   0.997   0.624   1.293
 3477TIP3    H210389   0.937   0.753   1.239
 3478TIP3   OH210390   6.963   2.887   2.482
 3478TIP3    H110391   6.949   2.880   2.388
 3478TIP3    H210392   6.875   2.876   2.520
 3479TIP3   OH210393   1.769   0.927   0.807
 3479TIP3    H110394   1.846   0.959   0.760
 3479TIP3    H210395   1.700   0.989   0.785
 3480TIP3   OH210396   3.138   1.836   4.971
 3480TIP3    H110397   3.092   1.753   4.962
 3480TIP3    H210398   3.172   1.835   5.061
 3481TIP3   OH210399   7.543   1.897   4.478
 3481TIP3    H110400   7.581   1.829   4.533
 3481TIP3    H210401   7.457   1.914   4.516
 3482TIP3   OH210402   1.243   4.984   4.212
 3482TIP3    H110403   1.247   4.901   4.163
 3482TIP3    H210404   1.326   5.027   4.193
 3483TIP3   OH210405   1.894   3.179   0.632
 3483TIP3    H110406   1.858   3.162   0.544
 3483TIP3    H210407   1.962   3.112   0.643
 3484TIP3   OH210408   5.961   4.005   5.936
 3484TIP3    H110409   5.961   4.039   6.026
 3484TIP3    H210410   5.942   3.912   5.947
 3485TIP3   OH210411   1.262   4.219   4.048
 3485TIP3    H110412   1.202   4.273   4.098
 3485TIP3    H210413   1.345   4.267   4.050
 3486TIP3   OH210414   4.175   6.816   3.052
 3486TIP3    H110415   4.161   6.877   3.124
 3486TIP3    H210416   4.089   6.776   3.037
 3487TIP3   OH210417   4.563   6.946   6.576
 3487TIP3    H110418   4.548   6.929   6.669
 3487TIP3    H210419   4.608   6.868   6.544
 3488TIP3   OH210420   8.205   0.586   4.774
 3488TIP3    H110421   8.297   0.601   4.794
 3488TIP3    H210422   8.198   0.491   4.767
 3489TIP3   OH210423   3.668   3.852   0.079
 3489TIP3    H110424   3.739   3.789   0.071
 3489TIP3    H210425   3.601   3.807   0.131
 3490TIP3   OH210426   2.874   3.395   4.371
 3490TIP3    H110427   2.907   3.471   4.322
 3490TIP3    H210428   2.798   3.366   4.320
 3491TIP3   OH210429   6.083   2.958   6.284
 3491TIP3    H110430   6.121   2.927   6.202
 3491TIP3    H210431   6.079   2.880   6.340
 3492TIP3   OH210432   5.433   5.228   6.132
 3492TIP3    H110433   5.394   5.175   6.062
 3492TIP3    H210434   5.372   5.302   6.141
 3493TIP3   OH210435   7.026   3.799   2.561
 3493TIP3    H110436   7.016   3.704   2.561
 3493TIP3    H210437   7.081   3.818   2.485
 3494TIP3   OH210438   7.191   5.572   3.620
 3494TIP3    H110439   7.176   5.529   3.704
 3494TIP3    H210440   7.233   5.505   3.566
 3495TIP3   OH210441   7.154   7.717   0.296
 3495TIP3    H110442   7.144   7.671   0.213
 3495TIP3    H210443   7.212   7.662   0.347
 3496TIP3   OH210444   1.171   1.250   3.906
 3496TIP3    H110445   1.133   1.162   3.901
 3496TIP3    H210446   1.096   1.309   3.898
 3497TIP3   OH210447   5.729   2.376   0.040
 3497TIP3    H110448   5.671   2.304   0.066
 3497TIP3    H210449   5.751   2.420   0.122
 3498TIP3   OH210450   2.358   0.927   3.409
 3498TIP3    H110451   2.427   0.877   3.366
 3498TIP3    H210452   2.344   0.882   3.493
 3499TIP3   OH210453   6.500   5.378   0.925
 3499TIP3    H110454   6.482   5.296   0.972
 3499TIP3    H210455   6.596   5.385   0.928
 3500TIP3   OH210456   1.627   7.505   5.983
 3500TIP3    H110457   1.639   7.436   6.049
 3500TIP3    H210458   1.655   7.585   6.028
 3501TIP3   OH210459   4.197   1.845   5.367
 3501TIP3    H110460   4.204   1.843   5.463
 3501TIP3    H210461   4.283   1.816   5.336
 3502TIP3   OH210462   4.593   3.073   6.300
 3502TIP3    H110463   4.603   2.988   6.256
 3502TIP3    H210464   4.673   3.083   6.351
 3503TIP3   OH210465   0.716   4.764   3.203
 3503TIP3    H110466   0.683   4.675   3.190
 3503TIP3    H210467   0.811   4.757   3.192
 3504TIP3   OH210468   1.814   4.863   5.390
 3504TIP3    H110469   1.841   4.931   5.452
 3504TIP3    H210470   1.718   4.865   5.393
 3505TIP3   OH210471   2.072   1.459   4.117
 3505TIP3    H110472   2.119   1.454   4.034
 3505TIP3    H210473   2.139   1.446   4.184
 3506TIP3   OH210474   1.397   6.643   1.158
 3506TIP3    H110475   1.449   6.662   1.236
 3506TIP3    H210476   1.361   6.556   1.173
 3507TIP3   OH210477   2.498   3.419   3.688
 3507TIP3    H110478   2.589   3.413   3.718
 3507TIP3    H210479   2.503   3.407   3.593
 3508TIP3   OH210480   1.513   1.142   4.924
 3508TIP3    H110481   1.452   1.216   4.918
 3508TIP3    H210482   1.594   1.180   4.956
 3509TIP3   OH210483   6.169   4.274   5.653
 3509TIP3    H110484   6.085   4.229   5.656
 3509TIP3    H210485   6.224   4.219   5.597
 3510TIP3   OH210486   3.273   5.967   5.776
 3510TIP3    H110487   3.227   6.031   5.830
 3510TIP3    H210488   3.292   6.014   5.695
 3511TIP3   OH210489   3.617   0.652   1.960
 3511TIP3    H110490   3.623   0.600   1.879
 3511TIP3    H210491   3.524   0.669   1.971
 3512TIP3   OH210492   7.095   6.603   6.307
 3512TIP3    H110493   7.068   6.694   6.313
 3512TIP3    H210494   7.050   6.569   6.229
 3513TIP3   OH210495   6.927   0.531   3.730
 3513TIP3    H110496   6.995   0.510   3.794
 3513TIP3    H210497   6.927   0.627   3.726
 3514TIP3   OH210498   7.304   7.725   1.340
 3514TIP3    H110499   7.369   7.699   1.404
 3514TIP3    H210500   7.342   7.801   1.296
 3515TIP3   OH210501   1.961   6.356   1.186
 3515TIP3    H110502   1.960   6.381   1.278
 3515TIP3    H210503   1.987   6.436   1.140
 3516TIP3   OH210504   0.405   4.194   5.584
 3516TIP3    H110505   0.425   4.176   5.676
 3516TIP3    H210506   0.330   4.253   5.587
 3517TIP3   OH210507   5.121   5.761   2.008
 3517TIP3    H110508   5.180   5.769   1.934
 3517TIP3    H210509   5.047   5.710   1.975
 3518TIP3   OH210510   4.490   5.570   6.362
 3518TIP3    H110511   4.484   5.640   6.297
 3518TIP3    H210512   4.500   5.490   6.311
 3519TIP3   OH210513   8.230   7.114   0.872
 3519TIP3    H110514   8.207   7.172   0.945
 3519TIP3    H210515   8.149   7.104   0.822
 3520TIP3   OH210516   4.159   1.084   3.134
 3520TIP3    H110517   4.250   1.074   3.163
 3520TIP3    H210518   4.141   1.178   3.144
 3521TIP3   OH210519   7.834   1.701   6.738
 3521TIP3    H110520   7.920   1.659   6.736
 3521TIP3    H210521   7.832   1.753   6.658
 3522TIP3   OH210522   1.032   5.323   3.432
 3522TIP3    H110523   0.948   5.368   3.424
 3522TIP3    H210524   1.042   5.308   3.526
 3523TIP3   OH210525   6.841   0.989   2.343
 3523TIP3    H110526   6.864   1.050   2.273
 3523TIP3    H210527   6.899   0.914   2.329
 3524TIP3   OH210528   1.689   0.294   4.415
 3524TIP3    H110529   1.603   0.303   4.374
 3524TIP3    H210530   1.725   0.383   4.412
 3525TIP3   OH210531   0.808   4.426   0.816
 3525TIP3    H110532   0.874   4.389   0.757
 3525TIP3    H210533   0.855   4.491   0.868
 3526TIP3   OH210534   5.780   7.705   5.517
 3526TIP3    H110535   5.752   7.794   5.541
 3526TIP3    H210536   5.783   7.658   5.601
 3527TIP3   OH210537   3.292   2.620   0.818
 3527TIP3    H110538   3.278   2.529   0.791
 3527TIP3    H210539   3.209   2.646   0.857
 3528TIP3   OH210540   6.107   2.552   0.490
 3528TIP3    H110541   6.190   2.598   0.497
 3528TIP3    H210542   6.047   2.603   0.545
 3529TIP3   OH210543   5.292   7.788   5.123
 3529TIP3    H110544   5.259   7.729   5.190
 3529TIP3    H210545   5.309   7.870   5.170
 3530TIP3   OH210546   3.300   0.563   5.387
 3530TIP3    H110547   3.384   0.542   5.347
 3530TIP3    H210548   3.235   0.545   5.319
 3531TIP3   OH210549   7.412   4.025   3.175
 3531TIP3    H110550   7.409   4.088   3.103
 3531TIP3    H210551   7.502   4.030   3.207
 3532TIP3   OH210552   2.676   6.122   5.979
 3532TIP3    H110553   2.672   6.187   6.049
 3532TIP3    H210554   2.715   6.170   5.905
 3533TIP3   OH210555   4.498   5.164   4.484
 3533TIP3    H110556   4.492   5.232   4.551
 3533TIP3    H210557   4.422   5.108   4.500
 3534TIP3   OH210558   5.839   4.657   1.644
 3534TIP3    H110559   5.864   4.646   1.736
 3534TIP3    H210560   5.916   4.630   1.595
 3535TIP3   OH210561   5.393   2.683   0.385
 3535TIP3    H110562   5.321   2.740   0.357
 3535TIP3    H210563   5.395   2.613   0.319
 3536TIP3   OH210564   2.636   5.666   0.971
 3536TIP3    H110565   2.712   5.682   0.915
 3536TIP3    H210566   2.572   5.731   0.943
 3537TIP3   OH210567   1.935   4.165   5.280
 3537TIP3    H110568   2.005   4.211   5.326
 3537TIP3    H210569   1.875   4.235   5.253
 3538TIP3   OH210570   4.686   2.044   1.682
 3538TIP3    H110571   4.760   2.036   1.621
 3538TIP3    H210572   4.654   2.133   1.668
 3539TIP3   OH210573   0.336   6.753   6.522
 3539TIP3    H110574   0.298   6.769   6.436
 3539TIP3    H210575   0.265   6.768   6.583
 3540TIP3   OH210576   6.548   2.474   4.664
 3540TIP3    H110577   6.559   2.461   4.758
 3540TIP3    H210578   6.637   2.489   4.632
 3541TIP3   OH210579   0.479   5.632   6.670
 3541TIP3    H110580   0.519   5.703   6.722
 3541TIP3    H210581   0.385   5.644   6.683
 3542TIP3   OH210582   7.726   2.568   0.813
 3542TIP3    H110583   7.678   2.636   0.860
 3542TIP3    H210584   7.745   2.501   0.879
 3543TIP3   OH210585   0.088   5.829   5.388
 3543TIP3    H110586   0.133   5.903   5.346
 3543TIP3    H210587   0.035   5.870   5.457
 3544TIP3   OH210588   6.325   0.301   1.259
 3544TIP3    H110589   6.355   0.249   1.184
 3544TIP3    H210590   6.241   0.263   1.283
 3545TIP3   OH210591   7.758   4.278   0.820
 3545TIP3    H110592   7.792   4.311   0.903
 3545TIP3    H210593   7.713   4.353   0.781
 3546TIP3   OH210594   3.153   0.682   0.132
 3546TIP3    H110595   3.199   0.632   0.198
 3546TIP3    H210596   3.106   0.750   0.181
 3547TIP3   OH210597   4.939   6.495   0.849
 3547TIP3    H110598   5.026   6.477   0.813
 3547TIP3    H210599   4.913   6.414   0.893
 3548TIP3   OH210600   4.310   7.097   1.992
 3548TIP3    H110601   4.239   7.075   2.053
 3548TIP3    H210602   4.275   7.074   1.906
 3549TIP3   OH210603   6.324   0.947   0.082
 3549TIP3    H110604   6.319   1.032   0.038
 3549TIP3    H210605   6.348   0.968   0.172
 3550TIP3   OH210606   4.543   7.621   4.040
 3550TIP3    H110607   4.586   7.706   4.044
 3550TIP3    H210608   4.484   7.628   3.965
 3551TIP3   OH210609   5.251   0.694   2.127
 3551TIP3    H110610   5.337   0.673   2.091
 3551TIP3    H210611   5.269   0.756   2.198
 3552TIP3   OH210612   7.651   1.198   2.306
 3552TIP3    H110613   7.569   1.238   2.278
 3552TIP3    H210614   7.645   1.108   2.275
 3553TIP3   OH210615   6.853   6.137   6.049
 3553TIP3    H110616   6.816   6.058   6.089
 3553TIP3    H210617   6.796   6.208   6.079
 3554TIP3   OH210618   6.880   6.892   4.443
 3554TIP3    H110619   6.901   6.979   4.408
 3554TIP3    H210620   6.830   6.849   4.373
 3555TIP3   OH210621   1.245   0.096   6.620
 3555TIP3    H110622   1.284   0.165   6.567
 3555TIP3    H210623   1.257   0.016   6.568
 3556TIP3   OH210624   7.251   6.972   4.855
 3556TIP3    H110625   7.175   6.973   4.797
 3556TIP3    H210626   7.311   6.908   4.815
 3557TIP3   OH210627   1.580   6.778   0.053
 3557TIP3    H110628   1.578   6.834  -0.024
 3557TIP3    H210629   1.635   6.704   0.027
 3558TIP3   OH210630   8.212   2.625   2.597
 3558TIP3    H110631   8.292   2.632   2.544
 3558TIP3    H210632   8.244   2.616   2.687
 3559TIP3   OH210633   7.444   7.202   6.162
 3559TIP3    H110634   7.395   7.282   6.144
 3559TIP3    H210635   7.401   7.135   6.109
 3560TIP3   OH210636   2.919   1.231   1.400
 3560TIP3    H110637   2.892   1.152   1.353
 3560TIP3    H210638   2.884   1.219   1.489
 3561TIP3   OH210639   3.523   7.525   5.341
 3561TIP3    H110640   3.508   7.611   5.378
 3561TIP3    H210641   3.541   7.469   5.417
 3562TIP3   OH210642   6.968   6.077   5.031
 3562TIP3    H110643   7.034   6.073   5.100
 3562TIP3    H210644   6.944   6.169   5.025
 3563TIP3   OH210645   4.810  -0.006   1.801
 3563TIP3    H110646   4.863   0.068   1.831
 3563TIP3    H210647   4.825  -0.010   1.706
 3564TIP3   OH210648   4.344   7.617   1.197
 3564TIP3    H110649   4.406   7.583   1.262
 3564TIP3    H210650   4.387   7.600   1.112
 3565TIP3   OH210651   3.404   2.710   3.006
 3565TIP3    H110652   3.466   2.709   2.933
 3565TIP3    H210653   3.454   2.744   3.080
 3566TIP3   OH210654   4.785   7.520   3.571
 3566TIP3    H110655   4.785   7.615   3.576
 3566TIP3    H210656   4.811   7.491   3.659
 3567TIP3   OH210657   7.114   7.067   1.984
 3567TIP3    H110658   7.126   7.159   2.007
 3567TIP3    H210659   7.046   7.069   1.916
 3568TIP3   OH210660   7.373   1.954   0.803
 3568TIP3    H110661   7.337   1.879   0.756
 3568TIP3    H210662   7.345   2.030   0.752
 3569TIP3   OH210663   6.211   1.343   1.596
 3569TIP3    H110664   6.280   1.284   1.566
 3569TIP3    H210665   6.151   1.349   1.521
 3570TIP3   OH210666   3.822   2.563   5.250
 3570TIP3    H110667   3.814   2.625   5.178
 3570TIP3    H210668   3.757   2.495   5.230
 3571TIP3   OH210669   6.221   0.685   4.771
 3571TIP3    H110670   6.192   0.746   4.840
 3571TIP3    H210671   6.316   0.696   4.768
 3572TIP3   OH210672   5.475   7.034   2.877
 3572TIP3    H110673   5.468   7.128   2.891
 3572TIP3    H210674   5.439   7.020   2.789
 3573TIP3   OH210675   6.777   3.863   1.586
 3573TIP3    H110676   6.790   3.943   1.535
 3573TIP3    H210677   6.682   3.857   1.596
 3574TIP3   OH210678   5.083   1.816   1.572
 3574TIP3    H110679   5.047   1.902   1.555
 3574TIP3    H210680   5.178   1.829   1.571
 3575TIP3   OH210681   1.402   4.416   4.994
 3575TIP3    H110682   1.404   4.449   5.084
 3575TIP3    H210683   1.358   4.484   4.944
 3576TIP3   OH210684   5.559   2.040   1.805
 3576TIP3    H110685   5.580   1.949   1.829
 3576TIP3    H210686   5.463   2.045   1.814
 3577TIP3   OH210687   2.257   1.176   1.287
 3577TIP3    H110688   2.243   1.244   1.221
 3577TIP3    H210689   2.306   1.218   1.357
 3578TIP3   OH210690   4.727   7.745   5.732
 3578TIP3    H110691   4.757   7.831   5.703
 3578TIP3    H210692   4.806   7.701   5.764
 3579TIP3   OH210693   0.779   5.181   2.507
 3579TIP3    H110694   0.815   5.122   2.573
 3579TIP3    H210695   0.760   5.125   2.432
 3580TIP3   OH210696   3.815   2.573   3.031
 3580TIP3    H110697   3.871   2.512   2.984
 3580TIP3    H210698   3.874   2.625   3.085
 3581TIP3   OH210699   8.135   1.561   3.016
 3581TIP3    H110700   8.043   1.552   3.040
 3581TIP3    H210701   8.142   1.519   2.931
 3582TIP3   OH210702   6.245   6.091   2.512
 3582TIP3    H110703   6.272   6.138   2.591
 3582TIP3    H210704   6.178   6.029   2.543
 3583TIP3   OH210705   0.094   5.771   6.196
 3583TIP3    H110706   0.124   5.790   6.107
 3583TIP3    H210707   0.118   5.849   6.246
 3584TIP3   OH210708   2.958   6.759   4.738
 3584TIP3    H110709   2.926   6.828   4.795
 3584TIP3    H210710   2.944   6.792   4.649
 3585TIP3   OH210711   3.612   7.782   5.561
 3585TIP3    H110712   3.643   7.747   5.644
 3585TIP3    H210713   3.691   7.809   5.514
 3586TIP3   OH210714   7.057   2.346   6.029
 3586TIP3    H110715   7.008   2.414   6.076
 3586TIP3    H210716   7.100   2.295   6.097
 3587TIP3   OH210717   7.329   6.137   2.343
 3587TIP3    H110718   7.418   6.109   2.324
 3587TIP3    H210719   7.317   6.216   2.290
 3588TIP3   OH210720   5.901   1.952   2.087
 3588TIP3    H110721   5.819   1.906   2.107
 3588TIP3    H210722   5.936   1.977   2.172
 3589TIP3   OH210723   1.367   1.651   2.063
 3589TIP3    H110724   1.372   1.743   2.090
 3589TIP3    H210725   1.443   1.610   2.105
 3590TIP3   OH210726   6.856   0.979   3.384
 3590TIP3    H110727   6.799   1.008   3.455
 3590TIP3    H210728   6.942   1.017   3.404
 3591TIP3   OH210729   6.180   7.204   6.338
 3591TIP3    H110730   6.202   7.249   6.419
 3591TIP3    H210731   6.207   7.265   6.269
 3592TIP3   OH210732   5.197   3.822   0.629
 3592TIP3    H110733   5.234   3.859   0.549
 3592TIP3    H210734   5.199   3.727   0.614
 3593TIP3   OH210735   2.008   3.810   4.080
 3593TIP3    H110736   2.062   3.731   4.084
 3593TIP3    H210737   1.939   3.795   4.144
 3594TIP3   OH210738   6.278   5.101   1.445
 3594TIP3    H110739   6.196   5.146   1.426
 3594TIP3    H210740   6.344   5.148   1.394
 3595TIP3   OH210741   3.889   1.556   6.305
 3595TIP3    H110742   3.794   1.560   6.316
 3595TIP3    H210743   3.922   1.522   6.388
 3596TIP3   OH210744   7.757   3.207   5.434
 3596TIP3    H110745   7.705   3.284   5.412
 3596TIP3    H210746   7.693   3.139   5.450
 3597TIP3   OH210747   3.443   3.557   4.297
 3597TIP3    H110748   3.431   3.647   4.328
 3597TIP3    H210749   3.377   3.507   4.345
 3598TIP3   OH210750   6.753   4.941   5.442
 3598TIP3    H110751   6.763   4.903   5.355
 3598TIP3    H210752   6.811   4.888   5.498
 3599TIP3   OH210753   5.777   5.115   6.721
 3599TIP3    H110754   5.808   5.204   6.702
 3599TIP3    H210755   5.729   5.125   6.803
 3600TIP3   OH210756   5.935   0.965   4.291
 3600TIP3    H110757   6.026   0.955   4.262
 3600TIP3    H210758   5.942   1.010   4.375
 3601TIP3   OH210759   0.143   4.817   2.456
 3601TIP3    H110760   0.235   4.793   2.449
 3601TIP3    H210761   0.102   4.745   2.504
 3602TIP3   OH210762   5.162   2.555   6.194
 3602TIP3    H110763   5.223   2.547   6.268
 3602TIP3    H210764   5.208   2.611   6.131
 3603TIP3   OH210765   7.586   2.028   3.510
 3603TIP3    H110766   7.606   2.038   3.417
 3603TIP3    H210767   7.666   1.993   3.548
 3604TIP3   OH210768   6.435   1.849   6.436
 3604TIP3    H110769   6.404   1.832   6.525
 3604TIP3    H210770   6.506   1.912   6.447
 3605TIP3   OH210771   5.390   6.132   4.350
 3605TIP3    H110772   5.440   6.078   4.412
 3605TIP3    H210773   5.309   6.084   4.335
 3606TIP3   OH210774   2.690   1.096   2.175
 3606TIP3    H110775   2.682   1.002   2.188
 3606TIP3    H210776   2.633   1.134   2.242
 3607TIP3   OH210777   5.881   1.458   3.183
 3607TIP3    H110778   5.829   1.514   3.241
 3607TIP3    H210779   5.922   1.518   3.122
 3608TIP3   OH210780   4.115   5.615   4.548
 3608TIP3    H110781   4.079   5.547   4.605
 3608TIP3    H210782   4.179   5.569   4.493
 3609TIP3   OH210783   1.080   6.682   5.628
 3609TIP3    H110784   1.006   6.635   5.665
 3609TIP3    H210785   1.144   6.614   5.607
 3610TIP3   OH210786   7.867   6.343   2.125
 3610TIP3    H110787   7.875   6.391   2.207
 3610TIP3    H210788   7.835   6.408   2.062
 3611TIP3   OH210789   1.351   6.298   4.140
 3611TIP3    H110790   1.410   6.340   4.202
 3611TIP3    H210791   1.267   6.342   4.151
 3612TIP3   OH210792   6.935   3.113   1.798
 3612TIP3    H110793   6.898   3.201   1.802
 3612TIP3    H210794   7.027   3.126   1.779
 3613TIP3   OH210795   3.777   4.311   1.009
 3613TIP3    H110796   3.745   4.296   1.098
 3613TIP3    H210797   3.803   4.225   0.978
 3614TIP3   OH210798   0.930   6.152   1.095
 3614TIP3    H110799   0.984   6.110   1.161
 3614TIP3    H210800   0.841   6.146   1.128
 3615TIP3   OH210801   1.069   0.895   4.005
 3615TIP3    H110802   0.987   0.941   3.988
 3615TIP3    H210803   1.043   0.804   4.017
 3616TIP3   OH210804   0.901   1.332   2.061
 3616TIP3    H110805   0.816   1.335   2.018
 3616TIP3    H210806   0.962   1.370   1.997
 3617TIP3   OH210807   7.120   1.435   3.353
 3617TIP3    H110808   7.040   1.480   3.329
 3617TIP3    H210809   7.185   1.466   3.290
 3618TIP3   OH210810   3.743   1.753   6.524
 3618TIP3    H110811   3.699   1.699   6.458
 3618TIP3    H210812   3.671   1.787   6.578
 3619TIP3   OH210813   3.380   1.902   2.592
 3619TIP3    H110814   3.427   1.933   2.669
 3619TIP3    H210815   3.288   1.905   2.617
 3620TIP3   OH210816   7.816   2.724   5.035
 3620TIP3    H110817   7.850   2.700   4.948
 3620TIP3    H210818   7.831   2.646   5.088
 3621TIP3   OH210819   7.452   2.702   1.034
 3621TIP3    H110820   7.416   2.616   1.014
 3621TIP3    H210821   7.446   2.710   1.129
 3622TIP3   OH210822   6.479   1.230   0.027
 3622TIP3    H110823   6.549   1.226   0.093
 3622TIP3    H210824   6.525   1.233  -0.057
 3623TIP3   OH210825   4.870   1.243   0.686
 3623TIP3    H110826   4.847   1.238   0.779
 3623TIP3    H210827   4.876   1.336   0.667
 3624TIP3   OH210828   3.805   3.533   3.948
 3624TIP3    H110829   3.739   3.587   3.905
 3624TIP3    H210830   3.776   3.529   4.040
 3625TIP3   OH210831   5.366   4.219   3.720
 3625TIP3    H110832   5.444   4.268   3.696
 3625TIP3    H210833   5.354   4.156   3.649
 3626TIP3   OH210834   7.126   6.024   1.883
 3626TIP3    H110835   7.113   5.987   1.796
 3626TIP3    H210836   7.041   6.014   1.926
 3627TIP3   OH210837   3.274   5.998   0.602
 3627TIP3    H110838   3.255   6.005   0.696
 3627TIP3    H210839   3.365   5.967   0.599
 3628TIP3   OH210840   4.347   3.687   0.686
 3628TIP3    H110841   4.400   3.610   0.705
 3628TIP3    H210842   4.393   3.732   0.615
 3629TIP3   OH210843   3.895   5.352   0.578
 3629TIP3    H110844   3.831   5.364   0.508
 3629TIP3    H210845   3.843   5.333   0.656
 3630TIP3   OH210846   1.891   6.403   4.032
 3630TIP3    H110847   1.917   6.495   4.036
 3630TIP3    H210848   1.950   6.360   4.094
 3631TIP3   OH210849   4.093   6.194   5.754
 3631TIP3    H110850   4.121   6.258   5.820
 3631TIP3    H210851   4.145   6.116   5.774
 3632TIP3   OH210852   5.065   6.667   0.081
 3632TIP3    H110853   5.043   6.611   0.006
 3632TIP3    H210854   4.996   6.649   0.145
 3633TIP3   OH210855   4.595   5.956   1.791
 3633TIP3    H110856   4.643   5.878   1.764
 3633TIP3    H210857   4.663   6.018   1.817
 3634TIP3   OH210858   0.919   7.465   0.631
 3634TIP3    H110859   0.974   7.518   0.688
 3634TIP3    H210860   0.831   7.501   0.644
 3635TIP3   OH210861   2.992   1.404   4.721
 3635TIP3    H110862   2.918   1.362   4.765
 3635TIP3    H210863   3.069   1.366   4.763
 3636TIP3   OH210864   5.601   0.780   5.436
 3636TIP3    H110865   5.678   0.837   5.433
 3636TIP3    H210866   5.527   0.838   5.418
 3637TIP3   OH210867   5.885   7.166   2.606
 3637TIP3    H110868   5.820   7.097   2.618
 3637TIP3    H210869   5.930   7.171   2.691
 3638TIP3   OH210870   2.102   5.164   5.803
 3638TIP3    H110871   2.117   5.112   5.724
 3638TIP3    H210872   2.011   5.143   5.827
 3639TIP3   OH210873   3.833   1.903   4.173
 3639TIP3    H110874   3.929   1.900   4.176
 3639TIP3    H210875   3.812   1.935   4.086
 3640TIP3   OH210876   6.013   4.784   4.369
 3640TIP3    H110877   5.968   4.867   4.355
 3640TIP3    H210878   6.094   4.808   4.413
 3641TIP3   OH210879   1.139   3.775   5.500
 3641TIP3    H110880   1.056   3.822   5.497
 3641TIP3    H210881   1.114   3.682   5.503
 3642TIP3   OH210882   3.929   0.876   6.273
 3642TIP3    H110883   4.022   0.856   6.283
 3642TIP3    H210884   3.901   0.907   6.359
 3643TIP3   OH210885   8.247   6.025   4.718
 3643TIP3    H110886   8.338   6.039   4.747
 3643TIP3    H210887   8.212   5.961   4.781
 3644TIP3   OH210888   1.605   2.200   0.807
 3644TIP3    H110889   1.552   2.243   0.874
 3644TIP3    H210890   1.566   2.228   0.724
 3645TIP3   OH210891   3.296   4.610   2.037
 3645TIP3    H110892   3.221   4.550   2.040
 3645TIP3    H210893   3.345   4.583   1.959
 3646TIP3   OH210894   1.561   5.652   1.095
 3646TIP3    H110895   1.619   5.708   1.043
 3646TIP3    H210896   1.586   5.671   1.186
 3647TIP3   OH210897   6.831   5.455   2.572
 3647TIP3    H110898   6.887   5.531   2.557
 3647TIP3    H210899   6.829   5.444   2.667
 3648TIP3   OH210900   7.618   6.083   3.263
 3648TIP3    H110901   7.626   5.989   3.278
 3648TIP3    H210902   7.708   6.116   3.267
 3649TIP3   OH210903   6.118   4.802   3.656
 3649TIP3    H110904   6.074   4.717   3.649
 3649TIP3    H210905   6.051   4.861   3.688
 3650TIP3   OH210906   2.588   5.663   2.913
 3650TIP3    H110907   2.653   5.725   2.881
 3650TIP3    H210908   2.504   5.697   2.881
 3651TIP3   OH210909   0.557   2.719   0.213
 3651TIP3    H110910   0.481   2.735   0.156
 3651TIP3    H210911   0.564   2.798   0.267
 3652TIP3   OH210912   1.349   3.358   4.008
 3652TIP3    H110913   1.288   3.285   4.012
 3652TIP3    H210914   1.358   3.377   3.915
 3653TIP3   OH210915   7.804   0.245   4.411
 3653TIP3    H110916   7.717   0.207   4.398
 3653TIP3    H210917   7.803   0.325   4.358
 3654TIP3   OH210918   1.731   5.024   2.178
 3654TIP3    H110919   1.745   5.116   2.159
 3654TIP3    H210920   1.637   5.017   2.195
 3655TIP3   OH210921   4.262   3.769   1.126
 3655TIP3    H110922   4.354   3.781   1.100
 3655TIP3    H210923   4.251   3.825   1.203
 3656TIP3   OH210924   2.662   4.566   5.700
 3656TIP3    H110925   2.699   4.613   5.625
 3656TIP3    H210926   2.704   4.606   5.776
 3657TIP3   OH210927   0.074   6.746   0.849
 3657TIP3    H110928   0.105   6.765   0.761
 3657TIP3    H210929   0.108   6.818   0.902
 3658TIP3   OH210930   7.476   6.314   6.636
 3658TIP3    H110931   7.469   6.357   6.721
 3658TIP3    H210932   7.518   6.379   6.580
 3659TIP3   OH210933   1.916  -0.042   5.795
 3659TIP3    H110934   1.924   0.018   5.721
 3659TIP3    H210935   1.981  -0.011   5.858
 3660TIP3   OH210936   1.525   7.438   1.998
 3660TIP3    H110937   1.542   7.473   1.910
 3660TIP3    H210938   1.430   7.443   2.009
 3661TIP3   OH210939   7.068   6.235   0.586
 3661TIP3    H110940   7.073   6.311   0.529
 3661TIP3    H210941   7.080   6.270   0.675
 3662TIP3   OH210942   7.172   6.101   6.262
 3662TIP3    H110943   7.232   6.176   6.256
 3662TIP3    H210944   7.130   6.111   6.348
 3663TIP3   OH210945   7.709   0.870   2.241
 3663TIP3    H110946   7.654   0.798   2.270
 3663TIP3    H210947   7.776   0.829   2.186
 3664TIP3   OH210948   1.110   3.397   0.948
 3664TIP3    H110949   1.133   3.484   0.978
 3664TIP3    H210950   1.190   3.362   0.910
 3665TIP3   OH210951   0.782   7.578   6.597
 3665TIP3    H110952   0.740   7.528   6.667
 3665TIP3    H210953   0.733   7.659   6.592
 3666TIP3   OH210954   4.444   0.565   1.444
 3666TIP3    H110955   4.362   0.612   1.435
 3666TIP3    H210956   4.456   0.521   1.360
 3667TIP3   OH210957   5.287   4.840   4.616
 3667TIP3    H110958   5.308   4.877   4.703
 3667TIP3    H210959   5.258   4.916   4.565
 3668TIP3   OH210960   1.983   6.254   4.477
 3668TIP3    H110961   1.986   6.343   4.511
 3668TIP3    H210962   2.000   6.199   4.553
 3669TIP3   OH210963   1.590   5.696   2.868
 3669TIP3    H110964   1.520   5.716   2.931
 3669TIP3    H210965   1.613   5.605   2.886
 3670TIP3   OH210966   3.124   3.750   6.362
 3670TIP3    H110967   3.169   3.670   6.391
 3670TIP3    H210968   3.066   3.772   6.434
 3671TIP3   OH210969   0.142   6.619   2.170
 3671TIP3    H110970   0.167   6.530   2.143
 3671TIP3    H210971   0.047   6.614   2.184
 3672TIP3   OH210972   1.554   3.117   4.899
 3672TIP3    H110973   1.581   3.120   4.807
 3672TIP3    H210974   1.467   3.076   4.897
 3673TIP3   OH210975   6.099   5.105   6.080
 3673TIP3    H110976   6.134   5.192   6.098
 3673TIP3    H210977   6.031   5.119   6.014
 3674TIP3   OH210978   6.604   0.824   5.366
 3674TIP3    H110979   6.590   0.891   5.432
 3674TIP3    H210980   6.683   0.852   5.320
 3675TIP3   OH210981   0.967   7.851   1.147
 3675TIP3    H110982   0.990   7.813   1.231
 3675TIP3    H210983   0.940   7.776   1.093
 3676TIP3   OH210984   0.440   2.032   1.654
 3676TIP3    H110985   0.533   2.053   1.645
 3676TIP3    H210986   0.403   2.106   1.701
 3677TIP3   OH210987   4.581   5.911   5.482
 3677TIP3    H110988   4.509   5.878   5.428
 3677TIP3    H210989   4.590   6.003   5.455
 3678TIP3   OH210990   3.345   2.748   6.106
 3678TIP3    H110991   3.253   2.770   6.095
 3678TIP3    H210992   3.358   2.746   6.201
 3679TIP3   OH210993   3.090   7.276   6.598
 3679TIP3    H110994   3.050   7.263   6.512
 3679TIP3    H210995   3.177   7.239   6.590
 3680TIP3   OH210996   0.196   4.099   3.014
 3680TIP3    H110997   0.251   4.098   3.092
 3680TIP3    H210998   0.215   4.183   2.973
 3681TIP3   OH210999   7.552   6.668   4.883
 3681TIP3    H111000   7.557   6.581   4.923
 3681TIP3    H211001   7.483   6.713   4.932
 3682TIP3   OH211002   4.144   7.457   3.180
 3682TIP3    H111003   4.078   7.422   3.121
 3682TIP3    H211004   4.228   7.436   3.137
 3683TIP3   OH211005   7.100   2.498   1.516
 3683TIP3    H111006   7.193   2.478   1.504
 3683TIP3    H211007   7.055   2.420   1.485
 3684TIP3   OH211008   0.757   6.599   4.621
 3684TIP3    H111009   0.665   6.625   4.623
 3684TIP3    H211010   0.801   6.672   4.577
 3685TIP3   OH211011   0.878   3.949   6.604
 3685TIP3    H111012   0.909   4.025   6.653
 3685TIP3    H211013   0.955   3.893   6.596
 3686TIP3   OH211014   4.421   6.372   3.387
 3686TIP3    H111015   4.362   6.300   3.409
 3686TIP3    H211016   4.372   6.451   3.407
 3687TIP3   OH211017   4.838   1.014   3.864
 3687TIP3    H111018   4.805   1.090   3.912
 3687TIP3    H211019   4.843   1.044   3.773
 3688TIP3   OH211020   7.366   7.055   4.596
 3688TIP3    H111021   7.355   7.148   4.612
 3688TIP3    H211022   7.458   7.038   4.615
 3689TIP3   OH211023   3.576   3.614   1.084
 3689TIP3    H111024   3.627   3.612   1.003
 3689TIP3    H211025   3.587   3.526   1.121
 3690TIP3   OH211026   5.840   2.187   4.673
 3690TIP3    H111027   5.900   2.241   4.620
 3690TIP3    H211028   5.787   2.140   4.608
 3691TIP3   OH211029   8.129   3.979   2.093
 3691TIP3    H111030   8.204   4.030   2.126
 3691TIP3    H211031   8.081   3.954   2.172
 3692TIP3   OH211032   3.156   1.936   0.131
 3692TIP3    H111033   3.179   1.877   0.203
 3692TIP3    H211034   3.061   1.935   0.129
 3693TIP3   OH211035   7.725   7.114   5.443
 3693TIP3    H111036   7.667   7.073   5.379
 3693TIP3    H211037   7.692   7.085   5.528
 3694TIP3   OH211038   1.269   0.616   4.589
 3694TIP3    H111039   1.296   0.609   4.681
 3694TIP3    H211040   1.179   0.585   4.589
 3695TIP3   OH211041   5.492   3.118   2.421
 3695TIP3    H111042   5.564   3.138   2.480
 3695TIP3    H211043   5.465   3.202   2.385
 3696TIP3   OH211044   5.563   6.922   0.378
 3696TIP3    H111045   5.487   6.875   0.412
 3696TIP3    H211046   5.607   6.858   0.322
 3697TIP3   OH211047   7.005   5.620   4.970
 3697TIP3    H111048   6.921   5.575   4.981
 3697TIP3    H211049   7.047   5.613   5.056
 3698TIP3   OH211050   5.548   6.626   6.099
 3698TIP3    H111051   5.590   6.703   6.137
 3698TIP3    H211052   5.608   6.554   6.119
 3699TIP3   OH211053   3.540   0.531   4.677
 3699TIP3    H111054   3.558   0.488   4.593
 3699TIP3    H211055   3.507   0.617   4.654
 3700TIP3   OH211056   1.078   5.026   2.450
 3700TIP3    H111057   1.035   5.055   2.530
 3700TIP3    H211058   1.171   5.024   2.472
 3701TIP3   OH211059   2.096   2.070   3.818
 3701TIP3    H111060   2.027   2.048   3.881
 3701TIP3    H211061   2.050   2.097   3.739
 3702TIP3   OH211062   8.085   2.044   5.557
 3702TIP3    H111063   8.124   1.971   5.605
 3702TIP3    H211064   8.160   2.095   5.528
 3703TIP3   OH211065   3.815   4.277   2.954
 3703TIP3    H111066   3.774   4.363   2.949
 3703TIP3    H211067   3.755   4.224   3.006
 3704TIP3   OH211068   3.510   7.346   0.308
 3704TIP3    H111069   3.418   7.323   0.316
 3704TIP3    H211070   3.512   7.441   0.315
 3705TIP3   OH211071   2.577   2.854   6.614
 3705TIP3    H111072   2.510   2.795   6.578
 3705TIP3    H211073   2.534   2.897   6.687
 3706TIP3   OH211074   2.327   6.617   1.390
 3706TIP3    H111075   2.296   6.683   1.327
 3706TIP3    H211076   2.415   6.646   1.413
 3707TIP3   OH211077   6.037   5.843   3.814
 3707TIP3    H111078   5.953   5.797   3.817
 3707TIP3    H211079   6.095   5.783   3.767
 3708TIP3   OH211080   0.256   2.829   4.425
 3708TIP3    H111081   0.347   2.840   4.399
 3708TIP3    H211082   0.260   2.773   4.503
 3709TIP3   OH211083   4.624   0.550   4.135
 3709TIP3    H111084   4.712   0.548   4.172
 3709TIP3    H211085   4.566   0.548   4.212
 3710TIP3   OH211086   1.152   1.460   0.447
 3710TIP3    H111087   1.077   1.490   0.395
 3710TIP3    H211088   1.228   1.500   0.404
 3711TIP3   OH211089   6.135   2.666   5.048
 3711TIP3    H111090   6.136   2.718   5.128
 3711TIP3    H211091   6.226   2.641   5.034
 3712TIP3   OH211092   1.632   3.098   1.945
 3712TIP3    H111093   1.601   3.179   1.985
 3712TIP3    H211094   1.554   3.046   1.930
 3713TIP3   OH211095   4.017   5.727   5.071
 3713TIP3    H111096   3.977   5.640   5.080
 3713TIP3    H211097   4.026   5.739   4.976
 3714TIP3   OH211098   0.295   1.373   1.135
 3714TIP3    H111099   0.245   1.378   1.054
 3714TIP3    H211100   0.230   1.379   1.204
 3715TIP3   OH211101   4.055   3.972   6.619
 3715TIP3    H111102   4.080   3.953   6.710
 3715TIP3    H211103   3.989   4.041   6.627
 3716TIP3   OH211104   7.861   1.680   5.461
 3716TIP3    H111105   7.858   1.584   5.457
 3716TIP3    H211106   7.795   1.703   5.527
 3717TIP3   OH211107   3.890   6.863   0.618
 3717TIP3    H111108   3.872   6.770   0.600
 3717TIP3    H211109   3.980   6.876   0.589
 3718TIP3   OH211110   7.728   2.664   1.418
 3718TIP3    H111111   7.814   2.705   1.416
 3718TIP3    H211112   7.690   2.691   1.501
 3719TIP3   OH211113   5.867   0.415   4.216
 3719TIP3    H111114   5.952   0.446   4.250
 3719TIP3    H211115   5.883   0.399   4.123
 3720TIP3   OH211116   2.668   7.639   1.019
 3720TIP3    H111117   2.693   7.546   1.012
 3720TIP3    H211118   2.610   7.643   1.095
 3721TIP3   OH211119   0.213   3.868   5.558
 3721TIP3    H111120   0.195   3.792   5.502
 3721TIP3    H211121   0.271   3.923   5.505
 3722TIP3   OH211122   5.882   4.776   2.276
 3722TIP3    H111123   5.922   4.828   2.206
 3722TIP3    H211124   5.947   4.708   2.295
 3723TIP3   OH211125   7.017   6.417   2.539
 3723TIP3    H111126   6.989   6.438   2.450
 3723TIP3    H211127   7.025   6.322   2.540
 3724TIP3   OH211128   7.758   6.468   1.391
 3724TIP3    H111129   7.730   6.537   1.451
 3724TIP3    H211130   7.695   6.473   1.319
 3725TIP3   OH211131   2.086   4.439   6.333
 3725TIP3    H111132   2.049   4.364   6.380
 3725TIP3    H211133   2.010   4.485   6.298
 3726TIP3   OH211134   4.329   0.112   4.590
 3726TIP3    H111135   4.361   0.095   4.679
 3726TIP3    H211136   4.241   0.148   4.602
 3727TIP3   OH211137   8.049   4.891   0.770
 3727TIP3    H111138   8.112   4.927   0.708
 3727TIP3    H211139   7.998   4.966   0.799
 3728TIP3   OH211140   1.270   4.076   3.466
 3728TIP3    H111141   1.348   4.130   3.451
 3728TIP3    H211142   1.244   4.095   3.556
 3729TIP3   OH211143   7.807   5.356   5.577
 3729TIP3    H111144   7.833   5.444   5.549
 3729TIP3    H211145   7.724   5.369   5.622
 3730TIP3   OH211146   2.055   1.029   3.571
 3730TIP3    H111147   2.059   0.946   3.522
 3730TIP3    H211148   2.004   1.087   3.515
 3731TIP3   OH211149   1.491   0.169   6.108
 3731TIP3    H111150   1.505   0.105   6.177
 3731TIP3    H211151   1.560   0.234   6.121
 3732TIP3   OH211152   1.063   2.367   4.490
 3732TIP3    H111153   1.007   2.324   4.554
 3732TIP3    H211154   1.084   2.452   4.529
 3733TIP3   OH211155   7.037   0.956   0.341
 3733TIP3    H111156   6.996   1.029   0.295
 3733TIP3    H211157   7.077   0.903   0.272
 3734TIP3   OH211158   4.405   7.801   2.924
 3734TIP3    H111159   4.451   7.731   2.877
 3734TIP3    H211160   4.427   7.785   3.016
 3735TIP3   OH211161   4.018   5.449   4.771
 3735TIP3    H111162   3.973   5.376   4.728
 3735TIP3    H211163   3.985   5.448   4.861
 3736TIP3   OH211164   2.597   4.338   5.100
 3736TIP3    H111165   2.621   4.301   5.185
 3736TIP3    H211166   2.666   4.308   5.041
 3737TIP3   OH211167   2.307   7.452   1.703
 3737TIP3    H111168   2.228   7.446   1.650
 3737TIP3    H211169   2.304   7.374   1.759
 3738TIP3   OH211170   0.259   6.050   3.401
 3738TIP3    H111171   0.244   6.073   3.493
 3738TIP3    H211172   0.353   6.030   3.397
 3739TIP3   OH211173   4.805   7.508   4.024
 3739TIP3    H111174   4.852   7.592   4.018
 3739TIP3    H211175   4.714   7.533   4.039
 3740TIP3   OH211176   7.827   2.234   2.440
 3740TIP3    H111177   7.869   2.313   2.475
 3740TIP3    H211178   7.756   2.216   2.502
 3741TIP3   OH211179   3.198   4.402   3.553
 3741TIP3    H111180   3.159   4.391   3.466
 3741TIP3    H211181   3.166   4.488   3.582
 3742TIP3   OH211182   4.224   3.805   6.432
 3742TIP3    H111183   4.170   3.857   6.492
 3742TIP3    H211184   4.213   3.715   6.462
 3743TIP3   OH211185   1.069   1.467   1.855
 3743TIP3    H111186   1.164   1.473   1.859
 3743TIP3    H211187   1.046   1.502   1.769
 3744TIP3   OH211188   0.077   4.121   2.262
 3744TIP3    H111189   0.082   4.215   2.279
 3744TIP3    H211190   0.024   4.087   2.335
 3745TIP3   OH211191   5.207   6.269   1.384
 3745TIP3    H111192   5.285   6.298   1.432
 3745TIP3    H211193   5.191   6.180   1.415
 3746TIP3   OH211194   3.054   4.251   4.265
 3746TIP3    H111195   3.024   4.287   4.181
 3746TIP3    H211196   3.024   4.160   4.264
 3747TIP3   OH211197   2.683   3.698   3.202
 3747TIP3    H111198   2.764   3.681   3.250
 3747TIP3    H211199   2.640   3.768   3.251
 3748TIP3   OH211200   0.531   6.164   5.386
 3748TIP3    H111201   0.587   6.212   5.448
 3748TIP3    H211202   0.449   6.212   5.385
 3749TIP3   OH211203   3.912   6.971   6.036
 3749TIP3    H111204   3.864   6.909   5.981
 3749TIP3    H211205   3.913   7.052   5.985
 3750TIP3   OH211206   5.781   4.838   6.666
 3750TIP3    H111207   5.789   4.923   6.710
 3750TIP3    H211208   5.687   4.820   6.667
 3751TIP3   OH211209   6.834   3.147   3.084
 3751TIP3    H111210   6.925   3.124   3.105
 3751TIP3    H211211   6.820   3.113   2.996
 3752TIP3   OH211212   2.282   4.067   3.304
 3752TIP3    H111213   2.326   4.017   3.235
 3752TIP3    H211214   2.200   4.095   3.263
 3753TIP3   OH211215   1.770   4.589   6.743
 3753TIP3    H111216   1.864   4.573   6.737
 3753TIP3    H211217   1.745   4.614   6.654
 3754TIP3   OH211218   8.036   6.103   3.511
 3754TIP3    H111219   8.035   6.136   3.601
 3754TIP3    H211220   8.127   6.111   3.484
 3755TIP3   OH211221   0.233   5.541   3.661
 3755TIP3    H111222   0.247   5.527   3.755
 3755TIP3    H211223   0.242   5.635   3.649
 3756TIP3   OH211224   0.455   4.554   0.098
 3756TIP3    H111225   0.484   4.559   0.189
 3756TIP3    H211226   0.397   4.629   0.086
 3757TIP3   OH211227   1.442   5.543   0.608
 3757TIP3    H111228   1.349   5.564   0.600
 3757TIP3    H211229   1.468   5.576   0.694
 3758TIP3   OH211230   0.699   5.294   2.862
 3758TIP3    H111231   0.760   5.362   2.835
 3758TIP3    H211232   0.739   5.213   2.831
 3759TIP3   OH211233   7.246   6.921   5.678
 3759TIP3    H111234   7.320   6.906   5.737
 3759TIP3    H211235   7.234   6.838   5.633
 3760TIP3   OH211236   6.745   6.426   4.578
 3760TIP3    H111237   6.767   6.516   4.553
 3760TIP3    H211238   6.830   6.384   4.591
 3761TIP3   OH211239   0.032   6.988   0.400
 3761TIP3    H111240   0.083   6.957   0.325
 3761TIP3    H211241   0.050   7.082   0.404
 3762TIP3   OH211242   5.827   6.617   5.379
 3762TIP3    H111243   5.745   6.593   5.420
 3762TIP3    H211244   5.806   6.694   5.326
 3763TIP3   OH211245   5.239   0.210   1.876
 3763TIP3    H111246   5.313   0.163   1.838
 3763TIP3    H211247   5.274   0.297   1.898
 3764TIP3   OH211248   6.941   1.459   0.130
 3764TIP3    H111249   7.029   1.498   0.129
 3764TIP3    H211250   6.928   1.426   0.042
 3765TIP3   OH211251   4.392   7.518   4.811
 3765TIP3    H111252   4.358   7.605   4.790
 3765TIP3    H211253   4.418   7.481   4.727
 3766TIP3   OH211254   6.721   1.826   2.894
 3766TIP3    H111255   6.716   1.816   2.799
 3766TIP3    H211256   6.815   1.831   2.913
 3767TIP3   OH211257   7.963   1.403   3.230
 3767TIP3    H111258   8.018   1.467   3.274
 3767TIP3    H211259   7.905   1.456   3.175
 3768TIP3   OH211260   4.563   7.098   1.358
 3768TIP3    H111261   4.653   7.107   1.390
 3768TIP3    H211262   4.549   7.176   1.304
 3769TIP3   OH211263   3.761   5.048   0.701
 3769TIP3    H111264   3.750   5.143   0.703
 3769TIP3    H211265   3.855   5.034   0.702
 3770TIP3   OH211266   1.618   1.746   2.994
 3770TIP3    H111267   1.606   1.819   3.054
 3770TIP3    H211268   1.681   1.689   3.038
 3771TIP3   OH211269   3.186   7.855   4.103
 3771TIP3    H111270   3.238   7.779   4.131
 3771TIP3    H211271   3.193   7.916   4.176
 3772TIP3   OH211272   0.188   1.604   6.516
 3772TIP3    H111273   0.206   1.690   6.553
 3772TIP3    H211274   0.095   1.589   6.535
 3773TIP3   OH211275   7.439   4.480   5.407
 3773TIP3    H111276   7.532   4.466   5.423
 3773TIP3    H211277   7.435   4.519   5.319
 3774TIP3   OH211278   0.052   4.217   4.973
 3774TIP3    H111279   0.053   4.155   4.899
 3774TIP3    H211280  -0.003   4.289   4.943
 3775TIP3   OH211281   1.774   7.724   2.171
 3775TIP3    H111282   1.760   7.815   2.144
 3775TIP3    H211283   1.863   7.704   2.144
 3776TIP3   OH211284   7.081   3.619   1.513
 3776TIP3    H111285   7.082   3.707   1.551
 3776TIP3    H211286   7.160   3.616   1.459
 3777TIP3   OH211287   4.422   1.543   5.357
 3777TIP3    H111288   4.417   1.638   5.342
 3777TIP3    H211289   4.358   1.506   5.295
 3778TIP3   OH211290   4.623   7.269   2.539
 3778TIP3    H111291   4.559   7.259   2.610
 3778TIP3    H211292   4.574   7.313   2.470
 3779TIP3   OH211293   3.762   6.150   2.988
 3779TIP3    H111294   3.794   6.223   2.935
 3779TIP3    H211295   3.752   6.078   2.925
 3780TIP3   OH211296   2.320   2.018   0.870
 3780TIP3    H111297   2.274   1.934   0.863
 3780TIP3    H211298   2.251   2.083   0.878
 3781TIP3   OH211299   0.030   4.302   3.334
 3781TIP3    H111300   0.114   4.332   3.369
 3781TIP3    H211301  -0.014   4.383   3.306
 3782TIP3   OH211302   4.537   2.681   3.914
 3782TIP3    H111303   4.587   2.762   3.915
 3782TIP3    H211304   4.601   2.613   3.933
 3783TIP3   OH211305   1.479   5.295   0.797
 3783TIP3    H111306   1.458   5.216   0.847
 3783TIP3    H211307   1.453   5.274   0.707
 3784TIP3   OH211308   3.616   7.757   3.528
 3784TIP3    H111309   3.603   7.673   3.484
 3784TIP3    H211310   3.656   7.813   3.462
 3785TIP3   OH211311   2.933   0.335   6.388
 3785TIP3    H111312   2.923   0.264   6.325
 3785TIP3    H211313   2.874   0.312   6.460
 3786TIP3   OH211314   7.658   3.096   6.725
 3786TIP3    H111315   7.595   3.142   6.670
 3786TIP3    H211316   7.743   3.130   6.696
 3787TIP3   OH211317   4.781   2.906   5.093
 3787TIP3    H111318   4.819   2.897   5.180
 3787TIP3    H211319   4.854   2.932   5.036
 3788TIP3   OH211320   7.095   4.693   6.535
 3788TIP3    H111321   7.127   4.782   6.550
 3788TIP3    H211322   7.112   4.647   6.617
 3789TIP3   OH211323   7.837   4.433   4.715
 3789TIP3    H111324   7.778   4.358   4.725
 3789TIP3    H211325   7.795   4.487   4.648
 3790TIP3   OH211326   6.160   6.003   5.149
 3790TIP3    H111327   6.186   5.918   5.186
 3790TIP3    H211328   6.131   6.054   5.225
 3791TIP3   OH211329   4.236   7.135   2.908
 3791TIP3    H111330   4.255   7.099   2.821
 3791TIP3    H211331   4.246   7.060   2.967
 3792TIP3   OH211332   6.581   6.480   4.998
 3792TIP3    H111333   6.632   6.554   4.966
 3792TIP3    H211334   6.641   6.405   4.991
 3793TIP3   OH211335   2.850   3.115   5.519
 3793TIP3    H111336   2.833   3.209   5.513
 3793TIP3    H211337   2.879   3.101   5.609
 3794TIP3   OH211338   3.208   3.804   1.733
 3794TIP3    H111339   3.211   3.722   1.683
 3794TIP3    H211340   3.294   3.843   1.719
 3795TIP3   OH211341   5.534   1.748   2.661
 3795TIP3    H111342   5.510   1.836   2.691
 3795TIP3    H211343   5.455   1.695   2.677
 3796TIP3   OH211344   0.698   6.275   1.247
 3796TIP3    H111345   0.701   6.344   1.182
 3796TIP3    H211346   0.698   6.321   1.331
 3797TIP3   OH211347   0.065   4.903   2.014
 3797TIP3    H111348   0.139   4.860   1.972
 3797TIP3    H211349   0.103   4.980   2.056
 3798TIP3   OH211350   5.059   6.160   2.118
 3798TIP3    H111351   5.017   6.212   2.050
 3798TIP3    H211352   5.132   6.215   2.148
 3799TIP3   OH211353   0.413   6.311   5.075
 3799TIP3    H111354   0.505   6.335   5.064
 3799TIP3    H211355   0.413   6.215   5.074
 3800TIP3   OH211356   4.857   6.613   4.072
 3800TIP3    H111357   4.907   6.604   3.991
 3800TIP3    H211358   4.907   6.565   4.137
 3801TIP3   OH211359   1.471   5.288   0.533
 3801TIP3    H111360   1.505   5.268   0.446
 3801TIP3    H211361   1.475   5.383   0.539
 3802TIP3   OH211362   2.639   4.260   2.085
 3802TIP3    H111363   2.577   4.246   2.157
 3802TIP3    H211364   2.632   4.181   2.032
 3803TIP3   OH211365   6.631   3.903   5.979
 3803TIP3    H111366   6.563   3.970   5.991
 3803TIP3    H211367   6.656   3.878   6.068
 3804TIP3   OH211368   5.024   4.030   3.843
 3804TIP3    H111369   4.974   3.965   3.893
 3804TIP3    H211370   4.979   4.034   3.758
 3805TIP3   OH211371   5.044   4.041   1.619
 3805TIP3    H111372   5.019   4.021   1.529
 3805TIP3    H211373   5.074   4.132   1.616
 3806TIP3   OH211374   4.607   3.578   6.122
 3806TIP3    H111375   4.558   3.524   6.184
 3806TIP3    H211376   4.540   3.615   6.064
 3807TIP3   OH211377   0.646   3.118   4.863
 3807TIP3    H111378   0.617   3.204   4.895
 3807TIP3    H211379   0.570   3.061   4.875
 3808TIP3   OH211380   3.867   5.135   1.120
 3808TIP3    H111381   3.913   5.135   1.036
 3808TIP3    H211382   3.801   5.066   1.112
 3809TIP3   OH211383   8.109   7.664   5.183
 3809TIP3    H111384   8.168   7.740   5.186
 3809TIP3    H211385   8.022   7.701   5.200
 3810TIP3   OH211386   1.686   1.012   2.772
 3810TIP3    H111387   1.710   0.928   2.813
 3810TIP3    H211388   1.599   0.996   2.735
 3811TIP3   OH211389   6.074   4.881   6.230
 3811TIP3    H111390   6.084   4.967   6.189
 3811TIP3    H211391   6.104   4.894   6.320
 3812TIP3   OH211392   0.240   6.235   3.107
 3812TIP3    H111393   0.237   6.276   3.020
 3812TIP3    H211394   0.152   6.246   3.142
 3813TIP3   OH211395   2.760   5.653   4.508
 3813TIP3    H111396   2.742   5.743   4.537
 3813TIP3    H211397   2.799   5.663   4.421
 3814TIP3   OH211398   5.663   4.777   2.729
 3814TIP3    H111399   5.637   4.698   2.777
 3814TIP3    H211400   5.605   4.779   2.653
 3815TIP3   OH211401   4.272   2.168   3.595
 3815TIP3    H111402   4.263   2.246   3.539
 3815TIP3    H211403   4.348   2.187   3.650
 3816TIP3   OH211404   1.964   4.045   2.734
 3816TIP3    H111405   1.988   3.967   2.784
 3816TIP3    H211406   1.987   4.024   2.644
 3817TIP3   OH211407   0.220   6.713   1.247
 3817TIP3    H111408   0.144   6.660   1.224
 3817TIP3    H211409   0.293   6.651   1.251
 3818TIP3   OH211410   7.422   2.084   4.199
 3818TIP3    H111411   7.343   2.031   4.211
 3818TIP3    H211412   7.487   2.022   4.166
 3819TIP3   OH211413   1.456   3.803   3.272
 3819TIP3    H111414   1.532   3.831   3.221
 3819TIP3    H211415   1.382   3.812   3.211
 3820TIP3   OH211416   0.753   3.604   3.629
 3820TIP3    H111417   0.705   3.524   3.647
 3820TIP3    H211418   0.685   3.669   3.610
 3821TIP3   OH211419   0.324   3.478   6.651
 3821TIP3    H111420   0.416   3.466   6.626
 3821TIP3    H211421   0.314   3.573   6.659
 3822TIP3   OH211422   7.329   1.536   1.611
 3822TIP3    H111423   7.265   1.598   1.578
 3822TIP3    H211424   7.348   1.479   1.536
 3823TIP3   OH211425   2.849   3.702   2.296
 3823TIP3    H111426   2.922   3.657   2.339
 3823TIP3    H211427   2.851   3.670   2.206
 3824TIP3   OH211428   0.547   2.187   3.535
 3824TIP3    H111429   0.505   2.220   3.456
 3824TIP3    H211430   0.617   2.130   3.503
 3825TIP3   OH211431   0.665   4.878   0.745
 3825TIP3    H111432   0.741   4.847   0.695
 3825TIP3    H211433   0.629   4.949   0.692
 3826TIP3   OH211434   3.834   6.581   4.767
 3826TIP3    H111435   3.881   6.591   4.850
 3826TIP3    H211436   3.774   6.656   4.764
 3827TIP3   OH211437   2.075   7.679   5.045
 3827TIP3    H111438   2.016   7.622   4.996
 3827TIP3    H211439   2.030   7.696   5.128
 3828TIP3   OH211440   2.984   0.666   1.244
 3828TIP3    H111441   2.945   0.699   1.326
 3828TIP3    H211442   2.910   0.656   1.185
 3829TIP3   OH211443   4.256   5.950   5.504
 3829TIP3    H111444   4.185   6.015   5.504
 3829TIP3    H211445   4.218   5.873   5.462
 3830TIP3   OH211446   5.845   0.275   5.215
 3830TIP3    H111447   5.815   0.217   5.145
 3830TIP3    H211448   5.907   0.222   5.265
 3831TIP3   OH211449   8.048   0.261   1.991
 3831TIP3    H111450   8.007   0.307   2.064
 3831TIP3    H211451   7.978   0.251   1.926
 3832TIP3   OH211452   0.462   3.058   5.592
 3832TIP3    H111453   0.536   2.997   5.592
 3832TIP3    H211454   0.429   3.055   5.682
 3833TIP3   OH211455   3.303   3.946   0.713
 3833TIP3    H111456   3.221   3.903   0.737
 3833TIP3    H211457   3.366   3.915   0.778
 3834TIP3   OH211458   0.961   4.494   3.014
 3834TIP3    H111459   0.875   4.478   3.053
 3834TIP3    H211460   1.000   4.561   3.070
 3835TIP3   OH211461   2.910   2.334   5.832
 3835TIP3    H111462   2.989   2.373   5.869
 3835TIP3    H211463   2.847   2.406   5.830
 3836TIP3   OH211464   0.018   5.072   3.901
 3836TIP3    H111465   0.028   5.082   3.806
 3836TIP3    H211466   0.090   5.122   3.938
 3837TIP3   OH211467   6.595   7.087   3.458
 3837TIP3    H111468   6.664   7.064   3.396
 3837TIP3    H211469   6.543   7.007   3.467
 3838TIP3   OH211470   7.623   6.107   2.898
 3838TIP3    H111471   7.594   6.178   2.955
 3838TIP3    H211472   7.567   6.114   2.820
 3839TIP3   OH211473   4.544   0.565   0.161
 3839TIP3    H111474   4.598   0.643   0.169
 3839TIP3    H211475   4.537   0.532   0.251
 3840TIP3   OH211476   0.289   5.814   3.769
 3840TIP3    H111477   0.277   5.841   3.860
 3840TIP3    H211478   0.268   5.893   3.718
 3841TIP3   OH211479   7.925   5.842   3.535
 3841TIP3    H111480   8.000   5.898   3.515
 3841TIP3    H211481   7.944   5.759   3.490
 3842TIP3   OH211482   0.572   3.896   5.153
 3842TIP3    H111483   0.533   3.809   5.139
 3842TIP3    H211484   0.509   3.941   5.210
 3843TIP3   OH211485   7.121   2.178   2.562
 3843TIP3    H111486   7.189   2.157   2.626
 3843TIP3    H211487   7.160   2.246   2.507
 3844TIP3   OH211488   4.678   3.820   5.821
 3844TIP3    H111489   4.634   3.843   5.902
 3844TIP3    H211490   4.686   3.724   5.824
 3845TIP3   OH211491   1.163   1.749   5.218
 3845TIP3    H111492   1.241   1.803   5.222
 3845TIP3    H211493   1.091   1.811   5.203
 3846TIP3   OH211494   6.206   2.724   6.149
 3846TIP3    H111495   6.264   2.652   6.125
 3846TIP3    H211496   6.252   2.803   6.119
 3847TIP3   OH211497   7.315   5.997   3.805
 3847TIP3    H111498   7.267   6.050   3.742
 3847TIP3    H211499   7.298   6.039   3.890
 3848TIP3   OH211500   2.520   0.787   3.148
 3848TIP3    H111501   2.528   0.713   3.088
 3848TIP3    H211502   2.569   0.759   3.226
 3849TIP3   OH211503   5.867   5.436   0.223
 3849TIP3    H111504   5.789   5.478   0.187
 3849TIP3    H211505   5.855   5.343   0.204
 3850TIP3   OH211506   5.790   1.998   4.448
 3850TIP3    H111507   5.886   2.004   4.448
 3850TIP3    H211508   5.772   1.907   4.423
 3851TIP3   OH211509   2.659   1.646   0.395
 3851TIP3    H111510   2.628   1.591   0.323
 3851TIP3    H211511   2.753   1.655   0.380
 3852TIP3   OH211512   5.965   3.701   2.598
 3852TIP3    H111513   5.900   3.659   2.655
 3852TIP3    H211514   5.921   3.710   2.513
 3853TIP3   OH211515   0.561   6.820   6.705
 3853TIP3    H111516   0.519   6.861   6.781
 3853TIP3    H211517   0.490   6.778   6.658
 3854TIP3   OH211518   2.751   2.452   4.173
 3854TIP3    H111519   2.789   2.409   4.096
 3854TIP3    H211520   2.743   2.383   4.239
 3855TIP3   OH211521   3.479   4.734   4.897
 3855TIP3    H111522   3.434   4.784   4.965
 3855TIP3    H211523   3.544   4.794   4.862
 3856TIP3   OH211524   5.220   2.778   1.173
 3856TIP3    H111525   5.136   2.734   1.183
 3856TIP3    H211526   5.251   2.753   1.086
 3857TIP3   OH211527   1.895   1.392   6.171
 3857TIP3    H111528   1.935   1.387   6.258
 3857TIP3    H211529   1.960   1.353   6.113
 3858TIP3   OH211530   4.540   5.201   1.501
 3858TIP3    H111531   4.533   5.232   1.411
 3858TIP3    H211532   4.633   5.182   1.512
 3859TIP3   OH211533   3.360   3.430   0.249
 3859TIP3    H111534   3.397   3.385   0.325
 3859TIP3    H211535   3.366   3.365   0.178
 3860TIP3   OH211536   8.034   1.689   1.102
 3860TIP3    H111537   8.042   1.768   1.050
 3860TIP3    H211538   8.086   1.706   1.181
 3861TIP3   OH211539   0.827   7.205   0.585
 3861TIP3    H111540   0.875   7.288   0.589
 3861TIP3    H211541   0.739   7.230   0.557
 3862TIP3   OH211542   5.374   6.590   3.811
 3862TIP3    H111543   5.308   6.632   3.756
 3862TIP3    H211544   5.327   6.522   3.858
 3863TIP3   OH211545   7.563   6.163   1.163
 3863TIP3    H111546   7.547   6.215   1.241
 3863TIP3    H211547   7.658   6.150   1.162
 3864TIP3   OH211548   6.257   6.772   0.027
 3864TIP3    H111549   6.236   6.709   0.095
 3864TIP3    H211550   6.238   6.857   0.066
 3865TIP3   OH211551   3.927   2.470   0.650
 3865TIP3    H111552   3.904   2.544   0.594
 3865TIP3    H211553   3.969   2.509   0.726
 3866TIP3   OH211554   2.772   6.283   2.680
 3866TIP3    H111555   2.684   6.314   2.658
 3866TIP3    H211556   2.766   6.254   2.771
 3867TIP3   OH211557   2.711   7.381   2.181
 3867TIP3    H111558   2.645   7.450   2.173
 3867TIP3    H211559   2.792   7.428   2.201
 3868TIP3   OH211560   1.142   1.628   4.398
 3868TIP3    H111561   1.112   1.549   4.353
 3868TIP3    H211562   1.125   1.699   4.336
 3869TIP3   OH211563   5.607   2.709   1.187
 3869TIP3    H111564   5.640   2.794   1.215
 3869TIP3    H211565   5.684   2.666   1.148
 3870TIP3   OH211566   8.015   4.635   4.222
 3870TIP3    H111567   8.022   4.555   4.273
 3870TIP3    H211568   8.098   4.640   4.174
 3871TIP3   OH211569   2.715   2.061   5.500
 3871TIP3    H111570   2.772   2.097   5.432
 3871TIP3    H211571   2.768   1.992   5.541
 3872TIP3   OH211572   0.799   6.338   4.038
 3872TIP3    H111573   0.879   6.306   4.081
 3872TIP3    H211574   0.781   6.422   4.081
 3873TIP3   OH211575   0.893   1.221   5.230
 3873TIP3    H111576   0.869   1.304   5.190
 3873TIP3    H211577   0.810   1.184   5.261
 3874TIP3   OH211578   1.787   5.963   1.488
 3874TIP3    H111579   1.800   5.995   1.578
 3874TIP3    H211580   1.875   5.940   1.458
 3875TIP3   OH211581   0.512   2.711   6.197
 3875TIP3    H111582   0.479   2.801   6.191
 3875TIP3    H211583   0.462   2.663   6.131
 3876TIP3   OH211584   6.131   1.027   6.327
 3876TIP3    H111585   6.204   0.966   6.334
 3876TIP3    H211586   6.112   1.031   6.233
 3877TIP3   OH211587   5.084   5.725   0.858
 3877TIP3    H111588   4.991   5.706   0.848
 3877TIP3    H211589   5.128   5.652   0.814
 3878TIP3   OH211590   5.818   1.355   4.065
 3878TIP3    H111591   5.840   1.267   4.036
 3878TIP3    H211592   5.724   1.363   4.050
 3879TIP3   OH211593   0.708   3.842   1.407
 3879TIP3    H111594   0.785   3.796   1.440
 3879TIP3    H211595   0.636   3.778   1.415
 3880TIP3   OH211596   6.592   2.767   4.161
 3880TIP3    H111597   6.678   2.805   4.180
 3880TIP3    H211598   6.611   2.685   4.115
 3881TIP3   OH211599   0.132   2.332   6.281
 3881TIP3    H111600   0.147   2.346   6.374
 3881TIP3    H211601   0.140   2.237   6.270
 3882TIP3   OH211602   2.079   1.506   5.482
 3882TIP3    H111603   2.123   1.444   5.541
 3882TIP3    H211604   1.990   1.472   5.473
 3883TIP3   OH211605   0.651   1.368   1.950
 3883TIP3    H111606   0.594   1.444   1.965
 3883TIP3    H211607   0.630   1.339   1.861
 3884TIP3   OH211608   0.851   7.726   5.323
 3884TIP3    H111609   0.784   7.658   5.327
 3884TIP3    H211610   0.862   7.754   5.413
 3885TIP3   OH211611   4.276   2.600   4.105
 3885TIP3    H111612   4.358   2.574   4.148
 3885TIP3    H211613   4.282   2.563   4.017
 3886TIP3   OH211614   4.545   0.723   6.648
 3886TIP3    H111615   4.509   0.699   6.562
 3886TIP3    H211616   4.554   0.639   6.694
 3887TIP3   OH211617   3.842   7.008   6.545
 3887TIP3    H111618   3.927   6.966   6.537
 3887TIP3    H211619   3.819   6.997   6.638
 3888TIP3   OH211620   7.867   3.196   5.681
 3888TIP3    H111621   7.848   3.214   5.589
 3888TIP3    H211622   7.961   3.180   5.684
 3889TIP3   OH211623   5.638   3.323   6.179
 3889TIP3    H111624   5.655   3.303   6.087
 3889TIP3    H211625   5.725   3.324   6.220
 3890TIP3   OH211626   8.182   7.417   3.557
 3890TIP3    H111627   8.229   7.334   3.544
 3890TIP3    H211628   8.251   7.484   3.553
 3891TIP3   OH211629   3.531   0.091   4.074
 3891TIP3    H111630   3.436   0.094   4.079
 3891TIP3    H211631   3.557   0.039   4.150
 3892TIP3   OH211632   4.612   4.063   2.610
 3892TIP3    H111633   4.600   4.045   2.517
 3892TIP3    H211634   4.564   3.992   2.654
 3893TIP3   OH211635   3.736   7.687   0.610
 3893TIP3    H111636   3.667   7.630   0.644
 3893TIP3    H211637   3.697   7.774   0.610
 3894TIP3   OH211638   0.148   5.543   3.129
 3894TIP3    H111639   0.152   5.481   3.056
 3894TIP3    H211640   0.189   5.496   3.202
 3895TIP3   OH211641   1.597   5.419   2.906
 3895TIP3    H111642   1.594   5.332   2.945
 3895TIP3    H211643   1.688   5.429   2.878
 3896TIP3   OH211644   8.219   5.124   3.394
 3896TIP3    H111645   8.183   5.063   3.329
 3896TIP3    H211646   8.245   5.069   3.467
 3897TIP3   OH211647   3.288   2.814   4.179
 3897TIP3    H111648   3.314   2.841   4.267
 3897TIP3    H211649   3.192   2.820   4.179
 3898TIP3   OH211650   6.063   6.403   0.792
 3898TIP3    H111651   6.141   6.435   0.837
 3898TIP3    H211652   6.067   6.308   0.803
 3899TIP3   OH211653   6.855   7.101   4.886
 3899TIP3    H111654   6.832   7.074   4.797
 3899TIP3    H211655   6.932   7.157   4.874
 3900TIP3   OH211656   4.354   3.116   3.958
 3900TIP3    H111657   4.337   3.038   4.011
 3900TIP3    H211658   4.375   3.184   4.022
 3901TIP3   OH211659   3.374   4.944   0.425
 3901TIP3    H111660   3.294   4.990   0.399
 3901TIP3    H211661   3.438   5.015   0.438
 3902TIP3   OH211662   7.310   1.881   1.969
 3902TIP3    H111663   7.335   1.973   1.978
 3902TIP3    H211664   7.315   1.846   2.058
 3903TIP3   OH211665   7.200   3.136   1.784
 3903TIP3    H111666   7.216   3.167   1.696
 3903TIP3    H211667   7.221   3.210   1.841
 3904TIP3   OH211668   1.000   1.866   0.391
 3904TIP3    H111669   1.013   1.927   0.318
 3904TIP3    H211670   1.069   1.888   0.453
 3905TIP3   OH211671   0.479   1.435   5.012
 3905TIP3    H111672   0.497   1.424   5.106
 3905TIP3    H211673   0.565   1.429   4.971
 3906TIP3   OH211674   7.177   4.492   5.519
 3906TIP3    H111675   7.254   4.497   5.462
 3906TIP3    H211676   7.200   4.545   5.595
 3907TIP3   OH211677   4.947   7.041   0.325
 3907TIP3    H111678   4.893   6.990   0.386
 3907TIP3    H211679   5.029   6.992   0.320
 3908TIP3   OH211680   3.838   3.842   0.391
 3908TIP3    H111681   3.840   3.766   0.448
 3908TIP3    H211682   3.806   3.808   0.307
 3909TIP3   OH211683   2.895   4.830   3.928
 3909TIP3    H111684   2.943   4.906   3.961
 3909TIP3    H211685   2.862   4.787   4.007
 3910TIP3   OH211686   2.872   1.552   4.985
 3910TIP3    H111687   2.855   1.575   4.893
 3910TIP3    H211688   2.795   1.503   5.012
 3911TIP3   OH211689   3.549   4.659   4.579
 3911TIP3    H111690   3.459   4.632   4.598
 3911TIP3    H211691   3.550   4.675   4.485
 3912TIP3   OH211692   7.884   2.760   6.442
 3912TIP3    H111693   7.884   2.668   6.413
 3912TIP3    H211694   7.797   2.774   6.478
 3913TIP3   OH211695   5.644   7.367   3.193
 3913TIP3    H111696   5.734   7.392   3.173
 3913TIP3    H211697   5.600   7.450   3.213
 3914TIP3   OH211698   1.075   2.519   4.244
 3914TIP3    H111699   1.122   2.451   4.293
 3914TIP3    H211700   0.983   2.499   4.257
 3915TIP3   OH211701   6.886   2.565   2.284
 3915TIP3    H111702   6.799   2.606   2.282
 3915TIP3    H211703   6.947   2.638   2.283
 3916TIP3   OH211704   8.142   4.953   4.311
 3916TIP3    H111705   8.208   5.021   4.302
 3916TIP3    H211706   8.150   4.900   4.231
 3917TIP3   OH211707   3.552   6.250   5.353
 3917TIP3    H111708   3.605   6.239   5.274
 3917TIP3    H211709   3.599   6.316   5.404
 3918TIP3   OH211710   5.727   6.268   1.951
 3918TIP3    H111711   5.753   6.208   2.021
 3918TIP3    H211712   5.809   6.294   1.909
 3919TIP3   OH211713   1.056   1.318   2.849
 3919TIP3    H111714   1.131   1.288   2.799
 3919TIP3    H211715   1.049   1.411   2.830
 3920TIP3   OH211716   7.966   4.611   1.765
 3920TIP3    H111717   8.044   4.640   1.813
 3920TIP3    H211718   7.894   4.661   1.803
 3921TIP3   OH211719   3.813   3.910   5.616
 3921TIP3    H111720   3.817   3.938   5.708
 3921TIP3    H211721   3.774   3.823   5.620
 3922TIP3   OH211722   2.708   7.289   3.943
 3922TIP3    H111723   2.620   7.327   3.935
 3922TIP3    H211724   2.766   7.353   3.903
 3923TIP3   OH211725   4.876   3.723   0.988
 3923TIP3    H111726   4.932   3.741   1.063
 3923TIP3    H211727   4.875   3.805   0.938
 3924TIP3   OH211728   4.466   5.080   0.883
 3924TIP3    H111729   4.401   5.146   0.908
 3924TIP3    H211730   4.549   5.114   0.916
 3925TIP3   OH211731   2.587   6.864   1.182
 3925TIP3    H111732   2.570   6.946   1.229
 3925TIP3    H211733   2.634   6.809   1.246
 3926TIP3   OH211734   3.286   0.964   4.683
 3926TIP3    H111735   3.346   0.969   4.757
 3926TIP3    H211736   3.302   1.045   4.633
 3927TIP3   OH211737   1.958   1.891   2.962
 3927TIP3    H111738   1.941   1.801   2.987
 3927TIP3    H211739   2.048   1.891   2.931
 3928TIP3   OH211740   4.880   2.604   5.938
 3928TIP3    H111741   4.884   2.694   5.905
 3928TIP3    H211742   4.966   2.567   5.920
 3929TIP3   OH211743   5.596   5.920   5.939
 3929TIP3    H111744   5.579   6.005   5.980
 3929TIP3    H211745   5.579   5.856   6.008
 3930TIP3   OH211746   4.922   3.015   4.850
 3930TIP3    H111747   4.989   3.011   4.782
 3930TIP3    H211748   4.839   3.020   4.802
 3931TIP3   OH211749   4.667   5.553   2.132
 3931TIP3    H111750   4.728   5.562   2.206
 3931TIP3    H211751   4.724   5.540   2.056
 3932TIP3   OH211752   2.620   6.273   1.965
 3932TIP3    H111753   2.631   6.227   1.882
 3932TIP3    H211754   2.612   6.366   1.941
 3933TIP3   OH211755   2.638   3.624   4.376
 3933TIP3    H111756   2.564   3.579   4.335
 3933TIP3    H211757   2.715   3.572   4.350
 3934TIP3   OH211758   5.749   5.954   5.408
 3934TIP3    H111759   5.676   5.999   5.363
 3934TIP3    H211760   5.715   5.933   5.495
 3935TIP3   OH211761   7.685   4.010   4.255
 3935TIP3    H111762   7.668   4.020   4.161
 3935TIP3    H211763   7.678   3.916   4.270
 3936TIP3   OH211764   1.799   6.893   5.267
 3936TIP3    H111765   1.737   6.902   5.195
 3936TIP3    H211766   1.796   6.977   5.313
 3937TIP3   OH211767   7.072   1.197   5.820
 3937TIP3    H111768   7.086   1.291   5.806
 3937TIP3    H211769   7.008   1.193   5.891
 3938TIP3   OH211770   2.764   2.931   2.875
 3938TIP3    H111771   2.820   2.906   2.802
 3938TIP3    H211772   2.751   3.026   2.864
 3939TIP3   OH211773   5.336   5.724   2.480
 3939TIP3    H111774   5.365   5.750   2.568
 3939TIP3    H211775   5.336   5.806   2.430
 3940TIP3   OH211776   3.590   4.507   0.915
 3940TIP3    H111777   3.524   4.443   0.889
 3940TIP3    H211778   3.666   4.455   0.941
 3941TIP3   OH211779   8.227   0.216   0.613
 3941TIP3    H111780   8.217   0.193   0.520
 3941TIP3    H211781   8.153   0.174   0.657
 3942TIP3   OH211782   4.378   3.199   1.674
 3942TIP3    H111783   4.406   3.219   1.763
 3942TIP3    H211784   4.453   3.155   1.634
 3943TIP3   OH211785   6.461   2.407   1.238
 3943TIP3    H111786   6.512   2.414   1.319
 3943TIP3    H211787   6.519   2.361   1.177
 3944TIP3   OH211788   4.135   5.079   6.048
 3944TIP3    H111789   4.198   5.053   5.980
 3944TIP3    H211790   4.177   5.054   6.130
 3945TIP3   OH211791   3.810   2.555   4.493
 3945TIP3    H111792   3.831   2.648   4.482
 3945TIP3    H211793   3.738   2.539   4.433
 3946TIP3   OH211794   5.119   4.592   2.704
 3946TIP3    H111795   5.092   4.633   2.622
 3946TIP3    H211796   5.173   4.518   2.678
 3947TIP3   OH211797   3.834   7.718   1.147
 3947TIP3    H111798   3.777   7.664   1.202
 3947TIP3    H211799   3.852   7.663   1.071
 3948TIP3   OH211800   4.028   2.892   0.932
 3948TIP3    H111801   3.995   2.831   0.868
 3948TIP3    H211802   4.046   2.972   0.883
 3949TIP3   OH211803   4.180   4.202   2.608
 3949TIP3    H111804   4.267   4.242   2.616
 3949TIP3    H211805   4.121   4.277   2.601
 3950TIP3   OH211806   5.552   1.357   5.698
 3950TIP3    H111807   5.517   1.275   5.731
 3950TIP3    H211808   5.475   1.407   5.671
 3951TIP3   OH211809   2.161   6.322   5.005
 3951TIP3    H111810   2.228   6.385   4.979
 3951TIP3    H211811   2.163   6.322   5.100
 3952TIP3   OH211812   7.832   6.726   0.975
 3952TIP3    H111813   7.847   6.681   0.892
 3952TIP3    H211814   7.914   6.771   0.994
 3953TIP3   OH211815   8.201   1.494   5.235
 3953TIP3    H111816   8.287   1.495   5.193
 3953TIP3    H211817   8.193   1.581   5.276
 3954TIP3   OH211818   4.241   4.667   4.024
 3954TIP3    H111819   4.319   4.640   3.977
 3954TIP3    H211820   4.270   4.680   4.114
 3955TIP3   OH211821   5.991   3.051   0.717
 3955TIP3    H111822   6.011   3.131   0.668
 3955TIP3    H211823   6.067   2.995   0.704
 3956TIP3   OH211824   1.670   2.243   6.409
 3956TIP3    H111825   1.707   2.261   6.495
 3956TIP3    H211826   1.745   2.216   6.355
 3957TIP3   OH211827   0.249   1.877   1.932
 3957TIP3    H111828   0.217   1.894   2.020
 3957TIP3    H211829   0.344   1.876   1.940
 3958TIP3   OH211830   6.475   1.111   4.545
 3958TIP3    H111831   6.543   1.142   4.605
 3958TIP3    H211832   6.408   1.074   4.602
 3959TIP3   OH211833   2.231   7.151   0.891
 3959TIP3    H111834   2.315   7.172   0.932
 3959TIP3    H211835   2.226   7.210   0.815
 3960TIP3   OH211836   4.710   5.738   3.571
 3960TIP3    H111837   4.690   5.767   3.482
 3960TIP3    H211838   4.652   5.790   3.627
 3961TIP3   OH211839   1.743   4.341   5.205
 3961TIP3    H111840   1.654   4.325   5.172
 3961TIP3    H211841   1.747   4.437   5.215
 3962TIP3   OH211842   7.270   0.464   2.613
 3962TIP3    H111843   7.283   0.369   2.624
 3962TIP3    H211844   7.184   0.480   2.650
 3963TIP3   OH211845   1.607   6.576   0.562
 3963TIP3    H111846   1.669   6.511   0.531
 3963TIP3    H211847   1.534   6.525   0.597
 3964TIP3   OH211848   1.497   1.915   6.651
 3964TIP3    H111849   1.515   1.857   6.577
 3964TIP3    H211850   1.457   1.993   6.611
 3965TIP3   OH211851   0.418   0.518   6.425
 3965TIP3    H111852   0.456   0.434   6.451
 3965TIP3    H211853   0.324   0.507   6.438
 3966TIP3   OH211854   7.699   5.549   3.576
 3966TIP3    H111855   7.618   5.533   3.624
 3966TIP3    H211856   7.761   5.484   3.609
 3967TIP3   OH211857   3.126   4.691   5.969
 3967TIP3    H111858   3.030   4.687   5.967
 3967TIP3    H211859   3.153   4.619   6.026
 3968TIP3   OH211860   4.523   3.619   4.542
 3968TIP3    H111861   4.475   3.695   4.575
 3968TIP3    H211862   4.614   3.638   4.562
 3969TIP3   OH211863   7.319   6.726   4.692
 3969TIP3    H111864   7.341   6.726   4.599
 3969TIP3    H211865   7.390   6.679   4.734
 3970TIP3   OH211866   3.634   4.935   5.890
 3970TIP3    H111867   3.706   4.929   5.953
 3970TIP3    H211868   3.557   4.953   5.944
 3971TIP3   OH211869   1.964   3.646   1.249
 3971TIP3    H111870   1.907   3.615   1.320
 3971TIP3    H211871   2.038   3.585   1.249
 3972TIP3   OH211872   7.506   7.433   6.505
 3972TIP3    H111873   7.517   7.350   6.460
 3972TIP3    H211874   7.538   7.498   6.442
 3973TIP3   OH211875   3.308   1.871   3.415
 3973TIP3    H111876   3.238   1.831   3.467
 3973TIP3    H211877   3.297   1.965   3.427
 3974TIP3   OH211878   3.686   1.572   5.270
 3974TIP3    H111879   3.616   1.508   5.259
 3974TIP3    H211880   3.707   1.600   5.181
 3975TIP3   OH211881   5.167   6.718   4.565
 3975TIP3    H111882   5.123   6.755   4.489
 3975TIP3    H211883   5.205   6.793   4.610
 3976TIP3   OH211884   3.556   5.890   3.259
 3976TIP3    H111885   3.587   5.980   3.262
 3976TIP3    H211886   3.471   5.892   3.303
 3977TIP3   OH211887   4.787   1.478   6.108
 3977TIP3    H111888   4.810   1.569   6.086
 3977TIP3    H211889   4.707   1.461   6.058
 3978TIP3   OH211890   1.754   3.693   1.051
 3978TIP3    H111891   1.823   3.758   1.038
 3978TIP3    H211892   1.801   3.611   1.068
 3979TIP3   OH211893   0.863   4.020   6.323
 3979TIP3    H111894   0.941   4.018   6.267
 3979TIP3    H211895   0.881   3.956   6.392
 3980TIP3   OH211896   4.089   1.761   0.200
 3980TIP3    H111897   4.010   1.733   0.154
 3980TIP3    H211898   4.089   1.856   0.193
 3981TIP3   OH211899   0.103   3.232   2.468
 3981TIP3    H111900   0.119   3.322   2.498
 3981TIP3    H211901   0.015   3.212   2.499
 3982TIP3   OH211902   0.434   7.783   3.132
 3982TIP3    H111903   0.443   7.843   3.058
 3982TIP3    H211904   0.523   7.769   3.163
 3983TIP3   OH211905   4.225   3.500   1.105
 3983TIP3    H111906   4.227   3.595   1.113
 3983TIP3    H211907   4.135   3.477   1.128
 3984TIP3   OH211908   5.207   3.765   2.836
 3984TIP3    H111909   5.208   3.791   2.928
 3984TIP3    H211910   5.217   3.847   2.788
 3985TIP3   OH211911   0.073   1.673   1.097
 3985TIP3    H111912   0.039   1.608   1.036
 3985TIP3    H211913   0.020   1.662   1.176
 3986TIP3   OH211914   2.383   3.231   6.526
 3986TIP3    H111915   2.294   3.207   6.552
 3986TIP3    H211916   2.372   3.293   6.454
 3987TIP3   OH211917   4.959   1.964   6.579
 3987TIP3    H111918   4.945   1.893   6.642
 3987TIP3    H211919   4.981   2.040   6.633
 3988TIP3   OH211920   6.026   4.130   2.355
 3988TIP3    H111921   5.955   4.188   2.329
 3988TIP3    H211922   6.098   4.189   2.377
 3989TIP3   OH211923   6.691   5.788   0.768
 3989TIP3    H111924   6.785   5.774   0.776
 3989TIP3    H211925   6.655   5.702   0.747
 3990TIP3   OH211926   3.755   7.102   1.374
 3990TIP3    H111927   3.689   7.079   1.440
 3990TIP3    H211928   3.739   7.039   1.303
 3991TIP3   OH211929   8.252   5.402   4.214
 3991TIP3    H111930   8.237   5.478   4.158
 3991TIP3    H211931   8.164   5.375   4.242
 3992TIP3   OH211932   6.144   4.351   4.808
 3992TIP3    H111933   6.156   4.355   4.902
 3992TIP3    H211934   6.232   4.340   4.772
 3993TIP3   OH211935   0.047   6.086   1.606
 3993TIP3    H111936   0.081   6.175   1.600
 3993TIP3    H211937   0.111   6.039   1.660
 3994TIP3   OH211938   2.626   4.432   6.504
 3994TIP3    H111939   2.628   4.476   6.419
 3994TIP3    H211940   2.718   4.432   6.532
 3995TIP3   OH211941   1.518   7.117   3.791
 3995TIP3    H111942   1.598   7.151   3.831
 3995TIP3    H211943   1.540   7.107   3.699
 3996TIP3   OH211944   0.907   0.919   3.012
 3996TIP3    H111945   0.958   0.907   3.092
 3996TIP3    H211946   0.971   0.946   2.946
 3997TIP3   OH211947   3.654   6.342   4.886
 3997TIP3    H111948   3.719   6.372   4.822
 3997TIP3    H211949   3.598   6.283   4.835
 3998TIP3   OH211950   7.056   6.900   1.387
 3998TIP3    H111951   7.127   6.940   1.437
 3998TIP3    H211952   7.018   6.836   1.447
 3999TIP3   OH211953   2.195   3.726   2.851
 3999TIP3    H111954   2.104   3.756   2.847
 3999TIP3    H211955   2.227   3.734   2.761
 4000TIP3   OH211956   0.543   7.212   0.964
 4000TIP3    H111957   0.598   7.155   1.017
 4000TIP3    H211958   0.456   7.203   1.001
 4001TIP3   OH211959   4.531   6.861   6.190
 4001TIP3    H111960   4.530   6.866   6.094
 4001TIP3    H211961   4.595   6.793   6.210
 4002TIP3   OH211962   6.397   3.419   4.259
 4002TIP3    H111963   6.428   3.500   4.219
 4002TIP3    H211964   6.380   3.360   4.186
 4003TIP3   OH211965   7.950   1.598   0.069
 4003TIP3    H111966   7.947   1.694   0.067
 4003TIP3    H211967   7.954   1.572  -0.023
 4004TIP3   OH211968   5.521   2.783   4.241
 4004TIP3    H111969   5.556   2.837   4.170
 4004TIP3    H211970   5.587   2.715   4.254
 4005TIP3   OH211971   4.602   2.041   0.792
 4005TIP3    H111972   4.691   2.011   0.808
 4005TIP3    H211973   4.606   2.086   0.707
 4006TIP3   OH211974   2.016   2.377   2.776
 4006TIP3    H111975   2.010   2.473   2.782
 4006TIP3    H211976   1.944   2.351   2.720
 4007TIP3   OH211977   8.177   0.446   0.948
 4007TIP3    H111978   8.250   0.426   0.889
 4007TIP3    H211979   8.201   0.530   0.987
 4008TIP3   OH211980   3.131   0.727   4.699
 4008TIP3    H111981   3.191   0.799   4.680
 4008TIP3    H211982   3.186   0.659   4.739
 4009TIP3   OH211983   2.129   6.403   3.806
 4009TIP3    H111984   2.085   6.319   3.818
 4009TIP3    H211985   2.178   6.417   3.887
 4010TIP3   OH211986   3.835   2.366   1.102
 4010TIP3    H111987   3.916   2.315   1.096
 4010TIP3    H211988   3.848   2.421   1.179
 4011TIP3   OH211989   1.290   4.992   0.309
 4011TIP3    H111990   1.369   4.938   0.311
 4011TIP3    H211991   1.275   5.015   0.401
 4012TIP3   OH211992   4.672   2.237   4.708
 4012TIP3    H111993   4.637   2.252   4.621
 4012TIP3    H211994   4.741   2.303   4.718
 4013TIP3   OH211995   1.991   0.720   0.202
 4013TIP3    H111996   2.044   0.776   0.145
 4013TIP3    H211997   1.975   0.773   0.280
 4014TIP3   OH211998   2.908   5.829   5.580
 4014TIP3    H111999   2.933   5.901   5.638
 4014TIP3    H212000   2.986   5.773   5.576
 4015TIP3   OH212001   6.790   2.007   1.570
 4015TIP3    H112002   6.716   2.036   1.624
 4015TIP3    H212003   6.814   1.921   1.607
 4016TIP3   OH212004   7.530   3.019   1.011
 4016TIP3    H112005   7.621   2.995   0.990
 4016TIP3    H212006   7.481   2.937   1.003
 4017TIP3   OH212007   7.478   4.655   6.360
 4017TIP3    H112008   7.476   4.611   6.275
 4017TIP3    H212009   7.506   4.744   6.340
 4018TIP3   OH212010   6.277   6.599   5.895
 4018TIP3    H112011   6.341   6.544   5.849
 4018TIP3    H212012   6.244   6.545   5.966
 4019TIP3   OH212013   6.493   7.183   2.246
 4019TIP3    H112014   6.580   7.181   2.206
 4019TIP3    H212015   6.493   7.262   2.299
 4020TIP3   OH212016   2.141   7.202   3.985
 4020TIP3    H112017   2.120   7.293   3.963
 4020TIP3    H212018   2.140   7.200   4.081
 4021TIP3   OH212019   3.719   6.877   0.882
 4021TIP3    H112020   3.715   6.781   0.885
 4021TIP3    H212021   3.663   6.901   0.809
 4022TIP3   OH212022   3.199   7.519   4.408
 4022TIP3    H112023   3.196   7.489   4.317
 4022TIP3    H212024   3.289   7.502   4.436
 4023TIP3   OH212025   3.546   0.217   2.080
 4023TIP3    H112026   3.601   0.244   2.006
 4023TIP3    H212027   3.456   0.228   2.048
 4024TIP3   OH212028   0.052   3.233   3.110
 4024TIP3    H112029   0.116   3.223   3.040
 4024TIP3    H212030   0.057   3.325   3.135
 4025TIP3   OH212031   2.766   7.485   2.843
 4025TIP3    H112032   2.679   7.482   2.804
 4025TIP3    H212033   2.797   7.394   2.840
 4026TIP3   OH212034   7.936   5.231   5.349
 4026TIP3    H112035   7.998   5.255   5.418
 4026TIP3    H212036   7.860   5.286   5.364
 4027TIP3   OH212037   2.198   1.149   3.795
 4027TIP3    H112038   2.226   1.067   3.837
 4027TIP3    H212039   2.163   1.121   3.710
 4028TIP3   OH212040   5.765   0.271   1.577
 4028TIP3    H112041   5.698   0.317   1.524
 4028TIP3    H212042   5.847   0.287   1.530
 4029TIP3   OH212043   7.358   3.406   3.948
 4029TIP3    H112044   7.430   3.394   3.886
 4029TIP3    H212045   7.302   3.472   3.906
 4030TIP3   OH212046   1.229   0.949   3.773
 4030TIP3    H112047   1.185   0.925   3.854
 4030TIP3    H212048   1.292   1.017   3.799
 4031TIP3   OH212049   7.474   5.171   6.570
 4031TIP3    H112050   7.459   5.152   6.478
 4031TIP3    H212051   7.387   5.166   6.610
 4032TIP3   OH212052   0.346   2.647   6.429
 4032TIP3    H112053   0.265   2.698   6.432
 4032TIP3    H212054   0.371   2.648   6.337
 4033TIP3   OH212055   1.808   4.683   3.033
 4033TIP3    H112056   1.728   4.631   3.021
 4033TIP3    H212057   1.782   4.772   3.010
 4034TIP3   OH212058   5.686   3.978   2.443
 4034TIP3    H112059   5.712   3.892   2.411
 4034TIP3    H212060   5.613   3.961   2.503
 4035TIP3   OH212061   4.393   4.653   0.715
 4035TIP3    H112062   4.334   4.582   0.739
 4035TIP3    H212063   4.402   4.706   0.795
 4036TIP3   OH212064   3.788   7.018   1.102
 4036TIP3    H112065   3.762   6.980   1.018
 4036TIP3    H212066   3.879   7.045   1.088
 4037TIP3   OH212067   2.512   6.492   3.841
 4037TIP3    H112068   2.501   6.568   3.783
 4037TIP3    H212069   2.527   6.418   3.782
 4038TIP3   OH212070   7.536   5.804   1.809
 4038TIP3    H112071   7.503   5.887   1.844
 4038TIP3    H212072   7.466   5.772   1.752
 4039TIP3   OH212073   5.195   4.415   5.222
 4039TIP3    H112074   5.126   4.444   5.163
 4039TIP3    H212075   5.191   4.475   5.296
 4040TIP3   OH212076   6.500   4.424   4.846
 4040TIP3    H112077   6.469   4.463   4.764
 4040TIP3    H212078   6.500   4.329   4.828
 4041TIP3   OH212079   0.391   1.054   0.879
 4041TIP3    H112080   0.473   1.081   0.837
 4041TIP3    H212081   0.405   1.070   0.972
 4042TIP3   OH212082   1.884   6.367   4.986
 4042TIP3    H112083   1.883   6.438   5.050
 4042TIP3    H212084   1.973   6.366   4.953
 4043TIP3   OH212085   5.966   0.108   5.796
 4043TIP3    H112086   5.901   0.055   5.749
 4043TIP3    H212087   6.017   0.149   5.727
 4044TIP3   OH212088   8.064   4.587   2.201
 4044TIP3    H112089   8.079   4.509   2.146
 4044TIP3    H212090   8.136   4.646   2.179
 4045TIP3   OH212091   0.998   4.425   0.471
 4045TIP3    H112092   1.029   4.417   0.561
 4045TIP3    H212093   1.038   4.352   0.425
 4046TIP3   OH212094   8.127   7.073   5.143
 4046TIP3    H112095   8.094   7.111   5.062
 4046TIP3    H212096   8.212   7.113   5.157
 4047TIP3   OH212097   6.669   1.546   5.376
 4047TIP3    H112098   6.665   1.509   5.464
 4047TIP3    H212099   6.695   1.472   5.320
 4048TIP3   OH212100   7.485   2.794   6.251
 4048TIP3    H112101   7.430   2.771   6.175
 4048TIP3    H212102   7.573   2.767   6.225
 4049TIP3   OH212103   4.673   1.172   4.471
 4049TIP3    H112104   4.732   1.199   4.542
 4049TIP3    H212105   4.624   1.099   4.508
 4050TIP3   OH212106   1.528   5.892   3.563
 4050TIP3    H112107   1.603   5.921   3.512
 4050TIP3    H212108   1.556   5.811   3.605
 4051TIP3   OH212109   0.880   0.776   2.733
 4051TIP3    H112110   0.890   0.870   2.716
 4051TIP3    H212111   0.896   0.767   2.827
 4052TIP3   OH212112   5.214   4.329   1.391
 4052TIP3    H112113   5.205   4.233   1.386
 4052TIP3    H212114   5.305   4.342   1.417
 4053TIP3   OH212115   7.896   1.675   0.404
 4053TIP3    H112116   7.849   1.727   0.339
 4053TIP3    H212117   7.919   1.594   0.358
 4054TIP3   OH212118   7.564   5.853   2.961
 4054TIP3    H112119   7.601   5.942   2.960
 4054TIP3    H212120   7.618   5.805   3.024
 4055TIP3   OH212121   7.903   5.694   2.205
 4055TIP3    H112122   7.867   5.725   2.122
 4055TIP3    H212123   7.894   5.599   2.201
 4056TIP3   OH212124   3.529   3.816   2.978
 4056TIP3    H112125   3.595   3.852   3.038
 4056TIP3    H212126   3.575   3.811   2.894
 4057TIP3   OH212127   5.577   3.062   2.086
 4057TIP3    H112128   5.596   3.142   2.036
 4057TIP3    H212129   5.551   2.998   2.021
 4058TIP3   OH212130   1.791   3.260   5.521
 4058TIP3    H112131   1.885   3.241   5.511
 4058TIP3    H212132   1.783   3.296   5.609
 4059TIP3   OH212133   7.105   1.262   0.503
 4059TIP3    H112134   7.024   1.211   0.498
 4059TIP3    H212135   7.152   1.225   0.578
 4060TIP3   OH212136   1.083   7.165   2.993
 4060TIP3    H112137   1.062   7.161   3.086
 4060TIP3    H212138   1.174   7.135   2.988
 4061TIP3   OH212139   6.897   4.901   6.199
 4061TIP3    H112140   6.923   4.968   6.262
 4061TIP3    H212141   6.961   4.831   6.210
 4062TIP3   OH212142   8.162   7.739   0.040
 4062TIP3    H112143   8.089   7.787   0.079
 4062TIP3    H212144   8.233   7.803   0.035
 4063TIP3   OH212145   5.819   2.775   1.917
 4063TIP3    H112146   5.870   2.706   1.875
 4063TIP3    H212147   5.884   2.840   1.943
 4064TIP3   OH212148   2.771   7.429   4.905
 4064TIP3    H112149   2.856   7.453   4.942
 4064TIP3    H212150   2.780   7.336   4.884
 4065TIP3   OH212151   0.515   2.671   3.750
 4065TIP3    H112152   0.592   2.614   3.747
 4065TIP3    H212153   0.545   2.749   3.797
 4066TIP3   OH212154   2.617   4.399   2.957
 4066TIP3    H112155   2.698   4.361   2.990
 4066TIP3    H212156   2.595   4.467   3.021
 4067TIP3   OH212157   4.209   5.161   1.703
 4067TIP3    H112158   4.119   5.191   1.693
 4067TIP3    H212159   4.257   5.205   1.633
 4068TIP3   OH212160   1.978   2.969   6.249
 4068TIP3    H112161   2.006   2.909   6.180
 4068TIP3    H212162   1.942   2.912   6.317
 4069TIP3   OH212163   2.279   4.077   2.419
 4069TIP3    H112164   2.287   4.069   2.514
 4069TIP3    H212165   2.185   4.088   2.404
 4070TIP3   OH212166   3.399   6.223   2.652
 4070TIP3    H112167   3.431   6.179   2.573
 4070TIP3    H212168   3.328   6.166   2.683
 4071TIP3   OH212169   5.559   3.059   2.962
 4071TIP3    H112170   5.530   2.978   3.005
 4071TIP3    H212171   5.561   3.124   3.032
 4072TIP3   OH212172   5.763   0.046   2.623
 4072TIP3    H112173   5.762   0.053   2.527
 4072TIP3    H212174   5.761  -0.048   2.641
 4073TIP3   OH212175   1.402   2.636   1.665
 4073TIP3    H112176   1.403   2.690   1.587
 4073TIP3    H212177   1.494   2.616   1.682
 4074TIP3   OH212178   7.375   0.997   3.760
 4074TIP3    H112179   7.373   0.954   3.675
 4074TIP3    H212180   7.461   0.975   3.796
 4075TIP3   OH212181   6.006   5.709   2.222
 4075TIP3    H112182   5.918   5.727   2.257
 4075TIP3    H212183   6.002   5.739   2.131
 4076TIP3   OH212184   4.172   1.028   4.282
 4076TIP3    H112185   4.225   0.956   4.315
 4076TIP3    H212186   4.116   0.988   4.216
 4077TIP3   OH212187   7.932   5.484   1.889
 4077TIP3    H112188   7.938   5.577   1.866
 4077TIP3    H212189   7.943   5.483   1.984
 4078TIP3   OH212190   6.114   5.506   6.701
 4078TIP3    H112191   6.126   5.433   6.762
 4078TIP3    H212192   6.202   5.542   6.690
 4079TIP3   OH212193   7.066   2.676   2.631
 4079TIP3    H112194   6.990   2.620   2.649
 4079TIP3    H212195   7.033   2.744   2.573
 4080TIP3   OH212196   5.602   3.481   2.967
 4080TIP3    H112197   5.666   3.450   3.032
 4080TIP3    H212198   5.552   3.548   3.014
 4081TIP3   OH212199   6.766   6.437   5.674
 4081TIP3    H112200   6.808   6.360   5.713
 4081TIP3    H212201   6.839   6.485   5.633
 4082TIP3   OH212202   5.975   4.282   1.603
 4082TIP3    H112203   5.896   4.230   1.619
 4082TIP3    H212204   5.970   4.304   1.510
 4083TIP3   OH212205   2.343   0.428   0.532
 4083TIP3    H112206   2.304   0.478   0.604
 4083TIP3    H212207   2.268   0.393   0.484
 4084TIP3   OH212208   2.524   1.642   1.699
 4084TIP3    H112209   2.596   1.686   1.745
 4084TIP3    H212210   2.479   1.713   1.653
 4085TIP3   OH212211   1.004   1.033   2.752
 4085TIP3    H112212   1.000   1.067   2.662
 4085TIP3    H212213   1.093   1.053   2.781
 4086TIP3   OH212214   7.437   0.617   5.265
 4086TIP3    H112215   7.368   0.565   5.305
 4086TIP3    H212216   7.516   0.596   5.315
 4087TIP3   OH212217   4.512   0.994   4.646
 4087TIP3    H112218   4.424   1.002   4.611
 4087TIP3    H212219   4.541   0.906   4.620
 4088TIP3   OH212220   1.024   1.064   3.323
 4088TIP3    H112221   0.930   1.049   3.334
 4088TIP3    H212222   1.030   1.135   3.259
 4089TIP3   OH212223   2.947   5.201   2.764
 4089TIP3    H112224   3.009   5.218   2.835
 4089TIP3    H212225   2.881   5.269   2.774
 4090TIP3   OH212226   7.306   7.546   4.173
 4090TIP3    H112227   7.301   7.530   4.079
 4090TIP3    H212228   7.312   7.641   4.182
 4091TIP3   OH212229   5.185   5.712   0.228
 4091TIP3    H112230   5.211   5.754   0.310
 4091TIP3    H212231   5.110   5.658   0.252
 4092TIP3   OH212232   6.136   2.228   4.979
 4092TIP3    H112233   6.109   2.170   4.908
 4092TIP3    H212234   6.118   2.177   5.059
 4093TIP3   OH212235   2.454   2.656   5.821
 4093TIP3    H112236   2.382   2.693   5.770
 4093TIP3    H212237   2.493   2.732   5.864
 4094TIP3   OH212238   2.387   4.399   1.202
 4094TIP3    H112239   2.403   4.459   1.129
 4094TIP3    H212240   2.464   4.409   1.257
 4095TIP3   OH212241   0.702   3.773   1.856
 4095TIP3    H112242   0.643   3.776   1.931
 4095TIP3    H212243   0.652   3.811   1.785
 4096TIP3   OH212244   5.904   1.883   4.124
 4096TIP3    H112245   5.818   1.862   4.158
 4096TIP3    H212246   5.941   1.799   4.097
 4097TIP3   OH212247   7.258   3.244   1.513
 4097TIP3    H112248   7.258   3.278   1.423
 4097TIP3    H212249   7.249   3.321   1.568
 4098TIP3   OH212250   1.979   4.119   1.400
 4098TIP3    H112251   2.029   4.074   1.468
 4098TIP3    H212252   2.044   4.167   1.349
 4099TIP3   OH212253   1.662   5.203   4.358
 4099TIP3    H112254   1.619   5.270   4.304
 4099TIP3    H212255   1.708   5.253   4.425
 4100TIP3   OH212256   0.631   3.141   5.998
 4100TIP3    H112257   0.625   3.103   6.086
 4100TIP3    H212258   0.630   3.236   6.013
 4101TIP3   OH212259   6.757   6.800   2.907
 4101TIP3    H112260   6.844   6.780   2.944
 4101TIP3    H212261   6.723   6.715   2.879
 4102TIP3   OH212262   3.681   5.646   1.785
 4102TIP3    H112263   3.682   5.739   1.761
 4102TIP3    H212264   3.771   5.617   1.770
 4103TIP3   OH212265   8.193   0.741   3.040
 4103TIP3    H112266   8.136   0.760   2.965
 4103TIP3    H212267   8.280   0.771   3.011
 4104TIP3   OH212268   3.053   5.245   1.746
 4104TIP3    H112269   3.095   5.193   1.678
 4104TIP3    H212270   3.048   5.333   1.708
 4105TIP3   OH212271   4.283   5.118   0.325
 4105TIP3    H112272   4.197   5.159   0.323
 4105TIP3    H212273   4.309   5.123   0.417
 4106TIP3   OH212274   1.449   4.730   0.073
 4106TIP3    H112275   1.513   4.749   0.141
 4106TIP3    H212276   1.462   4.798   0.007
 4107TIP3   OH212277   6.047   4.274   4.548
 4107TIP3    H112278   6.067   4.290   4.640
 4107TIP3    H212279   6.032   4.361   4.511
 4108TIP3   OH212280   0.867   0.494   5.218
 4108TIP3    H112281   0.812   0.417   5.208
 4108TIP3    H212282   0.954   0.465   5.193
 4109TIP3   OH212283   5.368   3.239   0.673
 4109TIP3    H112284   5.357   3.198   0.587
 4109TIP3    H212285   5.445   3.197   0.709
 4110TIP3   OH212286   1.022   6.530   0.327
 4110TIP3    H112287   0.993   6.560   0.241
 4110TIP3    H212288   0.949   6.549   0.385
 4111TIP3   OH212289   0.385   0.170   4.444
 4111TIP3    H112290   0.293   0.146   4.459
 4111TIP3    H212291   0.395   0.166   4.349
 4112TIP3   OH212292   6.382   6.629   0.322
 4112TIP3    H112293   6.370   6.718   0.357
 4112TIP3    H212294   6.367   6.572   0.397
 4113TIP3   OH212295   4.518   2.741   1.563
 4113TIP3    H112296   4.423   2.730   1.557
 4113TIP3    H212297   4.535   2.748   1.656
 4114TIP3   OH212298   2.621   7.771   1.944
 4114TIP3    H112299   2.661   7.798   1.861
 4114TIP3    H212300   2.649   7.681   1.956
 4115TIP3   OH212301   6.912   6.684   2.664
 4115TIP3    H112302   6.980   6.706   2.601
 4115TIP3    H212303   6.833   6.670   2.612
 4116TIP3   OH212304   8.068   5.207   1.033
 4116TIP3    H112305   8.036   5.291   1.066
 4116TIP3    H212306   8.154   5.197   1.074
 4117TIP3   OH212307   3.173   6.625   5.978
 4117TIP3    H112308   3.207   6.588   5.897
 4117TIP3    H212309   3.091   6.577   5.994
 4118TIP3   OH212310   0.264   6.252   0.722
 4118TIP3    H112311   0.213   6.308   0.782
 4118TIP3    H212312   0.334   6.216   0.776
 4119TIP3   OH212313   0.054   5.162   1.314
 4119TIP3    H112314   0.027   5.202   1.396
 4119TIP3    H212315   0.027   5.071   1.320
 4120TIP3   OH212316   5.278   1.520   1.667
 4120TIP3    H112317   5.282   1.542   1.574
 4120TIP3    H212318   5.185   1.526   1.689
 4121TIP3   OH212319   3.220   5.692   0.017
 4121TIP3    H112320   3.204   5.769   0.072
 4121TIP3    H212321   3.172   5.710  -0.063
 4122TIP3   OH212322   7.566   5.513   3.127
 4122TIP3    H112323   7.643   5.531   3.182
 4122TIP3    H212324   7.598   5.524   3.038
 4123TIP3   OH212325   2.671   1.396   5.058
 4123TIP3    H112326   2.717   1.339   5.120
 4123TIP3    H212327   2.580   1.368   5.063
 4124TIP3   OH212328   0.611   7.736   2.571
 4124TIP3    H112329   0.632   7.738   2.478
 4124TIP3    H212330   0.591   7.644   2.589
 4125TIP3   OH212331   5.993   2.270   4.485
 4125TIP3    H112332   5.973   2.323   4.408
 4125TIP3    H212333   6.033   2.190   4.450
 4126TIP3   OH212334   1.548   1.788   0.509
 4126TIP3    H112335   1.490   1.712   0.517
 4126TIP3    H212336   1.532   1.839   0.588
 4127TIP3   OH212337   5.122   4.850   6.224
 4127TIP3    H112338   5.045   4.870   6.277
 4127TIP3    H212339   5.116   4.910   6.150
 4128TIP3   OH212340   3.643   5.339   1.252
 4128TIP3    H112341   3.588   5.362   1.178
 4128TIP3    H212342   3.728   5.377   1.232
 4129TIP3   OH212343   1.297   2.440   1.510
 4129TIP3    H112344   1.347   2.442   1.428
 4129TIP3    H212345   1.327   2.517   1.558
 4130TIP3   OH212346   4.975   0.933   2.296
 4130TIP3    H112347   4.943   0.899   2.212
 4130TIP3    H212348   5.010   1.020   2.274
 4131TIP3   OH212349   6.487   6.510   5.728
 4131TIP3    H112350   6.438   6.428   5.722
 4131TIP3    H212351   6.565   6.495   5.674
 4132TIP3   OH212352   4.654   2.490   2.670
 4132TIP3    H112353   4.746   2.487   2.645
 4132TIP3    H212354   4.626   2.578   2.645
 4133TIP3   OH212355   6.258   4.659   2.720
 4133TIP3    H112356   6.312   4.687   2.794
 4133TIP3    H212357   6.192   4.728   2.710
 4134TIP3   OH212358   2.099   0.944   2.933
 4134TIP3    H112359   2.132   0.949   2.844
 4134TIP3    H212360   2.005   0.927   2.923
 4135TIP3   OH212361   6.039   3.527   0.928
 4135TIP3    H112362   6.099   3.540   0.854
 4135TIP3    H212363   5.957   3.568   0.900
 4136TIP3   OH212364   1.020   0.026   5.987
 4136TIP3    H112365   1.022   0.070   6.072
 4136TIP3    H212366   0.930  -0.005   5.978
 4137TIP3   OH212367   4.515   5.983   6.446
 4137TIP3    H112368   4.457   5.995   6.520
 4137TIP3    H212369   4.592   5.939   6.483
 4138TIP3   OH212370   6.168   5.820   0.792
 4138TIP3    H112371   6.114   5.876   0.849
 4138TIP3    H212372   6.241   5.793   0.848
 4139TIP3   OH212373   5.346   3.602   1.677
 4139TIP3    H112374   5.323   3.687   1.640
 4139TIP3    H212375   5.263   3.563   1.703
 4140TIP3   OH212376   5.817   6.120   2.157
 4140TIP3    H112377   5.747   6.083   2.211
 4140TIP3    H212378   5.895   6.118   2.213
 4141TIP3   OH212379   0.841   2.403   3.427
 4141TIP3    H112380   0.765   2.385   3.372
 4141TIP3    H212381   0.900   2.329   3.412
 4142TIP3   OH212382   6.509   3.180   0.812
 4142TIP3    H112383   6.525   3.153   0.902
 4142TIP3    H212384   6.420   3.217   0.813
 4143TIP3   OH212385   1.838   7.688   2.730
 4143TIP3    H112386   1.842   7.673   2.636
 4143TIP3    H212387   1.853   7.782   2.740
 4144TIP3   OH212388   7.513   3.069   1.561
 4144TIP3    H112389   7.429   3.082   1.518
 4144TIP3    H212390   7.540   3.157   1.589
 4145TIP3   OH212391   4.831   4.924   1.731
 4145TIP3    H112392   4.764   4.887   1.788
 4145TIP3    H212393   4.870   4.995   1.783
 4146TIP3   OH212394   1.697   2.751   0.531
 4146TIP3    H112395   1.615   2.708   0.508
 4146TIP3    H212396   1.673   2.843   0.543
 4147TIP3   OH212397   7.641   1.364   4.228
 4147TIP3    H112398   7.622   1.289   4.284
 4147TIP3    H212399   7.603   1.342   4.143
 4148TIP3   OH212400   0.552   2.462   0.055
 4148TIP3    H112401   0.580   2.494  -0.031
 4148TIP3    H212402   0.563   2.537   0.113
 4149TIP3   OH212403   1.706   3.242   1.443
 4149TIP3    H112404   1.650   3.270   1.370
 4149TIP3    H212405   1.754   3.167   1.408
 4150TIP3   OH212406   7.094   4.967   6.592
 4150TIP3    H112407   7.140   5.050   6.601
 4150TIP3    H212408   7.029   4.982   6.523
 4151TIP3   OH212409   6.848   0.291   0.595
 4151TIP3    H112410   6.820   0.351   0.663
 4151TIP3    H212411   6.944   0.297   0.596
 4152TIP3   OH212412   3.101   0.515   4.076
 4152TIP3    H112413   3.177   0.571   4.062
 4152TIP3    H212414   3.030   0.577   4.097
 4153TIP3   OH212415   7.005   7.732   1.098
 4153TIP3    H112416   6.935   7.753   1.037
 4153TIP3    H212417   7.039   7.817   1.125
 4154TIP3   OH212418   0.218   0.805   4.007
 4154TIP3    H112419   0.252   0.715   4.010
 4154TIP3    H212420   0.212   0.826   3.914
 4155TIP3   OH212421   3.764   2.989   0.645
 4155TIP3    H112422   3.844   3.001   0.696
 4155TIP3    H212423   3.785   3.022   0.558
 4156TIP3   OH212424   4.430   1.635   3.433
 4156TIP3    H112425   4.498   1.678   3.485
 4156TIP3    H212426   4.432   1.681   3.349
 4157TIP3   OH212427   3.363   6.797   0.874
 4157TIP3    H112428   3.279   6.766   0.907
 4157TIP3    H212429   3.378   6.748   0.794
 4158TIP3   OH212430   0.075   0.486   1.782
 4158TIP3    H112431   0.161   0.496   1.742
 4158TIP3    H212432   0.090   0.433   1.860
 4159TIP3   OH212433   5.138   0.126   3.597
 4159TIP3    H112434   5.215   0.161   3.552
 4159TIP3    H212435   5.157   0.140   3.690
 4160TIP3   OH212436   6.176   0.940   5.568
 4160TIP3    H112437   6.242   0.907   5.628
 4160TIP3    H212438   6.166   0.870   5.502
 4161TIP3   OH212439   1.140   2.709   1.817
 4161TIP3    H112440   1.120   2.803   1.812
 4161TIP3    H212441   1.225   2.700   1.773
 4162TIP3   OH212442   4.523   5.148   4.938
 4162TIP3    H112443   4.478   5.116   4.860
 4162TIP3    H212444   4.603   5.189   4.905
 4163TIP3   OH212445   2.866   5.915   2.018
 4163TIP3    H112446   2.802   5.984   2.035
 4163TIP3    H212447   2.930   5.923   2.089
 4164TIP3   OH212448   0.173   2.456   6.553
 4164TIP3    H112449   0.115   2.526   6.583
 4164TIP3    H212450   0.261   2.493   6.562
 4165TIP3   OH212451   5.995   2.511   3.494
 4165TIP3    H112452   6.033   2.497   3.581
 4165TIP3    H212453   6.002   2.426   3.451
 4166TIP3   OH212454   0.567   5.057   2.151
 4166TIP3    H112455   0.518   5.047   2.233
 4166TIP3    H212456   0.644   5.001   2.162
 4167TIP3   OH212457   8.128   3.257   2.875
 4167TIP3    H112458   8.068   3.196   2.919
 4167TIP3    H212459   8.138   3.329   2.937
 4168TIP3   OH212460   0.914   6.719   5.915
 4168TIP3    H112461   1.006   6.704   5.938
 4168TIP3    H212462   0.912   6.809   5.884
 4169TIP3   OH212463   4.147   5.125   0.938
 4169TIP3    H112464   4.121   5.076   0.860
 4169TIP3    H212465   4.185   5.059   0.996
 4170TIP3   OH212466   6.124   0.140   6.188
 4170TIP3    H112467   6.138   0.062   6.241
 4170TIP3    H212468   6.190   0.135   6.119
 4171TIP3   OH212469   4.105   0.349   1.519
 4171TIP3    H112470   4.098   0.445   1.514
 4171TIP3    H212471   4.017   0.318   1.501
 4172TIP3   OH212472   3.187   5.849   3.731
 4172TIP3    H112473   3.269   5.898   3.729
 4172TIP3    H212474   3.122   5.911   3.699
 4173TIP3   OH212475   4.866   5.939   1.960
 4173TIP3    H112476   4.954   5.946   1.998
 4173TIP3    H212477   4.873   5.867   1.897
 4174TIP3   OH212478   3.090   5.881   5.979
 4174TIP3    H112479   3.083   5.786   5.989
 4174TIP3    H212480   3.038   5.901   5.901
 4175TIP3   OH212481   0.764   2.698   4.572
 4175TIP3    H112482   0.785   2.792   4.576
 4175TIP3    H212483   0.808   2.660   4.648
 4176TIP3   OH212484   0.853   1.683   5.228
 4176TIP3    H112485   0.883   1.766   5.266
 4176TIP3    H212486   0.762   1.700   5.203
 4177TIP3   OH212487   4.674   0.076   1.285
 4177TIP3    H112488   4.698   0.126   1.206
 4177TIP3    H212489   4.595   0.118   1.316
 4178TIP3   OH212490   8.097   2.642   1.193
 4178TIP3    H112491   8.128   2.730   1.171
 4178TIP3    H212492   8.051   2.653   1.276
 4179TIP3   OH212493   1.985   5.343   3.949
 4179TIP3    H112494   2.044   5.364   4.021
 4179TIP3    H212495   1.930   5.273   3.983
 4180TIP3   OH212496   1.636   0.777   0.533
 4180TIP3    H112497   1.618   0.783   0.439
 4180TIP3    H212498   1.549   0.774   0.574
 4181TIP3   OH212499   1.958   1.356   1.834
 4181TIP3    H112500   1.987   1.305   1.758
 4181TIP3    H212501   1.942   1.291   1.902
 4182TIP3   OH212502   7.484   4.863   1.945
 4182TIP3    H112503   7.418   4.835   1.881
 4182TIP3    H212504   7.457   4.951   1.970
 4183TIP3   OH212505   3.801   7.325   4.755
 4183TIP3    H112506   3.713   7.334   4.718
 4183TIP3    H212507   3.793   7.255   4.820
 4184TIP3   OH212508   6.292   2.076   3.834
 4184TIP3    H112509   6.198   2.060   3.841
 4184TIP3    H212510   6.316   2.113   3.918
 4185TIP3   OH212511   0.924   5.569   1.701
 4185TIP3    H112512   0.932   5.501   1.767
 4185TIP3    H212513   0.985   5.637   1.729
 4186TIP3   OH212514   1.436   7.720   1.973
 4186TIP3    H112515   1.473   7.663   2.040
 4186TIP3    H212516   1.507   7.780   1.951
 4187TIP3   OH212517   7.396   6.751   6.339
 4187TIP3    H112518   7.416   6.790   6.254
 4187TIP3    H212519   7.314   6.793   6.366
 4188TIP3   OH212520   4.365   3.489   6.732
 4188TIP3    H112521   4.380   3.499   6.826
 4188TIP3    H212522   4.452   3.470   6.696
 4189TIP3   OH212523   2.772   0.106   5.898
 4189TIP3    H112524   2.731   0.134   5.980
 4189TIP3    H212525   2.702   0.060   5.852
 4190TIP3   OH212526   5.168   4.183   0.493
 4190TIP3    H112527   5.188   4.139   0.410
 4190TIP3    H212528   5.163   4.112   0.557
 4191TIP3   OH212529   4.969   7.272   0.447
 4191TIP3    H112530   4.987   7.193   0.397
 4191TIP3    H212531   5.053   7.319   0.449
 4192TIP3   OH212532   3.109   5.005   1.263
 4192TIP3    H112533   3.146   4.922   1.292
 4192TIP3    H212534   3.183   5.052   1.223
 4193TIP3   OH212535   6.827   0.857   3.161
 4193TIP3    H112536   6.845   0.907   3.241
 4193TIP3    H212537   6.804   0.769   3.193
 4194TIP3   OH212538   3.631   3.988   1.652
 4194TIP3    H112539   3.697   4.056   1.641
 4194TIP3    H212540   3.681   3.909   1.673
 4195TIP3   OH212541   6.483   3.118   5.475
 4195TIP3    H112542   6.456   3.039   5.522
 4195TIP3    H212543   6.577   3.106   5.461
 4196TIP3   OH212544   3.040   1.630   1.675
 4196TIP3    H112545   3.130   1.647   1.649
 4196TIP3    H212546   2.997   1.716   1.671
 4197TIP3   OH212547   2.910   1.661   2.869
 4197TIP3    H112548   2.998   1.639   2.900
 4197TIP3    H212549   2.875   1.578   2.837
 4198TIP3   OH212550   1.177   4.743   6.425
 4198TIP3    H112551   1.144   4.779   6.343
 4198TIP3    H212552   1.099   4.736   6.481
 4199TIP3   OH212553   7.080   5.521   5.232
 4199TIP3    H112554   7.129   5.484   5.305
 4199TIP3    H212555   7.013   5.456   5.213
 4200TIP3   OH212556   2.939   5.482   0.463
 4200TIP3    H112557   2.976   5.538   0.394
 4200TIP3    H212558   2.939   5.395   0.424
 4201TIP3   OH212559   4.208   2.460   5.051
 4201TIP3    H112560   4.279   2.522   5.032
 4201TIP3    H212561   4.251   2.375   5.056
 4202TIP3   OH212562   4.559   6.826   5.934
 4202TIP3    H112563   4.654   6.813   5.935
 4202TIP3    H212564   4.533   6.809   5.844
 4203TIP3   OH212565   3.372   4.191   0.568
 4203TIP3    H112566   3.292   4.240   0.589
 4203TIP3    H212567   3.362   4.108   0.613
 4204TIP3   OH212568   0.481   3.279   5.018
 4204TIP3    H112569   0.409   3.245   5.071
 4204TIP3    H212570   0.539   3.321   5.082
 4205TIP3   OH212571   1.643   2.469   2.413
 4205TIP3    H112572   1.586   2.423   2.350
 4205TIP3    H212573   1.643   2.560   2.384
 4206TIP3   OH212574   4.936   3.186   5.710
 4206TIP3    H112575   4.989   3.197   5.789
 4206TIP3    H212576   4.868   3.253   5.718
 4207TIP3   OH212577   2.482   0.190   6.306
 4207TIP3    H112578   2.489   0.285   6.316
 4207TIP3    H212579   2.524   0.154   6.384
 4208TIP3   OH212580   6.828   5.665   2.011
 4208TIP3    H112581   6.770   5.649   1.937
 4208TIP3    H212582   6.878   5.584   2.021
 4209TIP3   OH212583   5.334   5.500   1.138
 4209TIP3    H112584   5.375   5.521   1.054
 4209TIP3    H212585   5.246   5.469   1.114
 4210TIP3   OH212586   6.224   3.506   3.192
 4210TIP3    H112587   6.236   3.441   3.261
 4210TIP3    H212588   6.178   3.460   3.122
 4211TIP3   OH212589   3.433   1.307   0.538
 4211TIP3    H112590   3.375   1.233   0.556
 4211TIP3    H212591   3.498   1.304   0.608
 4212TIP3   OH212592   4.465   1.830   1.033
 4212TIP3    H112593   4.530   1.761   1.022
 4212TIP3    H212594   4.443   1.828   1.126
 4213TIP3   OH212595   7.066   6.014   4.636
 4213TIP3    H112596   7.143   6.007   4.580
 4213TIP3    H212597   7.083   5.951   4.707
 4214TIP3   OH212598   4.156   4.942   4.865
 4214TIP3    H112599   4.173   4.880   4.794
 4214TIP3    H212600   4.240   4.950   4.910
 4215TIP3   OH212601   6.917   3.921   5.339
 4215TIP3    H112602   6.843   3.867   5.311
 4215TIP3    H212603   6.962   3.944   5.258
 4216TIP3   OH212604   7.292   0.750   6.690
 4216TIP3    H112605   7.363   0.795   6.644
 4216TIP3    H212606   7.214   0.802   6.673
 4217TIP3   OH212607   7.138   2.750   1.637
 4217TIP3    H112608   7.186   2.677   1.599
 4217TIP3    H212609   7.155   2.823   1.577
 4218TIP3   OH212610   0.177   3.217   5.771
 4218TIP3    H112611   0.118   3.145   5.793
 4218TIP3    H212612   0.162   3.232   5.677
 4219TIP3   OH212613   4.186   4.248   3.749
 4219TIP3    H112614   4.178   4.279   3.659
 4219TIP3    H212615   4.106   4.197   3.764
 4220TIP3   OH212616   5.134   0.645   0.527
 4220TIP3    H112617   5.215   0.626   0.479
 4220TIP3    H212618   5.100   0.725   0.487
 4221TIP3   OH212619   8.198   0.629   0.670
 4221TIP3    H112620   8.210   0.718   0.703
 4221TIP3    H212621   8.269   0.579   0.709
 4222TIP3   OH212622   7.331   5.232   2.024
 4222TIP3    H112623   7.262   5.167   2.011
 4222TIP3    H212624   7.341   5.237   2.119
 4223TIP3   OH212625   2.474   7.197   3.643
 4223TIP3    H112626   2.395   7.166   3.600
 4223TIP3    H212627   2.537   7.125   3.633
 4224TIP3   OH212628   6.532   6.238   5.555
 4224TIP3    H112629   6.482   6.160   5.532
 4224TIP3    H212630   6.578   6.215   5.635
 4225TIP3   OH212631   0.785   7.498   1.268
 4225TIP3    H112632   0.820   7.412   1.246
 4225TIP3    H212633   0.695   7.481   1.295
 4226TIP3   OH212634   6.033   0.690   4.036
 4226TIP3    H112635   6.000   0.603   4.014
 4226TIP3    H212636   6.039   0.690   4.132
 4227TIP3   OH212637   7.611   6.878   5.161
 4227TIP3    H112638   7.547   6.858   5.092
 4227TIP3    H212639   7.560   6.923   5.228
 4228TIP3   OH212640   3.397   2.782   0.519
 4228TIP3    H112641   3.333   2.827   0.575
 4228TIP3    H212642   3.456   2.738   0.581
 4229TIP3   OH212643   5.668   1.773   1.875
 4229TIP3    H112644   5.762   1.774   1.894
 4229TIP3    H212645   5.651   1.685   1.843
 4230TIP3   OH212646   6.917   1.928   1.964
 4230TIP3    H112647   6.973   1.946   1.888
 4230TIP3    H212648   6.952   1.985   2.033
 4231TIP3   OH212649   1.313   0.536   3.824
 4231TIP3    H112650   1.243   0.523   3.761
 4231TIP3    H212651   1.310   0.458   3.879
 4232TIP3   OH212652   5.853   7.534   5.265
 4232TIP3    H112653   5.865   7.443   5.293
 4232TIP3    H212654   5.828   7.580   5.345
 4233TIP3   OH212655   4.183   7.494   6.233
 4233TIP3    H112656   4.153   7.524   6.148
 4233TIP3    H212657   4.236   7.416   6.214
 4234TIP3   OH212658   6.020   7.310   5.106
 4234TIP3    H112659   5.942   7.331   5.156
 4234TIP3    H212660   6.037   7.389   5.054
 4235TIP3   OH212661   0.650   4.293   2.841
 4235TIP3    H112662   0.574   4.262   2.793
 4235TIP3    H212663   0.631   4.385   2.862
 4236TIP3   OH212664   0.202   3.214   0.546
 4236TIP3    H112665   0.192   3.119   0.546
 4236TIP3    H212666   0.156   3.243   0.624
 4237TIP3   OH212667   6.168   4.114   0.376
 4237TIP3    H112668   6.248   4.076   0.412
 4237TIP3    H212669   6.154   4.066   0.294
 4238TIP3   OH212670   2.938   4.504   0.534
 4238TIP3    H112671   2.872   4.573   0.540
 4238TIP3    H212672   2.896   4.435   0.483
 4239TIP3   OH212673   8.029   1.060   2.350
 4239TIP3    H112674   8.027   1.150   2.382
 4239TIP3    H212675   7.938   1.037   2.333
 4240TIP3   OH212676   7.056   6.395   4.003
 4240TIP3    H112677   6.998   6.463   3.971
 4240TIP3    H212678   7.131   6.397   3.943
 4241TIP3   OH212679   5.688   7.361   5.930
 4241TIP3    H112680   5.724   7.285   5.976
 4241TIP3    H212681   5.741   7.435   5.959
 4242TIP3   OH212682   0.880   3.337   0.202
 4242TIP3    H112683   0.972   3.365   0.203
 4242TIP3    H212684   0.849   3.360   0.115
 4243TIP3   OH212685   4.833   1.424   4.283
 4243TIP3    H112686   4.821   1.462   4.196
 4243TIP3    H212687   4.744   1.411   4.316
 4244TIP3   OH212688   2.061   0.787   0.690
 4244TIP3    H112689   2.098   0.775   0.777
 4244TIP3    H212690   2.093   0.713   0.639
 4245TIP3   OH212691   7.979   0.442   2.690
 4245TIP3    H112692   7.885   0.459   2.701
 4245TIP3    H212693   7.984   0.384   2.614
 4246TIP3   OH212694   3.312   4.872   3.395
 4246TIP3    H112695   3.276   4.786   3.419
 4246TIP3    H212696   3.236   4.923   3.369
 4247TIP3   OH212697   7.940   0.861   0.845
 4247TIP3    H112698   8.030   0.870   0.814
 4247TIP3    H212699   7.896   0.941   0.815
 4248TIP3   OH212700   7.440   2.817   2.515
 4248TIP3    H112701   7.364   2.875   2.516
 4248TIP3    H212702   7.516   2.875   2.508
 4249TIP3   OH212703   1.594   6.811   6.061
 4249TIP3    H112704   1.666   6.768   6.013
 4249TIP3    H212705   1.552   6.867   5.996
 4250TIP3   OH212706   2.821   5.480   0.057
 4250TIP3    H112707   2.916   5.483   0.044
 4250TIP3    H212708   2.788   5.434  -0.020
 4251TIP3   OH212709   2.489   0.128   5.676
 4251TIP3    H112710   2.422   0.197   5.676
 4251TIP3    H212711   2.560   0.164   5.622
 4252TIP3   OH212712   3.450   5.537   0.043
 4252TIP3    H112713   3.457   5.572   0.132
 4252TIP3    H212714   3.377   5.586   0.004
 4253TIP3   OH212715   7.360   0.974   2.586
 4253TIP3    H112716   7.358   1.069   2.592
 4253TIP3    H212717   7.406   0.956   2.504
 4254TIP3   OH212718   5.543   1.340   4.775
 4254TIP3    H112719   5.483   1.307   4.842
 4254TIP3    H212720   5.489   1.395   4.719
 4255TIP3   OH212721   3.340   6.207   5.617
 4255TIP3    H112722   3.347   6.300   5.640
 4255TIP3    H212723   3.367   6.204   5.525
 4256TIP3   OH212724   6.108   1.567   5.824
 4256TIP3    H112725   6.136   1.548   5.735
 4256TIP3    H212726   6.072   1.656   5.819
 4257TIP3   OH212727   6.785   5.271   5.581
 4257TIP3    H112728   6.812   5.284   5.672
 4257TIP3    H212729   6.867   5.269   5.531
 4258TIP3   OH212730   3.538   4.135   2.626
 4258TIP3    H112731   3.614   4.192   2.614
 4258TIP3    H212732   3.463   4.195   2.623
 4259TIP3   OH212733   3.894   6.254   1.610
 4259TIP3    H112734   3.964   6.319   1.614
 4259TIP3    H212735   3.823   6.292   1.662
 4260TIP3   OH212736   0.440   6.098   1.056
 4260TIP3    H112737   0.504   6.052   1.110
 4260TIP3    H212738   0.444   6.054   0.971
 4261TIP3   OH212739   1.148   6.148   6.326
 4261TIP3    H112740   1.092   6.083   6.284
 4261TIP3    H212741   1.232   6.141   6.280
 4262TIP3   OH212742   8.220   3.900   4.145
 4262TIP3    H112743   8.187   3.810   4.148
 4262TIP3    H212744   8.164   3.944   4.081
 4263TIP3   OH212745   7.493   2.400   4.771
 4263TIP3    H112746   7.498   2.395   4.867
 4263TIP3    H212747   7.440   2.478   4.754
 4264TIP3   OH212748   1.702   7.776   4.410
 4264TIP3    H112749   1.751   7.750   4.489
 4264TIP3    H212750   1.650   7.852   4.438
 4265TIP3   OH212751   1.051   1.564   4.117
 4265TIP3    H112752   0.961   1.575   4.088
 4265TIP3    H212753   1.099   1.635   4.074
 4266TIP3   OH212754   4.243   4.123   1.002
 4266TIP3    H112755   4.153   4.134   1.034
 4266TIP3    H212756   4.247   4.032   0.972
 4267TIP3   OH212757   6.988   5.141   6.374
 4267TIP3    H112758   7.062   5.189   6.339
 4267TIP3    H212759   6.913   5.197   6.357
 4268TIP3   OH212760   8.113   3.814   3.689
 4268TIP3    H112761   8.169   3.751   3.735
 4268TIP3    H212762   8.025   3.776   3.694
 4269TIP3   OH212763   6.724   1.345   0.495
 4269TIP3    H112764   6.778   1.416   0.530
 4269TIP3    H212765   6.684   1.381   0.416
 4270TIP3   OH212766   7.219   3.024   5.532
 4270TIP3    H112767   7.208   3.065   5.446
 4270TIP3    H212768   7.282   3.080   5.577
 4271TIP3   OH212769   3.239   5.479   0.284
 4271TIP3    H112770   3.212   5.570   0.297
 4271TIP3    H212771   3.162   5.436   0.246
 4272TIP3   OH212772   2.031   5.810   3.279
 4272TIP3    H112773   2.030   5.829   3.185
 4272TIP3    H212774   2.095   5.871   3.315
 4273TIP3   OH212775   6.577   1.461   2.141
 4273TIP3    H112776   6.489   1.456   2.106
 4273TIP3    H212777   6.627   1.508   2.074
 4274TIP3   OH212778   4.218   0.320   5.251
 4274TIP3    H112779   4.214   0.310   5.346
 4274TIP3    H212780   4.298   0.272   5.226
 4275TIP3   OH212781   6.248   4.010   6.242
 4275TIP3    H112782   6.298   4.089   6.262
 4275TIP3    H212783   6.171   4.041   6.194
 4276TIP3   OH212784   0.678   1.086   5.347
 4276TIP3    H112785   0.677   1.066   5.441
 4276TIP3    H212786   0.586   1.094   5.324
 4277TIP3   OH212787   5.157   0.874   0.060
 4277TIP3    H112788   5.165   0.932  -0.015
 4277TIP3    H212789   5.095   0.919   0.118
 4278TIP3   OH212790   2.755   0.461   3.599
 4278TIP3    H112791   2.683   0.429   3.545
 4278TIP3    H212792   2.727   0.547   3.629
 4279TIP3   OH212793   6.344   4.240   4.203
 4279TIP3    H112794   6.354   4.328   4.165
 4279TIP3    H212795   6.432   4.203   4.200
 4280TIP3   OH212796   7.282   4.852   0.337
 4280TIP3    H112797   7.230   4.773   0.349
 4280TIP3    H212798   7.338   4.833   0.262
 4281TIP3   OH212799   5.811   1.701   2.626
 4281TIP3    H112800   5.809   1.612   2.590
 4281TIP3    H212801   5.719   1.723   2.642
 4282TIP3   OH212802   6.784   6.562   0.462
 4282TIP3    H112803   6.697   6.595   0.485
 4282TIP3    H212804   6.817   6.524   0.544
 4283TIP3   OH212805   7.355   0.811   1.568
 4283TIP3    H112806   7.275   0.817   1.516
 4283TIP3    H212807   7.422   0.851   1.512
 4284TIP3   OH212808   5.489   2.077   4.496
 4284TIP3    H112809   5.475   1.989   4.532
 4284TIP3    H212810   5.577   2.074   4.459
 4285TIP3   OH212811   0.791   4.204   5.285
 4285TIP3    H112812   0.758   4.224   5.373
 4285TIP3    H212813   0.822   4.113   5.291
 4286TIP3   OH212814   3.198   2.453   1.623
 4286TIP3    H112815   3.255   2.380   1.599
 4286TIP3    H212816   3.119   2.411   1.658
 4287TIP3   OH212817   0.739   3.068   0.221
 4287TIP3    H112818   0.652   3.046   0.257
 4287TIP3    H212819   0.782   3.118   0.290
 4288TIP3   OH212820   4.227   6.193   3.486
 4288TIP3    H112821   4.144   6.213   3.444
 4288TIP3    H212822   4.220   6.231   3.574
 4289TIP3   OH212823   7.232   2.433   5.828
 4289TIP3    H112824   7.197   2.368   5.890
 4289TIP3    H212825   7.154   2.479   5.797
 4290TIP3   OH212826   0.641   1.058   0.682
 4290TIP3    H112827   0.712   0.994   0.684
 4290TIP3    H212828   0.674   1.129   0.626
 4291TIP3   OH212829   6.406   4.882   2.420
 4291TIP3    H112830   6.439   4.870   2.509
 4291TIP3    H212831   6.483   4.906   2.369
 4292TIP3   OH212832   6.108   0.545   2.194
 4292TIP3    H112833   6.165   0.521   2.121
 4292TIP3    H212834   6.114   0.471   2.254
 4293TIP3   OH212835   0.555   5.534   4.460
 4293TIP3    H112836   0.494   5.593   4.415
 4293TIP3    H212837   0.626   5.520   4.397
 4294TIP3   OH212838   7.311   5.705   3.978
 4294TIP3    H112839   7.383   5.699   4.041
 4294TIP3    H212840   7.300   5.799   3.964
 4295TIP3   OH212841   7.188   4.418   0.174
 4295TIP3    H112842   7.244   4.397   0.099
 4295TIP3    H212843   7.218   4.359   0.243
 4296TIP3   OH212844   5.355   6.805   3.403
 4296TIP3    H112845   5.288   6.740   3.384
 4296TIP3    H212846   5.437   6.766   3.372
 4297TIP3   OH212847   2.258   4.326   0.780
 4297TIP3    H112848   2.207   4.274   0.842
 4297TIP3    H212849   2.346   4.289   0.786
 4298TIP3   OH212850   2.231   4.224   6.618
 4298TIP3    H112851   2.182   4.193   6.542
 4298TIP3    H212852   2.168   4.278   6.666
 4299TIP3   OH212853   5.571   6.998   5.224
 4299TIP3    H112854   5.536   7.045   5.300
 4299TIP3    H212855   5.518   6.918   5.219
 4300TIP3   OH212856   5.563   5.266   1.582
 4300TIP3    H112857   5.616   5.245   1.504
 4300TIP3    H212858   5.555   5.361   1.580
 4301TIP3   OH212859   0.483   6.528   5.254
 4301TIP3    H112860   0.467   6.515   5.348
 4301TIP3    H212861   0.428   6.463   5.211
 4302TIP3   OH212862   0.147   0.895   6.629
 4302TIP3    H112863   0.171   0.881   6.721
 4302TIP3    H212864   0.231   0.898   6.583
 4303TIP3   OH212865   0.976   0.541   0.898
 4303TIP3    H112866   0.883   0.560   0.887
 4303TIP3    H212867   1.020   0.624   0.879
 4304TIP3   OH212868   5.364   2.295   4.666
 4304TIP3    H112869   5.434   2.239   4.631
 4304TIP3    H212870   5.388   2.383   4.638
 4305TIP3   OH212871   3.066   0.522   2.325
 4305TIP3    H112872   3.027   0.532   2.411
 4305TIP3    H212873   3.004   0.564   2.265
 4306TIP3   OH212874   6.307   1.433   2.641
 4306TIP3    H112875   6.374   1.376   2.603
 4306TIP3    H212876   6.355   1.510   2.670
 4307TIP3   OH212877   4.625   3.525   6.753
 4307TIP3    H112878   4.694   3.484   6.701
 4307TIP3    H212879   4.672   3.573   6.822
 4308TIP3   OH212880   0.928   5.629   0.440
 4308TIP3    H112881   0.972   5.664   0.517
 4308TIP3    H212882   0.847   5.680   0.434
 4309TIP3   OH212883   0.810   1.526  -0.003
 4309TIP3    H112884   0.741   1.522   0.062
 4309TIP3    H212885   0.822   1.435  -0.032
 4310TIP3   OH212886   3.442   5.870   5.945
 4310TIP3    H112887   3.350   5.890   5.928
 4310TIP3    H212888   3.491   5.941   5.903
 4311TIP3   OH212889   5.272   0.872   4.233
 4311TIP3    H112890   5.194   0.894   4.284
 4311TIP3    H212891   5.256   0.784   4.201
 4312TIP3   OH212892   1.654   3.785   4.620
 4312TIP3    H112893   1.746   3.802   4.599
 4312TIP3    H212894   1.657   3.726   4.696
 4313TIP3   OH212895   2.538   5.157   0.217
 4313TIP3    H112896   2.590   5.093   0.168
 4313TIP3    H212897   2.590   5.176   0.295
 4314TIP3   OH212898   3.836   7.824   4.870
 4314TIP3    H112899   3.860   7.866   4.788
 4314TIP3    H212900   3.815   7.734   4.846
 4315TIP3   OH212901   4.750   2.116   4.436
 4315TIP3    H112902   4.814   2.187   4.440
 4315TIP3    H212903   4.800   2.038   4.462
 4316TIP3   OH212904   6.678   1.825   2.624
 4316TIP3    H112905   6.592   1.856   2.595
 4316TIP3    H212906   6.723   1.800   2.543
 4317TIP3   OH212907   0.224   3.494   2.871
 4317TIP3    H112908   0.280   3.472   2.945
 4317TIP3    H212909   0.168   3.565   2.903
 4318TIP3   OH212910   3.440   3.231   1.891
 4318TIP3    H112911   3.347   3.251   1.895
 4318TIP3    H212912   3.476   3.297   1.832
 4319TIP3   OH212913   6.922   2.392   2.965
 4319TIP3    H112914   6.876   2.446   3.030
 4319TIP3    H212915   6.999   2.359   3.011
 4320TIP3   OH212916   3.299   6.508   5.748
 4320TIP3    H112917   3.359   6.581   5.733
 4320TIP3    H212918   3.245   6.505   5.670
 4321TIP3   OH212919   5.577   6.498   0.787
 4321TIP3    H112920   5.654   6.550   0.764
 4321TIP3    H212921   5.504   6.559   0.780
 4322TIP3   OH212922   3.569   7.765   6.671
 4322TIP3    H112923   3.540   7.694   6.613
 4322TIP3    H212924   3.646   7.801   6.628
 4323TIP3   OH212925   7.764   2.393   1.462
 4323TIP3    H112926   7.681   2.357   1.492
 4323TIP3    H212927   7.742   2.480   1.429
 4324TIP3   OH212928   1.513   5.010   1.174
 4324TIP3    H112929   1.598   5.054   1.172
 4324TIP3    H212930   1.459   5.064   1.232
 4325TIP3   OH212931   6.410   1.625   5.370
 4325TIP3    H112932   6.501   1.620   5.342
 4325TIP3    H212933   6.360   1.632   5.288
 4326TIP3   OH212934   3.773   3.756   1.739
 4326TIP3    H112935   3.834   3.816   1.781
 4326TIP3    H212936   3.810   3.669   1.754
 4327TIP3   OH212937   7.253   1.993   5.554
 4327TIP3    H112938   7.261   1.936   5.630
 4327TIP3    H212939   7.185   2.056   5.579
 4328TIP3   OH212940   4.719   2.510   3.568
 4328TIP3    H112941   4.682   2.449   3.631
 4328TIP3    H212942   4.777   2.566   3.620
 4329TIP3   OH212943   5.932   5.587   6.376
 4329TIP3    H112944   5.908   5.654   6.440
 4329TIP3    H212945   5.860   5.524   6.379
 4330TIP3   OH212946   5.147   2.573   1.534
 4330TIP3    H112947   5.192   2.510   1.590
 4330TIP3    H212948   5.208   2.647   1.527
 4331TIP3   OH212949   2.230   4.620   0.334
 4331TIP3    H112950   2.216   4.714   0.347
 4331TIP3    H212951   2.260   4.613   0.244
 4332TIP3   OH212952   4.832   7.766   6.426
 4332TIP3    H112953   4.814   7.860   6.424
 4332TIP3    H212954   4.745   7.725   6.420
 4333TIP3   OH212955   3.535   6.415   6.243
 4333TIP3    H112956   3.604   6.459   6.293
 4333TIP3    H212957   3.465   6.480   6.237
 4334TIP3   OH212958   2.300   0.182   2.531
 4334TIP3    H112959   2.380   0.131   2.521
 4334TIP3    H212960   2.318   0.243   2.602
 4335TIP3   OH212961   4.795   5.757   2.924
 4335TIP3    H112962   4.726   5.746   2.988
 4335TIP3    H212963   4.849   5.679   2.932
 4336TIP3   OH212964   6.826   0.206   0.925
 4336TIP3    H112965   6.846   0.300   0.920
 4336TIP3    H212966   6.896   0.165   0.874
 4337TIP3   OH212967   3.445   4.241   6.142
 4337TIP3    H112968   3.400   4.308   6.091
 4337TIP3    H212969   3.401   4.159   6.120
 4338TIP3   OH212970   4.127   5.468   0.686
 4338TIP3    H112971   4.049   5.440   0.638
 4338TIP3    H212972   4.166   5.537   0.633
 4339TIP3   OH212973   3.093   7.760   0.893
 4339TIP3    H112974   3.150   7.689   0.864
 4339TIP3    H212975   3.049   7.790   0.814
 4340TIP3   OH212976   2.870   4.644   2.087
 4340TIP3    H112977   2.921   4.608   2.159
 4340TIP3    H212978   2.932   4.699   2.039
 4341TIP3   OH212979   2.020   2.940   5.647
 4341TIP3    H112980   2.084   2.954   5.577
 4341TIP3    H212981   2.040   3.008   5.711
 4342TIP3   OH212982   3.073   6.995   6.200
 4342TIP3    H112983   3.090   7.087   6.180
 4342TIP3    H212984   3.049   6.995   6.293
 4343TIP3   OH212985   4.652   2.721   4.393
 4343TIP3    H112986   4.702   2.785   4.443
 4343TIP3    H212987   4.572   2.767   4.368
 4344TIP3   OH212988   0.412   5.845   5.373
 4344TIP3    H112989   0.476   5.894   5.322
 4344TIP3    H212990   0.327   5.873   5.339
 4345TIP3   OH212991   6.368   7.022   4.878
 4345TIP3    H112992   6.332   7.108   4.856
 4345TIP3    H212993   6.385   6.981   4.794
 4346TIP3   OH212994   2.804   2.748   2.137
 4346TIP3    H112995   2.890   2.743   2.178
 4346TIP3    H212996   2.784   2.842   2.133
 4347TIP3   OH212997   4.467   5.985   5.722
 4347TIP3    H112998   4.390   5.958   5.672
 4347TIP3    H212999   4.538   5.985   5.658
 4348TIP3   OH213000   4.950   6.452   2.959
 4348TIP3    H113001   4.922   6.361   2.958
 4348TIP3    H213002   5.023   6.454   3.021
 4349TIP3   OH213003   7.943   2.707   0.351
 4349TIP3    H113004   7.933   2.648   0.426
 4349TIP3    H213005   7.861   2.756   0.347
 4350TIP3   OH213006   2.016   4.689   5.458
 4350TIP3    H113007   2.101   4.726   5.434
 4350TIP3    H213008   1.952   4.756   5.431
 4351TIP3   OH213009   0.765   5.356   0.162
 4351TIP3    H113010   0.857   5.370   0.140
 4351TIP3    H213011   0.727   5.319   0.083
 4352TIP3   OH213012   1.718   7.683   6.177
 4352TIP3    H113013   1.655   7.699   6.247
 4352TIP3    H213014   1.766   7.766   6.169
 4353TIP3   OH213015   0.241   4.616   0.378
 4353TIP3    H113016   0.305   4.630   0.448
 4353TIP3    H213017   0.265   4.679   0.311
 4354TIP3   OH213018   0.910   5.436   2.772
 4354TIP3    H113019   1.001   5.408   2.767
 4354TIP3    H213020   0.909   5.525   2.737
 4355TIP3   OH213021   7.014   4.594   5.326
 4355TIP3    H113022   6.974   4.506   5.323
 4355TIP3    H213023   7.055   4.599   5.412
 4356TIP3   OH213024   5.746   2.821   4.549
 4356TIP3    H113025   5.772   2.729   4.557
 4356TIP3    H213026   5.651   2.819   4.551
 4357TIP3   OH213027   2.630   7.412   0.128
 4357TIP3    H113028   2.676   7.494   0.141
 4357TIP3    H213029   2.680   7.366   0.061
 4358TIP3   OH213030   7.155   4.346   3.146
 4358TIP3    H113031   7.103   4.361   3.224
 4358TIP3    H213032   7.223   4.414   3.149
 4359TIP3   OH213033   2.461   5.907   5.045
 4359TIP3    H113034   2.425   5.818   5.043
 4359TIP3    H213035   2.447   5.937   5.135
 4360TIP3   OH213036   1.308   2.763   5.696
 4360TIP3    H113037   1.315   2.748   5.601
 4360TIP3    H213038   1.299   2.858   5.704
 4361TIP3   OH213039   2.871   5.807   3.987
 4361TIP3    H113040   2.908   5.893   4.007
 4361TIP3    H213041   2.943   5.745   4.003
 4362TIP3   OH213042   4.854   7.267   1.665
 4362TIP3    H113043   4.891   7.179   1.676
 4362TIP3    H213044   4.856   7.305   1.753
 4363TIP3   OH213045   4.933   0.128   5.068
 4363TIP3    H113046   5.006   0.150   5.010
 4363TIP3    H213047   4.894   0.050   5.029
 4364TIP3   OH213048   3.698   5.233   0.094
 4364TIP3    H113049   3.638   5.280   0.152
 4364TIP3    H213050   3.785   5.261   0.121
 4365TIP3   OH213051   2.272   3.745   1.307
 4365TIP3    H113052   2.270   3.760   1.213
 4365TIP3    H213053   2.200   3.684   1.324
 4366TIP3   OH213054   2.044   0.172   5.957
 4366TIP3    H113055   2.014   0.247   5.905
 4366TIP3    H213056   2.137   0.189   5.972
 4367TIP3   OH213057   2.110   5.181   4.683
 4367TIP3    H113058   2.118   5.089   4.710
 4367TIP3    H213059   2.199   5.216   4.693
 4368TIP3   OH213060   0.193   4.437   3.841
 4368TIP3    H113061   0.108   4.400   3.863
 4368TIP3    H213062   0.226   4.473   3.923
 4369TIP3   OH213063   2.708   4.303   5.617
 4369TIP3    H113064   2.717   4.392   5.653
 4369TIP3    H213065   2.782   4.255   5.654
 4370TIP3   OH213066   1.013   6.871   4.141
 4370TIP3    H113067   0.962   6.818   4.079
 4370TIP3    H213068   1.054   6.938   4.087
 4371TIP3   OH213069   1.083   1.331   1.523
 4371TIP3    H113070   1.128   1.405   1.563
 4371TIP3    H213071   1.081   1.352   1.429
 4372TIP3   OH213072   6.876   4.862   3.314
 4372TIP3    H113073   6.920   4.782   3.286
 4372TIP3    H213074   6.945   4.914   3.355
 4373TIP3   OH213075   6.800   1.788   5.267
 4373TIP3    H113076   6.863   1.797   5.338
 4373TIP3    H213077   6.744   1.715   5.293
 4374TIP3   OH213078   7.805   2.780   0.047
 4374TIP3    H113079   7.725   2.779  -0.005
 4374TIP3    H213080   7.861   2.713   0.008
 4375TIP3   OH213081   3.962   0.046   3.789
 4375TIP3    H113082   3.954   0.137   3.820
 4375TIP3    H213083   4.053   0.039   3.761
 4376TIP3   OH213084   1.366   5.987   6.714
 4376TIP3    H113085   1.278   5.951   6.729
 4376TIP3    H213086   1.423   5.911   6.714
 4377TIP3   OH213087   5.810   4.265   6.448
 4377TIP3    H113088   5.863   4.333   6.404
 4377TIP3    H213089   5.770   4.217   6.376
 4378TIP3   OH213090   6.711   5.928   0.511
 4378TIP3    H113091   6.708   5.900   0.602
 4378TIP3    H213092   6.804   5.938   0.491
 4379TIP3   OH213093   3.992   0.211   2.781
 4379TIP3    H113094   3.984   0.138   2.841
 4379TIP3    H213095   3.915   0.204   2.724
 4380TIP3   OH213096   0.091   7.280   0.052
 4380TIP3    H113097   0.118   7.372   0.046
 4380TIP3    H213098   0.118   7.242  -0.032
 4381TIP3   OH213099   0.660   5.948   0.309
 4381TIP3    H113100   0.731   5.963   0.372
 4381TIP3    H213101   0.691   5.877   0.254
 4382TIP3   OH213102   6.344   4.769   2.940
 4382TIP3    H113103   6.392   4.696   2.979
 4382TIP3    H213104   6.303   4.813   3.014
 4383TIP3   OH213105   7.883   0.749   2.060
 4383TIP3    H113106   7.948   0.717   1.998
 4383TIP3    H213107   7.801   0.708   2.034
 4384TIP3   OH213108   2.765   1.723   3.114
 4384TIP3    H113109   2.710   1.646   3.128
 4384TIP3    H213110   2.778   1.726   3.019
 4385TIP3   OH213111   6.817   3.074   5.765
 4385TIP3    H113112   6.886   3.112   5.820
 4385TIP3    H213113   6.740   3.129   5.781
 4386TIP3   OH213114   3.856   3.948   3.951
 4386TIP3    H113115   3.847   3.912   4.040
 4386TIP3    H213116   3.843   3.872   3.894
 4387TIP3   OH213117   2.253   2.297   3.457
 4387TIP3    H113118   2.282   2.319   3.546
 4387TIP3    H213119   2.324   2.330   3.401
 4388TIP3   OH213120   3.967   7.284   2.858
 4388TIP3    H113121   3.922   7.221   2.801
 4388TIP3    H213122   4.044   7.236   2.890
 4389TIP3   OH213123   3.383   3.694   4.619
 4389TIP3    H113124   3.464   3.652   4.647
 4389TIP3    H213125   3.390   3.784   4.651
 4390TIP3   OH213126   5.321   2.685   4.415
 4390TIP3    H113127   5.392   2.702   4.353
 4390TIP3    H213128   5.266   2.763   4.412
 4391TIP3   OH213129   2.719   4.093   2.763
 4391TIP3    H113130   2.664   4.032   2.714
 4391TIP3    H213131   2.670   4.110   2.844
 4392TIP3   OH213132   2.755   2.285   1.808
 4392TIP3    H113133   2.756   2.375   1.841
 4392TIP3    H213134   2.721   2.233   1.882
 4393TIP3   OH213135   1.420   3.294   1.366
 4393TIP3    H113136   1.348   3.343   1.407
 4393TIP3    H213137   1.442   3.346   1.289
 4394TIP3   OH213138   4.220   5.747   2.597
 4394TIP3    H113139   4.147   5.741   2.535
 4394TIP3    H213140   4.207   5.673   2.657
 4395TIP3   OH213141   2.905   6.503   3.176
 4395TIP3    H113142   2.955   6.524   3.097
 4395TIP3    H213143   2.971   6.480   3.241
 4396TIP3   OH213144   4.410   3.355   5.631
 4396TIP3    H113145   4.466   3.410   5.576
 4396TIP3    H213146   4.377   3.415   5.698
 4397TIP3   OH213147   1.651   5.847   0.087
 4397TIP3    H113148   1.582   5.910   0.067
 4397TIP3    H213149   1.628   5.815   0.175
 4398TIP3   OH213150   1.717   6.723   0.759
 4398TIP3    H113151   1.689   6.671   0.683
 4398TIP3    H213152   1.689   6.671   0.835
 4399TIP3   OH213153   5.916   3.736   3.141
 4399TIP3    H113154   5.946   3.769   3.056
 4399TIP3    H213155   5.880   3.650   3.122
 4400TIP3   OH213156   8.258   3.287   4.949
 4400TIP3    H113157   8.290   3.228   4.881
 4400TIP3    H213158   8.163   3.274   4.951
 4401TIP3   OH213159   0.873   5.369   1.886
 4401TIP3    H113160   0.853   5.316   1.963
 4401TIP3    H213161   0.835   5.321   1.813
 4402TIP3   OH213162   4.913   7.334   4.216
 4402TIP3    H113163   4.978   7.395   4.252
 4402TIP3    H213164   4.890   7.372   4.131
 4403TIP3   OH213165   2.453   7.039   4.258
 4403TIP3    H113166   2.442   7.129   4.288
 4403TIP3    H213167   2.376   6.993   4.290
 4404TIP3   OH213168   5.978   2.329   0.398
 4404TIP3    H113169   6.051   2.383   0.428
 4404TIP3    H213170   6.018   2.244   0.376
 4405TIP3   OH213171   1.851   6.645   2.102
 4405TIP3    H113172   1.863   6.550   2.108
 4405TIP3    H213173   1.868   6.665   2.010
 4406TIP3   OH213174   2.725   1.190   1.628
 4406TIP3    H113175   2.736   1.167   1.720
 4406TIP3    H213176   2.684   1.276   1.629
 4407TIP3   OH213177   3.162   0.937   3.290
 4407TIP3    H113178   3.222   0.898   3.354
 4407TIP3    H213179   3.169   0.880   3.213
 4408TIP3   OH213180   2.597   6.687   4.532
 4408TIP3    H113181   2.527   6.637   4.576
 4408TIP3    H213182   2.611   6.762   4.589
 4409TIP3   OH213183   8.094   5.341   3.511
 4409TIP3    H113184   8.180   5.382   3.523
 4409TIP3    H213185   8.110   5.269   3.450
 4410TIP3   OH213186   1.264   4.115   2.123
 4410TIP3    H113187   1.266   4.123   2.027
 4410TIP3    H213188   1.353   4.132   2.151
 4411TIP3   OH213189   0.843   3.681   5.136
 4411TIP3    H113190   0.886   3.670   5.221
 4411TIP3    H213191   0.804   3.768   5.140
 4412TIP3   OH213192   0.583   3.671   6.346
 4412TIP3    H113193   0.526   3.741   6.315
 4412TIP3    H213194   0.647   3.658   6.275
 4413TIP3   OH213195   6.154   6.085   0.102
 4413TIP3    H113196   6.222   6.054   0.042
 4413TIP3    H213197   6.089   6.127   0.045
 4414TIP3   OH213198   2.036   5.772   6.026
 4414TIP3    H113199   2.007   5.746   5.938
 4414TIP3    H213200   1.972   5.734   6.085
 4415TIP3   OH213201   2.478   6.312   5.419
 4415TIP3    H113202   2.543   6.269   5.363
 4415TIP3    H213203   2.511   6.401   5.429
 4416TIP3   OH213204   4.152   6.176   2.906
 4416TIP3    H113205   4.126   6.265   2.926
 4416TIP3    H213206   4.170   6.136   2.991
 4417TIP3   OH213207   6.220   5.790   4.024
 4417TIP3    H113208   6.155   5.795   3.954
 4417TIP3    H213209   6.218   5.876   4.067
 4418TIP3   OH213210   0.511   4.021   2.050
 4418TIP3    H113211   0.542   4.095   1.998
 4418TIP3    H213212   0.453   3.972   1.991
 4419TIP3   OH213213   5.986   3.640   6.718
 4419TIP3    H113214   6.021   3.725   6.690
 4419TIP3    H213215   6.030   3.622   6.801
 4420TIP3   OH213216   7.791   4.042   1.210
 4420TIP3    H113217   7.873   4.044   1.160
 4420TIP3    H213218   7.818   4.024   1.300
 4421TIP3   OH213219   5.726   4.848   3.791
 4421TIP3    H113220   5.677   4.928   3.810
 4421TIP3    H213221   5.792   4.843   3.860
 4422TIP3   OH213222   4.842   0.103   4.740
 4422TIP3    H113223   4.830   0.008   4.748
 4422TIP3    H213224   4.922   0.122   4.789
 4423TIP3   OH213225   2.781   4.851   6.134
 4423TIP3    H113226   2.712   4.860   6.200
 4423TIP3    H213227   2.861   4.881   6.178
 4424TIP3   OH213228   5.945   2.221   1.460
 4424TIP3    H113229   5.906   2.179   1.537
 4424TIP3    H213230   5.883   2.292   1.439
 4425TIP3   OH213231   5.522   0.685   5.908
 4425TIP3    H113232   5.583   0.685   5.834
 4425TIP3    H213233   5.539   0.602   5.953
 4426TIP3   OH213234   4.860   2.039   5.172
 4426TIP3    H113235   4.847   2.131   5.193
 4426TIP3    H213236   4.901   2.040   5.086
 4427TIP3   OH213237   3.989   6.093   0.557
 4427TIP3    H113238   4.078   6.095   0.522
 4427TIP3    H213239   3.936   6.054   0.487
 4428TIP3   OH213240   3.942   1.225   2.576
 4428TIP3    H113241   3.955   1.163   2.647
 4428TIP3    H213242   3.965   1.310   2.613
 4429TIP3   OH213243   6.709   7.841   3.447
 4429TIP3    H113244   6.699   7.869   3.356
 4429TIP3    H213245   6.677   7.750   3.448
 4430TIP3   OH213246   6.394   4.230   6.270
 4430TIP3    H113247   6.394   4.270   6.358
 4430TIP3    H213248   6.332   4.282   6.220
 4431TIP3   OH213249   8.188   0.706   3.901
 4431TIP3    H113250   8.206   0.787   3.854
 4431TIP3    H213251   8.251   0.643   3.866
 4432TIP3   OH213252   5.627   3.957   5.089
 4432TIP3    H113253   5.609   4.004   5.170
 4432TIP3    H213254   5.608   4.020   5.020
 4433TIP3   OH213255   0.248   7.573   5.101
 4433TIP3    H113256   0.208   7.501   5.052
 4433TIP3    H213257   0.231   7.651   5.048
 4434TIP3   OH213258   2.442   2.594   5.521
 4434TIP3    H113259   2.529   2.632   5.510
 4434TIP3    H213260   2.441   2.561   5.610
 4435TIP3   OH213261   6.671   6.735   4.276
 4435TIP3    H113262   6.733   6.664   4.286
 4435TIP3    H213263   6.707   6.789   4.206
 4436TIP3   OH213264   6.408   0.430   1.491
 4436TIP3    H113265   6.410   0.376   1.412
 4436TIP3    H213266   6.453   0.511   1.467
 4437TIP3   OH213267   5.565   7.450   3.812
 4437TIP3    H113268   5.551   7.364   3.771
 4437TIP3    H213269   5.659   7.467   3.800
 4438TIP3   OH213270   2.972   7.373   2.546
 4438TIP3    H113271   2.878   7.357   2.556
 4438TIP3    H213272   2.988   7.363   2.452
 4439TIP3   OH213273   0.386   4.479   1.731
 4439TIP3    H113274   0.468   4.528   1.743
 4439TIP3    H213275   0.413   4.396   1.692
 4440TIP3   OH213276   2.328   5.933   4.806
 4440TIP3    H113277   2.366   6.019   4.793
 4440TIP3    H213278   2.394   5.884   4.854
 4441TIP3   OH213279   5.709   4.063   2.954
 4441TIP3    H113280   5.708   4.064   3.050
 4441TIP3    H213281   5.750   4.146   2.930
 4442TIP3   OH213282   4.905   0.473   0.827
 4442TIP3    H113283   4.829   0.485   0.884
 4442TIP3    H213284   4.961   0.549   0.847
 4443TIP3   OH213285   8.039   5.398   1.383
 4443TIP3    H113286   8.046   5.432   1.294
 4443TIP3    H213287   7.981   5.459   1.428
 4444TIP3   OH213288   5.998   3.519   4.399
 4444TIP3    H113289   6.061   3.447   4.407
 4444TIP3    H213290   5.998   3.560   4.485
 4445TIP3   OH213291   0.306   4.547   6.460
 4445TIP3    H113292   0.318   4.453   6.446
 4445TIP3    H213293   0.331   4.561   6.551
 4446TIP3   OH213294   4.164   7.743   3.253
 4446TIP3    H113295   4.105   7.767   3.181
 4446TIP3    H213296   4.197   7.826   3.286
 4447TIP3   OH213297   0.921   4.876   4.086
 4447TIP3    H113298   0.887   4.865   4.175
 4447TIP3    H213299   1.010   4.910   4.099
 4448TIP3   OH213300   3.871   5.004   2.859
 4448TIP3    H113301   3.877   5.099   2.852
 4448TIP3    H213302   3.849   4.988   2.951
 4449TIP3   OH213303   5.084   4.620   1.449
 4449TIP3    H113304   5.150   4.606   1.517
 4449TIP3    H213305   5.075   4.535   1.407
 4450TIP3   OH213306   7.008   3.828   4.120
 4450TIP3    H113307   7.065   3.823   4.044
 4450TIP3    H213308   7.052   3.777   4.188
 4451TIP3   OH213309   1.494   4.974   2.306
 4451TIP3    H113310   1.441   4.898   2.282
 4451TIP3    H213311   1.435   5.029   2.358
 4452TIP3   OH213312   5.027   4.119   6.100
 4452TIP3    H113313   4.995   4.048   6.044
 4452TIP3    H213314   5.103   4.153   6.052
 4453TIP3   OH213315   2.480   6.766   5.689
 4453TIP3    H113316   2.500   6.825   5.762
 4453TIP3    H213317   2.564   6.725   5.667
 4454TIP3   OH213318   7.963   5.546   5.388
 4454TIP3    H113319   7.919   5.631   5.395
 4454TIP3    H213320   8.019   5.541   5.465
 4455TIP3   OH213321   5.880   2.998   3.575
 4455TIP3    H113322   5.812   2.974   3.513
 4455TIP3    H213323   5.927   2.917   3.593
 4456TIP3   OH213324   3.083   3.093   1.659
 4456TIP3    H113325   2.988   3.086   1.651
 4456TIP3    H213326   3.116   3.010   1.625
 4457TIP3   OH213327   6.116   3.598   1.520
 4457TIP3    H113328   6.076   3.574   1.436
 4457TIP3    H213329   6.196   3.547   1.523
 4458TIP3   OH213330   7.061   4.802   2.293
 4458TIP3    H113331   6.980   4.810   2.242
 4458TIP3    H213332   7.057   4.874   2.355
 4459TIP3   OH213333   1.547   0.149   2.028
 4459TIP3    H113334   1.628   0.099   2.026
 4459TIP3    H213335   1.519   0.146   2.119
 4460TIP3   OH213336   4.476   5.234   5.950
 4460TIP3    H113337   4.388   5.235   5.911
 4460TIP3    H213338   4.534   5.256   5.877
 4461TIP3   OH213339   5.891   0.703   5.402
 4461TIP3    H113340   5.842   0.641   5.348
 4461TIP3    H213341   5.979   0.665   5.406
 4462TIP3   OH213342   3.309   5.857   1.305
 4462TIP3    H113343   3.276   5.845   1.216
 4462TIP3    H213344   3.232   5.883   1.356
 4463TIP3   OH213345   6.777   0.703   4.181
 4463TIP3    H113346   6.694   0.739   4.151
 4463TIP3    H213347   6.840   0.773   4.168
 4464TIP3   OH213348   2.758   4.257   6.085
 4464TIP3    H113349   2.702   4.285   6.158
 4464TIP3    H213350   2.847   4.278   6.114
 4465TIP3   OH213351   3.073   5.009   4.033
 4465TIP3    H113352   3.145   4.950   4.012
 4465TIP3    H213353   3.111   5.072   4.095
 4466TIP3   OH213354   6.024   2.086   5.338
 4466TIP3    H113355   6.023   2.068   5.432
 4466TIP3    H213356   6.098   2.145   5.326
 4467TIP3   OH213357   3.841   2.303   2.564
 4467TIP3    H113358   3.809   2.216   2.590
 4467TIP3    H213359   3.810   2.315   2.475
 4468TIP3   OH213360   2.886   2.839   0.207
 4468TIP3    H113361   2.855   2.800   0.289
 4468TIP3    H213362   2.856   2.778   0.140
 4469TIP3   OH213363   0.597   5.377   2.570
 4469TIP3    H113364   0.669   5.314   2.573
 4469TIP3    H213365   0.635   5.459   2.602
 4470TIP3   OH213366   8.056   3.795   5.443
 4470TIP3    H113367   8.118   3.808   5.371
 4470TIP3    H213368   7.977   3.761   5.400
 4471TIP3   OH213369   5.631   4.922   3.384
 4471TIP3    H113370   5.599   4.850   3.439
 4471TIP3    H213371   5.718   4.942   3.418
 4472TIP3   OH213372   1.329   1.765   1.729
 4472TIP3    H113373   1.399   1.797   1.671
 4472TIP3    H213374   1.328   1.827   1.801
 4473TIP3   OH213375   1.867   4.738   5.763
 4473TIP3    H113376   1.817   4.758   5.683
 4473TIP3    H213377   1.957   4.760   5.740
 4474TIP3   OH213378   8.024   6.150   3.774
 4474TIP3    H113379   8.108   6.136   3.818
 4474TIP3    H213380   7.977   6.210   3.832
 4475TIP3   OH213381   0.245   3.028   1.420
 4475TIP3    H113382   0.213   3.079   1.495
 4475TIP3    H213383   0.178   2.962   1.405
 4476TIP3   OH213384   2.829   4.985   1.307
 4476TIP3    H113385   2.791   4.901   1.333
 4476TIP3    H213386   2.919   4.964   1.283
 4477TIP3   OH213387   1.644   3.961   1.394
 4477TIP3    H113388   1.629   3.869   1.413
 4477TIP3    H213389   1.605   3.975   1.308
 4478TIP3   OH213390   0.618   6.951   2.518
 4478TIP3    H113391   0.592   6.872   2.565
 4478TIP3    H213392   0.692   6.985   2.567
 4479TIP3   OH213393   6.463   0.949   4.304
 4479TIP3    H113394   6.443   0.998   4.384
 4479TIP3    H213395   6.534   0.998   4.263
 4480TIP3   OH213396   6.608   6.397   3.310
 4480TIP3    H113397   6.636   6.458   3.242
 4480TIP3    H213398   6.571   6.323   3.262
 4481TIP3   OH213399   4.958   2.203   6.328
 4481TIP3    H113400   4.923   2.114   6.337
 4481TIP3    H213401   5.027   2.207   6.395
 4482TIP3   OH213402   7.319   4.634   2.599
 4482TIP3    H113403   7.281   4.582   2.670
 4482TIP3    H213404   7.278   4.720   2.607
 4483TIP3   OH213405   3.572   6.705   0.435
 4483TIP3    H113406   3.495   6.653   0.412
 4483TIP3    H213407   3.592   6.680   0.525
 4484TIP3   OH213408   4.048   5.459   4.325
 4484TIP3    H113409   4.015   5.396   4.390
 4484TIP3    H213410   3.971   5.509   4.299
 4485TIP3   OH213411   5.731   2.056   5.331
 4485TIP3    H113412   5.743   1.973   5.285
 4485TIP3    H213413   5.801   2.112   5.299
 4486TIP3   OH213414   0.921   1.046   3.666
 4486TIP3    H113415   0.932   0.952   3.652
 4486TIP3    H213416   0.913   1.082   3.578
 4487TIP3   OH213417   1.705   1.458   4.357
 4487TIP3    H113418   1.622   1.506   4.351
 4487TIP3    H213419   1.707   1.404   4.278
 4488TIP3   OH213420   4.085   3.993   5.565
 4488TIP3    H113421   4.019   4.055   5.534
 4488TIP3    H213422   4.060   3.974   5.655
 4489TIP3   OH213423   2.499   5.937   2.826
 4489TIP3    H113424   2.415   5.952   2.783
 4489TIP3    H213425   2.564   5.952   2.758
 4490TIP3   OH213426   5.678   0.581   5.611
 4490TIP3    H113427   5.681   0.666   5.568
 4490TIP3    H213428   5.608   0.533   5.566
 4491TIP3   OH213429   7.176   3.664   2.151
 4491TIP3    H113430   7.129   3.619   2.080
 4491TIP3    H213431   7.239   3.720   2.105
 4492TIP3   OH213432   4.207   0.724   1.388
 4492TIP3    H113433   4.189   0.763   1.303
 4492TIP3    H213434   4.183   0.792   1.451
 4493TIP3   OH213435   6.034   2.116   5.605
 4493TIP3    H113436   6.122   2.140   5.636
 4493TIP3    H213437   5.976   2.179   5.647
 4494TIP3   OH213438   4.939   4.086   2.910
 4494TIP3    H113439   4.893   4.166   2.935
 4494TIP3    H213440   5.027   4.096   2.947
 4495TIP3   OH213441   1.410   2.548   3.199
 4495TIP3    H113442   1.318   2.539   3.223
 4495TIP3    H213443   1.451   2.468   3.229
 4496TIP3   OH213444   0.532   0.429   2.460
 4496TIP3    H113445   0.516   0.513   2.503
 4496TIP3    H213446   0.446   0.386   2.461
 4497TIP3   OH213447   1.610   5.357   5.093
 4497TIP3    H113448   1.630   5.275   5.139
 4497TIP3    H213449   1.678   5.418   5.123
 4498TIP3   OH213450   0.925   5.970   1.337
 4498TIP3    H113451   0.894   6.030   1.404
 4498TIP3    H213452   0.949   5.890   1.385
 4499TIP3   OH213453   7.229   2.636   3.289
 4499TIP3    H113454   7.262   2.603   3.373
 4499TIP3    H213455   7.142   2.597   3.281
 4500TIP3   OH213456   4.378   6.342   5.645
 4500TIP3    H113457   4.363   6.414   5.583
 4500TIP3    H213458   4.291   6.321   5.678
 4501TIP3   OH213459   1.819   2.183   1.848
 4501TIP3    H113460   1.794   2.155   1.936
 4501TIP3    H213461   1.913   2.162   1.843
 4502TIP3   OH213462   8.012   3.851   1.215
 4502TIP3    H113463   8.055   3.765   1.217
 4502TIP3    H213464   8.066   3.903   1.157
 4503TIP3   OH213465   0.710   3.953   4.927
 4503TIP3    H113466   0.684   3.932   5.017
 4503TIP3    H213467   0.652   3.899   4.873
 4504TIP3   OH213468   6.983   0.551   6.045
 4504TIP3    H113469   7.042   0.624   6.023
 4504TIP3    H213470   6.979   0.551   6.140
 4505TIP3   OH213471   2.344   4.719   1.258
 4505TIP3    H113472   2.380   4.718   1.347
 4505TIP3    H213473   2.418   4.698   1.201
 4506TIP3   OH213474   4.774   7.074   3.415
 4506TIP3    H113475   4.807   7.148   3.466
 4506TIP3    H213476   4.831   7.071   3.338
 4507TIP3   OH213477   6.930   5.009   1.200
 4507TIP3    H113478   7.006   4.969   1.160
 4507TIP3    H213479   6.963   5.090   1.240
 4508TIP3   OH213480   0.131   0.994   2.617
 4508TIP3    H113481   0.084   0.987   2.533
 4508TIP3    H213482   0.220   0.967   2.596
 4509TIP3   OH213483   4.253   1.257   1.210
 4509TIP3    H113484   4.306   1.334   1.191
 4509TIP3    H213485   4.301   1.184   1.170
 4510TIP3   OH213486   1.012   3.548   5.587
 4510TIP3    H113487   0.966   3.556   5.503
 4510TIP3    H213488   0.956   3.490   5.639
 4511TIP3   OH213489   3.335   1.821   3.800
 4511TIP3    H113490   3.321   1.821   3.895
 4511TIP3    H213491   3.377   1.737   3.782
 4512TIP3   OH213492   2.994   7.600   2.717
 4512TIP3    H113493   2.922   7.592   2.780
 4512TIP3    H213494   2.995   7.517   2.670
 4513TIP3   OH213495   4.954   0.260   1.338
 4513TIP3    H113496   4.950   0.194   1.268
 4513TIP3    H213497   4.885   0.234   1.399
 4514TIP3   OH213498   0.523   3.354   2.820
 4514TIP3    H113499   0.502   3.438   2.860
 4514TIP3    H213500   0.587   3.375   2.752
 4515TIP3   OH213501   4.071   3.646   0.596
 4515TIP3    H113502   4.157   3.643   0.638
 4515TIP3    H213503   4.071   3.728   0.547
 4516TIP3   OH213504   3.209   1.100   1.446
 4516TIP3    H113505   3.181   1.188   1.422
 4516TIP3    H213506   3.155   1.042   1.392
 4517TIP3   OH213507   6.378   6.673   3.600
 4517TIP3    H113508   6.455   6.619   3.580
 4517TIP3    H213509   6.325   6.670   3.520
 4518TIP3   OH213510   5.306   0.500   2.779
 4518TIP3    H113511   5.243   0.526   2.846
 4518TIP3    H213512   5.324   0.407   2.798
 4519TIP3   OH213513   3.023   0.372   4.812
 4519TIP3    H113514   3.031   0.440   4.880
 4519TIP3    H213515   2.981   0.299   4.856
 4520TIP3   OH213516   5.562   7.268   5.127
 4520TIP3    H113517   5.517   7.307   5.202
 4520TIP3    H213518   5.531   7.177   5.126
 4521TIP3   OH213519   2.022   4.379   0.591
 4521TIP3    H113520   1.982   4.295   0.610
 4521TIP3    H213521   1.953   4.431   0.552
 4522TIP3   OH213522   5.187   4.153   4.908
 4522TIP3    H113523   5.236   4.228   4.942
 4522TIP3    H213524   5.218   4.079   4.961
 4523TIP3   OH213525   2.493   1.022   0.757
 4523TIP3    H113526   2.427   1.003   0.691
 4523TIP3    H213527   2.468   0.968   0.832
 4524TIP3   OH213528   0.227   5.091   5.414
 4524TIP3    H113529   0.230   5.180   5.379
 4524TIP3    H213530   0.314   5.055   5.396
 4525TIP3   OH213531   0.105   7.272   5.419
 4525TIP3    H113532   0.158   7.341   5.458
 4525TIP3    H213533   0.036   7.318   5.372
 4526TIP3   OH213534   4.625   3.254   4.862
 4526TIP3    H113535   4.658   3.341   4.842
 4526TIP3    H213536   4.596   3.260   4.953
 4527TIP3   OH213537   6.459   7.701   5.262
 4527TIP3    H113538   6.365   7.707   5.244
 4527TIP3    H213539   6.486   7.790   5.285
 4528TIP3   OH213540   1.806   7.773   4.931
 4528TIP3    H113541   1.794   7.809   5.019
 4528TIP3    H213542   1.767   7.686   4.935
 4529TIP3   OH213543   1.433   2.129   4.748
 4529TIP3    H113544   1.481   2.094   4.673
 4529TIP3    H213545   1.470   2.217   4.761
 4530TIP3   OH213546   3.150   7.857   4.890
 4530TIP3    H113547   3.193   7.793   4.947
 4530TIP3    H213548   3.153   7.817   4.803
 4531TIP3   OH213549   4.150   6.822   6.105
 4531TIP3    H113550   4.180   6.848   6.018
 4531TIP3    H213551   4.083   6.886   6.127
 4532TIP3   OH213552   7.000   6.027   4.012
 4532TIP3    H113553   6.931   6.008   4.076
 4532TIP3    H213554   7.035   6.112   4.040
 4533TIP3   OH213555   0.609   6.537   0.093
 4533TIP3    H113556   0.570   6.623   0.104
 4533TIP3    H213557   0.577   6.486   0.167
 4534TIP3   OH213558   5.201   3.292   5.186
 4534TIP3    H113559   5.276   3.339   5.150
 4534TIP3    H213560   5.239   3.214   5.227
 4535TIP3   OH213561   7.564   6.526   6.471
 4535TIP3    H113562   7.584   6.578   6.549
 4535TIP3    H213563   7.556   6.590   6.400
 4536TIP3   OH213564   1.593   1.385   4.626
 4536TIP3    H113565   1.647   1.411   4.551
 4536TIP3    H213566   1.503   1.390   4.595
 4537TIP3   OH213567   6.301   4.144   3.008
 4537TIP3    H113568   6.269   4.100   2.929
 4537TIP3    H213569   6.351   4.077   3.054
 4538TIP3   OH213570   6.044   3.771   0.091
 4538TIP3    H113571   6.111   3.705   0.107
 4538TIP3    H213572   6.060   3.801   0.001
 4539TIP3   OH213573   5.833   0.567   2.203
 4539TIP3    H113574   5.927   0.571   2.186
 4539TIP3    H213575   5.825   0.574   2.298
 4540TIP3   OH213576   0.429   1.118   1.157
 4540TIP3    H113577   0.390   1.051   1.213
 4540TIP3    H213578   0.381   1.198   1.180
 4541TIP3   OH213579   0.524   1.826   5.917
 4541TIP3    H113580   0.555   1.843   6.006
 4541TIP3    H213581   0.507   1.732   5.915
 4542TIP3   OH213582   6.441   5.801   4.372
 4542TIP3    H113583   6.363   5.850   4.398
 4542TIP3    H213584   6.503   5.868   4.343
 4543TIP3   OH213585   1.838   4.240   1.647
 4543TIP3    H113586   1.891   4.308   1.689
 4543TIP3    H213587   1.898   4.197   1.587
 4544TIP3   OH213588   6.408   0.161   4.113
 4544TIP3    H113589   6.454   0.220   4.053
 4544TIP3    H213590   6.396   0.080   4.063
 4545TIP3   OH213591   6.033   1.722   6.428
 4545TIP3    H113592   6.042   1.657   6.358
 4545TIP3    H213593   6.087   1.689   6.499
 4546TIP3   OH213594   5.285   3.335   3.622
 4546TIP3    H113595   5.333   3.403   3.574
 4546TIP3    H213596   5.194   3.364   3.618
 4547TIP3   OH213597   1.706   6.364   4.401
 4547TIP3    H113598   1.758   6.288   4.376
 4547TIP3    H213599   1.765   6.417   4.455
 4548TIP3   OH213600   6.196   6.827   2.418
 4548TIP3    H113601   6.249   6.870   2.351
 4548TIP3    H213602   6.236   6.854   2.501
 4549TIP3   OH213603   4.212   3.442   1.439
 4549TIP3    H113604   4.279   3.495   1.482
 4549TIP3    H213605   4.253   3.411   1.358
 4550TIP3   OH213606   0.402   6.792   4.249
 4550TIP3    H113607   0.322   6.808   4.199
 4550TIP3    H213608   0.444   6.879   4.255
 4551TIP3   OH213609   2.525   1.610   0.126
 4551TIP3    H113610   2.492   1.593   0.038
 4551TIP3    H213611   2.467   1.561   0.184
 4552TIP3   OH213612   7.137   0.876   1.414
 4552TIP3    H113613   7.120   0.960   1.457
 4552TIP3    H213614   7.050   0.837   1.404
 4553TIP3   OH213615   4.972   6.109   6.481
 4553TIP3    H113616   4.963   6.190   6.531
 4553TIP3    H213617   4.885   6.094   6.445
 4554TIP3   OH213618   4.778   4.690   4.304
 4554TIP3    H113619   4.721   4.762   4.275
 4554TIP3    H213620   4.810   4.719   4.389
 4555TIP3   OH213621   0.977   6.639   4.416
 4555TIP3    H113622   1.072   6.643   4.400
 4555TIP3    H213623   0.951   6.730   4.429
 4556TIP3   OH213624   0.085   1.972   1.736
 4556TIP3    H113625   0.117   1.934   1.818
 4556TIP3    H213626   0.161   2.015   1.698
 4557TIP3   OH213627   0.976   4.361   3.747
 4557TIP3    H113628   0.894   4.401   3.775
 4557TIP3    H213629   0.974   4.366   3.652
 4558TIP3   OH213630   1.456   0.887   2.681
 4558TIP3    H113631   1.380   0.883   2.624
 4558TIP3    H213632   1.454   0.804   2.730
 4559TIP3   OH213633   0.299   1.607   3.297
 4559TIP3    H113634   0.383   1.650   3.278
 4559TIP3    H213635   0.321   1.514   3.306
 4560TIP3   OH213636   4.913   2.414   2.604
 4560TIP3    H113637   4.943   2.386   2.517
 4560TIP3    H213638   4.985   2.469   2.637
 4561TIP3   OH213639   0.348   1.764   1.034
 4561TIP3    H113640   0.253   1.755   1.026
 4561TIP3    H213641   0.367   1.738   1.124
 4562TIP3   OH213642   1.357   6.033   0.364
 4562TIP3    H113643   1.333   5.971   0.295
 4562TIP3    H213644   1.344   6.119   0.324
 4563TIP3   OH213645   3.007   7.214   0.260
 4563TIP3    H113646   2.926   7.242   0.217
 4563TIP3    H213647   2.986   7.128   0.297
 4564TIP3   OH213648   7.943   1.412   1.122
 4564TIP3    H113649   7.969   1.399   1.213
 4564TIP3    H213650   7.964   1.503   1.103
 4565TIP3   OH213651   2.895   2.638   6.554
 4565TIP3    H113652   2.980   2.680   6.568
 4565TIP3    H213653   2.872   2.661   6.463
 4566TIP3   OH213654   6.379   4.820   3.590
 4566TIP3    H113655   6.349   4.862   3.509
 4566TIP3    H213656   6.299   4.810   3.642
 4567TIP3   OH213657   0.380   1.984   6.366
 4567TIP3    H113658   0.459   1.945   6.404
 4567TIP3    H213659   0.391   2.078   6.377
 4568TIP3   OH213660   3.505   0.535   1.716
 4568TIP3    H113661   3.495   0.452   1.762
 4568TIP3    H213662   3.520   0.511   1.624
 4569TIP3   OH213663   0.968   6.737   1.684
 4569TIP3    H113664   0.963   6.728   1.779
 4569TIP3    H213665   0.947   6.829   1.668
 4570TIP3   OH213666   7.298   3.608   5.245
 4570TIP3    H113667   7.278   3.525   5.201
 4570TIP3    H213668   7.308   3.671   5.174
 4571TIP3   OH213669   2.804   3.111   1.629
 4571TIP3    H113670   2.741   3.167   1.584
 4571TIP3    H213671   2.773   3.022   1.613
 4572TIP3   OH213672   4.757   6.103   5.661
 4572TIP3    H113673   4.793   6.108   5.572
 4572TIP3    H213674   4.825   6.062   5.713
 4573TIP3   OH213675   4.539   3.848   1.384
 4573TIP3    H113676   4.619   3.891   1.416
 4573TIP3    H213677   4.545   3.855   1.289
 4574TIP3   OH213678   2.250   7.049   2.705
 4574TIP3    H113679   2.232   7.122   2.647
 4574TIP3    H213680   2.214   7.077   2.790
 4575TIP3   OH213681   1.410   3.830   5.534
 4575TIP3    H113682   1.435   3.751   5.583
 4575TIP3    H213683   1.315   3.823   5.523
 4576TIP3   OH213684   7.575   3.058   2.056
 4576TIP3    H113685   7.651   3.086   2.107
 4576TIP3    H213686   7.503   3.058   2.119
 4577TIP3   OH213687   3.588   1.152   1.765
 4577TIP3    H113688   3.660   1.200   1.724
 4577TIP3    H213689   3.546   1.105   1.692
 4578TIP3   OH213690   7.724   5.751   0.052
 4578TIP3    H113691   7.813   5.782   0.071
 4578TIP3    H213692   7.718   5.666   0.095
 4579TIP3   OH213693   6.045   3.038   4.347
 4579TIP3    H113694   5.963   3.052   4.396
 4579TIP3    H213695   6.027   2.961   4.292
 4580TIP3   OH213696   2.250   6.326   1.321
 4580TIP3    H113697   2.179   6.337   1.257
 4580TIP3    H213698   2.281   6.414   1.338
 4581TIP3   OH213699   7.527   1.612   2.758
 4581TIP3    H113700   7.536   1.522   2.791
 4581TIP3    H213701   7.590   1.616   2.686
 4582TIP3   OH213702   8.120   1.457   5.667
 4582TIP3    H113703   8.187   1.524   5.654
 4582TIP3    H213704   8.107   1.453   5.761
 4583TIP3   OH213705   1.335   4.898   4.986
 4583TIP3    H113706   1.265   4.958   4.961
 4583TIP3    H213707   1.307   4.813   4.955
 4584TIP3   OH213708   1.734   4.605   0.202
 4584TIP3    H113709   1.806   4.542   0.213
 4584TIP3    H213710   1.734   4.624   0.109
 4585TIP3   OH213711   2.276   6.243   0.041
 4585TIP3    H113712   2.329   6.163   0.045
 4585TIP3    H213713   2.227   6.235  -0.041
 4586TIP3   OH213714   7.815   4.195   5.134
 4586TIP3    H113715   7.834   4.283   5.103
 4586TIP3    H213716   7.729   4.201   5.174
 4587TIP3   OH213717   3.171   0.675   5.811
 4587TIP3    H113718   3.251   0.657   5.861
 4587TIP3    H213719   3.144   0.589   5.778
 4588TIP3   OH213720   6.516   4.757  -0.022
 4588TIP3    H113721   6.569   4.818   0.029
 4588TIP3    H213722   6.426   4.790  -0.014
 4589TIP3   OH213723   4.707   5.183   2.653
 4589TIP3    H113724   4.742   5.271   2.662
 4589TIP3    H213725   4.650   5.187   2.576
 4590TIP3   OH213726   5.791   6.927   5.428
 4590TIP3    H113727   5.744   7.009   5.410
 4590TIP3    H213728   5.861   6.924   5.363
 4591TIP3   OH213729   4.786   5.420   2.764
 4591TIP3    H113730   4.842   5.494   2.791
 4591TIP3    H213731   4.785   5.362   2.839
 4592TIP3   OH213732   6.107   3.638   5.778
 4592TIP3    H113733   6.199   3.618   5.794
 4592TIP3    H213734   6.072   3.558   5.737
 4593TIP3   OH213735   7.738   6.032   6.629
 4593TIP3    H113736   7.828   6.059   6.648
 4593TIP3    H213737   7.690   6.053   6.708
 4594TIP3   OH213738   4.996   6.452   1.981
 4594TIP3    H113739   5.060   6.521   1.996
 4594TIP3    H213740   4.967   6.426   2.069
 4595TIP3   OH213741   7.298   6.316   4.924
 4595TIP3    H113742   7.216   6.334   4.971
 4595TIP3    H213743   7.302   6.384   4.857
 4596TIP3   OH213744   5.118   5.994   0.844
 4596TIP3    H113745   5.103   6.048   0.921
 4596TIP3    H213746   5.108   5.904   0.875
 4597TIP3   OH213747   1.366   5.117   2.494
 4597TIP3    H113748   1.370   5.213   2.497
 4597TIP3    H213749   1.370   5.090   2.586
 4598TIP3   OH213750   1.968   2.660   2.768
 4598TIP3    H113751   1.904   2.696   2.706
 4598TIP3    H213752   1.975   2.727   2.836
 4599TIP3   OH213753   2.450   6.921   6.390
 4599TIP3    H113754   2.544   6.941   6.398
 4599TIP3    H213755   2.412   6.956   6.471
 4600TIP3   OH213756   5.232   1.341   4.289
 4600TIP3    H113757   5.325   1.322   4.276
 4600TIP3    H213758   5.186   1.265   4.254
 4601TIP3   OH213759   1.063   3.187   4.013
 4601TIP3    H113760   1.036   3.142   4.093
 4601TIP3    H213761   1.007   3.264   4.009
 4602TIP3   OH213762   7.613   6.767   3.800
 4602TIP3    H113763   7.615   6.773   3.896
 4602TIP3    H213764   7.577   6.680   3.782
 4603TIP3   OH213765   4.379   2.554   2.786
 4603TIP3    H113766   4.412   2.609   2.857
 4603TIP3    H213767   4.331   2.484   2.830
 4604TIP3   OH213768   7.475   0.049   3.019
 4604TIP3    H113769   7.466  -0.013   2.947
 4604TIP3    H213770   7.504   0.130   2.978
 4605TIP3   OH213771   6.471   5.893   5.303
 4605TIP3    H113772   6.553   5.942   5.301
 4605TIP3    H213773   6.496   5.803   5.322
 4606TIP3   OH213774   5.693   5.835   2.699
 4606TIP3    H113775   5.721   5.833   2.791
 4606TIP3    H213776   5.737   5.911   2.662
 4607TIP3   OH213777   5.848   3.734   0.908
 4607TIP3    H113778   5.783   3.757   0.975
 4607TIP3    H213779   5.916   3.801   0.917
 4608TIP3   OH213780   5.660   2.507   2.685
 4608TIP3    H113781   5.688   2.591   2.648
 4608TIP3    H213782   5.642   2.452   2.610
 4609TIP3   OH213783   5.094   3.758   5.199
 4609TIP3    H113784   5.022   3.790   5.145
 4609TIP3    H213785   5.113   3.671   5.166
 4610TIP3   OH213786   3.593   4.821   5.180
 4610TIP3    H113787   3.545   4.825   5.263
 4610TIP3    H213788   3.608   4.728   5.165
 4611TIP3   OH213789   1.287   5.838   5.972
 4611TIP3    H113790   1.234   5.917   5.972
 4611TIP3    H213791   1.353   5.853   6.039
 4612TIP3   OH213792   0.217   6.486   6.215
 4612TIP3    H113793   0.152   6.532   6.269
 4612TIP3    H213794   0.207   6.394   6.239
 4613TIP3   OH213795   2.988   0.575   6.484
 4613TIP3    H113796   2.944   0.577   6.569
 4613TIP3    H213797   2.975   0.486   6.452
 4614TIP3   OH213798   7.809   0.883   4.576
 4614TIP3    H113799   7.815   0.957   4.516
 4614TIP3    H213800   7.836   0.807   4.523
 4615TIP3   OH213801   6.496   5.931   3.280
 4615TIP3    H113802   6.567   5.924   3.344
 4615TIP3    H213803   6.417   5.943   3.333
 4616TIP3   OH213804   1.793   6.984   0.830
 4616TIP3    H113805   1.778   6.898   0.791
 4616TIP3    H213806   1.717   7.036   0.804
 4617TIP3   OH213807   6.748   3.046   5.488
 4617TIP3    H113808   6.747   2.953   5.512
 4617TIP3    H213809   6.784   3.090   5.566
 4618TIP3   OH213810   1.130   5.465   1.311
 4618TIP3    H113811   1.126   5.372   1.335
 4618TIP3    H213812   1.043   5.499   1.334
 4619TIP3   OH213813   3.365   6.727   4.322
 4619TIP3    H113814   3.300   6.792   4.348
 4619TIP3    H213815   3.322   6.676   4.254
 4620TIP3   OH213816   0.245   4.480   4.776
 4620TIP3    H113817   0.234   4.499   4.869
 4620TIP3    H213818   0.218   4.561   4.732
 4621TIP3   OH213819   1.301   6.390   2.314
 4621TIP3    H113820   1.385   6.418   2.277
 4621TIP3    H213821   1.243   6.466   2.301
 4622TIP3   OH213822   3.745   0.715   5.372
 4622TIP3    H113823   3.755   0.642   5.433
 4622TIP3    H213824   3.818   0.704   5.310
 4623TIP3   OH213825   4.169   1.334   6.030
 4623TIP3    H113826   4.239   1.268   6.031
 4623TIP3    H213827   4.102   1.299   6.089
 4624TIP3   OH213828   7.523   0.534   4.340
 4624TIP3    H113829   7.506   0.544   4.247
 4624TIP3    H213830   7.585   0.604   4.361
 4625TIP3   OH213831   1.560   6.384   2.679
 4625TIP3    H113832   1.576   6.291   2.698
 4625TIP3    H213833   1.623   6.405   2.610
 4626TIP3   OH213834   2.174   0.712   0.956
 4626TIP3    H113835   2.120   0.734   1.032
 4626TIP3    H213836   2.256   0.759   0.970
 4627TIP3   OH213837   5.385   6.913   6.154
 4627TIP3    H113838   5.396   6.986   6.215
 4627TIP3    H213839   5.427   6.942   6.073
 4628TIP3   OH213840   6.133   0.386   3.715
 4628TIP3    H113841   6.178   0.303   3.701
 4628TIP3    H213842   6.054   0.379   3.661
 4629TIP3   OH213843   8.070   6.824   2.569
 4629TIP3    H113844   8.030   6.910   2.558
 4629TIP3    H213845   8.143   6.839   2.629
 4630TIP3   OH213846   4.516   0.050   0.342
 4630TIP3    H113847   4.440   0.097   0.377
 4630TIP3    H213848   4.478  -0.016   0.285
 4631TIP3   OH213849   6.783   5.847   2.672
 4631TIP3    H113850   6.789   5.926   2.618
 4631TIP3    H213851   6.727   5.788   2.623
 4632TIP3   OH213852   0.410   5.192   3.172
 4632TIP3    H113853   0.369   5.253   3.110
 4632TIP3    H213854   0.479   5.150   3.122
 4633TIP3   OH213855   1.165   4.421   1.438
 4633TIP3    H113856   1.136   4.509   1.414
 4633TIP3    H213857   1.242   4.405   1.383
 4634TIP3   OH213858   2.969   2.218   3.227
 4634TIP3    H113859   2.923   2.194   3.308
 4634TIP3    H213860   2.981   2.136   3.180
 4635TIP3   OH213861   4.958   0.591   3.255
 4635TIP3    H113862   4.985   0.635   3.336
 4635TIP3    H213863   4.882   0.539   3.281
 4636TIP3   OH213864   6.576   5.005   2.908
 4636TIP3    H113865   6.656   5.056   2.893
 4636TIP3    H213866   6.568   4.999   3.003
 4637TIP3   OH213867   6.708   0.779   4.517
 4637TIP3    H113868   6.712   0.874   4.532
 4637TIP3    H213869   6.703   0.770   4.422
 4638TIP3   OH213870   2.605   1.423   6.694
 4638TIP3    H113871   2.642   1.341   6.661
 4638TIP3    H213872   2.530   1.396   6.748
 4639TIP3   OH213873   3.171   3.416   3.812
 4639TIP3    H113874   3.180   3.355   3.739
 4639TIP3    H213875   3.235   3.385   3.876
 4640TIP3   OH213876   2.665   3.150   3.089
 4640TIP3    H113877   2.675   3.237   3.127
 4640TIP3    H213878   2.692   3.159   2.998
 4641TIP3   OH213879   0.504   6.844   3.964
 4641TIP3    H113880   0.417   6.808   3.944
 4641TIP3    H213881   0.488   6.906   4.036
 4642TIP3   OH213882   4.256   0.746   4.327
 4642TIP3    H113883   4.325   0.700   4.280
 4642TIP3    H213884   4.175   0.719   4.282
 4643TIP3   OH213885   3.825   1.343   0.535
 4643TIP3    H113886   3.807   1.262   0.488
 4643TIP3    H213887   3.901   1.323   0.590
 4644TIP3   OH213888   7.884   3.377   1.222
 4644TIP3    H113889   7.807   3.427   1.247
 4644TIP3    H213890   7.860   3.336   1.139
 4645TIP3   OH213891   4.028   1.468   5.266
 4645TIP3    H113892   4.110   1.445   5.223
 4645TIP3    H213893   3.960   1.430   5.211
 4646TIP3   OH213894   2.931   0.293   3.752
 4646TIP3    H113895   2.862   0.356   3.731
 4646TIP3    H213896   2.960   0.260   3.667
 4647TIP3   OH213897   0.663   3.431   0.976
 4647TIP3    H113898   0.685   3.490   0.903
 4647TIP3    H213899   0.608   3.364   0.936
 4648TIP3   OH213900   0.146   7.004   0.157
 4648TIP3    H113901   0.206   6.948   0.108
 4648TIP3    H213902   0.141   7.084   0.105
 4649TIP3   OH213903   6.122   2.462   5.786
 4649TIP3    H113904   6.146   2.371   5.804
 4649TIP3    H213905   6.064   2.487   5.858
 4650TIP3   OH213906   5.925   4.367   6.222
 4650TIP3    H113907   5.971   4.436   6.269
 4650TIP3    H213908   5.851   4.412   6.181
 4651TIP3   OH213909   7.276   5.521   2.498
 4651TIP3    H113910   7.367   5.550   2.489
 4651TIP3    H213911   7.228   5.601   2.521
 4652TIP3   OH213912   2.157   6.001   1.694
 4652TIP3    H113913   2.064   6.020   1.708
 4652TIP3    H213914   2.157   5.921   1.640
 4653TIP3   OH213915   4.710   1.339   3.241
 4653TIP3    H113916   4.644   1.287   3.195
 4653TIP3    H213917   4.713   1.302   3.329
 4654TIP3   OH213918   8.124   1.157   4.148
 4654TIP3    H113919   8.166   1.074   4.125
 4654TIP3    H213920   8.033   1.135   4.166
 4655TIP3   OH213921   0.848   7.430   6.349
 4655TIP3    H113922   0.815   7.497   6.289
 4655TIP3    H213923   0.824   7.461   6.436
 4656TIP3   OH213924   5.189   4.812   0.225
 4656TIP3    H113925   5.238   4.795   0.145
 4656TIP3    H213926   5.107   4.853   0.195
 4657TIP3   OH213927   4.355   2.901   1.033
 4657TIP3    H113928   4.276   2.904   1.086
 4657TIP3    H213929   4.342   2.826   0.975
 4658TIP3   OH213930   6.847   0.549   4.635
 4658TIP3    H113931   6.797   0.626   4.663
 4658TIP3    H213932   6.788   0.501   4.578
 4659TIP3   OH213933   6.560   6.596   0.120
 4659TIP3    H113934   6.509   6.603   0.200
 4659TIP3    H213935   6.515   6.529   0.068
 4660TIP3   OH213936   1.099   1.335   6.082
 4660TIP3    H113937   1.159   1.303   6.149
 4660TIP3    H213938   1.142   1.413   6.046
 4661TIP3   OH213939   3.108   6.299   4.846
 4661TIP3    H113940   3.054   6.226   4.816
 4661TIP3    H213941   3.131   6.346   4.765
 4662TIP3   OH213942   0.143   6.863   0.610
 4662TIP3    H113943   0.150   6.956   0.633
 4662TIP3    H213944   0.079   6.862   0.539
 4663TIP3   OH213945   7.158   7.382   6.180
 4663TIP3    H113946   7.194   7.437   6.250
 4663TIP3    H213947   7.122   7.444   6.117
 4664TIP3   OH213948   5.211   5.311   2.486
 4664TIP3    H113949   5.155   5.238   2.514
 4664TIP3    H213950   5.300   5.274   2.485
 4665TIP3   OH213951   7.918   1.087   5.753
 4665TIP3    H113952   7.982   1.075   5.682
 4665TIP3    H213953   7.840   1.121   5.709
 4666TIP3   OH213954   5.384   4.246   2.305
 4666TIP3    H113955   5.341   4.185   2.365
 4666TIP3    H213956   5.314   4.275   2.247
 4667TIP3   OH213957   1.232   3.469   2.132
 4667TIP3    H113958   1.322   3.440   2.115
 4667TIP3    H213959   1.240   3.528   2.207
 4668TIP3   OH213960   7.786   6.065   0.607
 4668TIP3    H113961   7.780   6.107   0.522
 4668TIP3    H213962   7.712   6.099   0.657
 4669TIP3   OH213963   3.773   6.844   2.645
 4669TIP3    H113964   3.736   6.812   2.727
 4669TIP3    H213965   3.808   6.766   2.602
 4670TIP3   OH213966   4.083   3.048   5.774
 4670TIP3    H113967   4.079   3.013   5.862
 4670TIP3    H213968   4.119   3.136   5.784
 4671TIP3   OH213969   6.429   7.756   0.314
 4671TIP3    H113970   6.484   7.798   0.248
 4671TIP3    H213971   6.464   7.667   0.321
 4672TIP3   OH213972   0.153   4.437   5.920
 4672TIP3    H113973   0.191   4.525   5.921
 4672TIP3    H213974   0.062   4.449   5.946
 4673TIP3   OH213975   4.843   7.002   6.189
 4673TIP3    H113976   4.810   6.914   6.207
 4673TIP3    H213977   4.899   7.023   6.264
 4674TIP3   OH213978   3.178   3.637   3.286
 4674TIP3    H113979   3.189   3.638   3.191
 4674TIP3    H213980   3.264   3.660   3.321
 4675TIP3   OH213981   4.300   6.023   0.874
 4675TIP3    H113982   4.312   6.117   0.864
 4675TIP3    H213983   4.252   6.013   0.956
 4676TIP3   OH213984   6.179   6.566   5.492
 4676TIP3    H113985   6.116   6.517   5.439
 4676TIP3    H213986   6.230   6.498   5.537
 4677TIP3   OH213987   6.716   6.296   4.192
 4677TIP3    H113988   6.674   6.325   4.273
 4677TIP3    H213989   6.803   6.266   4.219
 4678TIP3   OH213990   5.856   7.027   0.799
 4678TIP3    H113991   5.908   6.947   0.791
 4678TIP3    H213992   5.825   7.045   0.710
 4679TIP3   OH213993   6.887   1.152   1.321
 4679TIP3    H113994   6.827   1.215   1.361
 4679TIP3    H213995   6.906   1.089   1.390
 4680TIP3   OH213996   7.473   0.941   0.520
 4680TIP3    H113997   7.384   0.906   0.507
 4680TIP3    H213998   7.511   0.885   0.586
 4681TIP3   OH213999   2.494   5.437   5.354
 4681TIP3    H114000   2.477   5.389   5.273
 4681TIP3    H214001   2.406   5.459   5.387
 4682TIP3   OH214002   0.823   0.884   0.730
 4682TIP3    H114003   0.785   0.798   0.711
 4682TIP3    H214004   0.912   0.864   0.761
 4683TIP3   OH214005   3.031   1.112   3.978
 4683TIP3    H114006   2.983   1.051   3.921
 4683TIP3    H214007   2.982   1.111   4.060
 4684TIP3   OH214008   7.735   4.245   2.110
 4684TIP3    H114009   7.676   4.305   2.155
 4684TIP3    H214010   7.796   4.216   2.178
 4685TIP3   OH214011   5.852   0.194   6.223
 4685TIP3    H114012   5.855   0.258   6.294
 4685TIP3    H214013   5.942   0.163   6.215
 4686TIP3   OH214014   7.460   2.983   4.903
 4686TIP3    H114015   7.373   3.004   4.936
 4686TIP3    H214016   7.462   3.022   4.815
 4687TIP3   OH214017   6.758   6.160   2.071
 4687TIP3    H114018   6.784   6.077   2.032
 4687TIP3    H214019   6.740   6.140   2.162
 4688TIP3   OH214020   2.570   2.168   3.235
 4688TIP3    H114021   2.532   2.130   3.314
 4688TIP3    H214022   2.512   2.138   3.164
 4689TIP3   OH214023   6.490   6.413   4.702
 4689TIP3    H114024   6.582   6.432   4.684
 4689TIP3    H214025   6.490   6.373   4.789
 4690TIP3   OH214026   5.477   2.617   2.942
 4690TIP3    H114027   5.413   2.546   2.951
 4690TIP3    H214028   5.521   2.600   2.859
 4691TIP3   OH214029   1.409   6.900   3.133
 4691TIP3    H114030   1.380   6.949   3.056
 4691TIP3    H214031   1.346   6.924   3.201
 4692TIP3   OH214032   3.217   5.794   1.069
 4692TIP3    H114033   3.124   5.815   1.063
 4692TIP3    H214034   3.247   5.793   0.979
 4693TIP3   OH214035   4.744   0.537   5.733
 4693TIP3    H114036   4.705   0.604   5.789
 4693TIP3    H214037   4.780   0.473   5.794
 4694TIP3   OH214038   4.438   0.820   2.574
 4694TIP3    H114039   4.446   0.883   2.645
 4694TIP3    H214040   4.504   0.848   2.510
 4695TIP3   OH214041   3.413   1.951   5.670
 4695TIP3    H114042   3.398   1.906   5.753
 4695TIP3    H214043   3.349   2.022   5.670
 4696TIP3   OH214044   5.306   7.587   2.700
 4696TIP3    H114045   5.228   7.639   2.720
 4696TIP3    H214046   5.355   7.641   2.637
 4697TIP3   OH214047   6.661   7.322   6.197
 4697TIP3    H114048   6.752   7.315   6.169
 4697TIP3    H214049   6.662   7.292   6.288
 4698TIP3   OH214050   3.482   6.103   2.419
 4698TIP3    H114051   3.525   6.079   2.337
 4698TIP3    H214052   3.417   6.034   2.433
 4699TIP3   OH214053   6.088   2.905   0.443
 4699TIP3    H114054   5.995   2.912   0.422
 4699TIP3    H214055   6.092   2.840   0.514
 4700TIP3   OH214056   2.841   4.189   4.486
 4700TIP3    H114057   2.925   4.186   4.441
 4700TIP3    H214058   2.776   4.171   4.418
 4701TIP3   OH214059   1.716   1.483   6.726
 4701TIP3    H114060   1.633   1.470   6.680
 4701TIP3    H214061   1.702   1.441   6.811
 4702TIP3   OH214062   4.455   7.671   2.278
 4702TIP3    H114063   4.488   7.595   2.326
 4702TIP3    H214064   4.469   7.649   2.186
 4703TIP3   OH214065   5.097   2.850   5.037
 4703TIP3    H114066   5.149   2.780   4.997
 4703TIP3    H214067   5.115   2.927   4.984
 4704TIP3   OH214068   2.410   0.458   3.296
 4704TIP3    H114069   2.371   0.459   3.384
 4704TIP3    H214070   2.456   0.374   3.291
 4705TIP3   OH214071   2.321   2.547   1.987
 4705TIP3    H114072   2.292   2.484   2.054
 4705TIP3    H214073   2.358   2.619   2.037
 4706TIP3   OH214074   6.565   1.666   3.049
 4706TIP3    H114075   6.636   1.677   2.986
 4706TIP3    H214076   6.587   1.726   3.120
 4707TIP3   OH214077   3.206   3.889   1.042
 4707TIP3    H114078   3.176   3.885   1.132
 4707TIP3    H214079   3.211   3.798   1.014
 4708TIP3   OH214080   4.533   0.369   1.671
 4708TIP3    H114081   4.494   0.405   1.592
 4708TIP3    H214082   4.462   0.368   1.735
 4709TIP3   OH214083   6.050   5.448   2.167
 4709TIP3    H114084   5.969   5.431   2.120
 4709TIP3    H214085   6.045   5.541   2.191
 4710TIP3   OH214086   4.143   1.547   0.923
 4710TIP3    H114087   4.098   1.477   0.971
 4710TIP3    H214088   4.084   1.622   0.931
 4711TIP3   OH214089   1.776   0.859   5.352
 4711TIP3    H114090   1.714   0.910   5.300
 4711TIP3    H214091   1.861   0.878   5.313
 4712TIP3   OH214092  -0.001   6.888   5.692
 4712TIP3    H114093   0.039   6.825   5.632
 4712TIP3    H214094  -0.029   6.961   5.636
 4713TIP3   OH214095   4.539   0.183   5.898
 4713TIP3    H114096   4.516   0.118   5.833
 4713TIP3    H214097   4.537   0.136   5.982
 4714TIP3   OH214098   1.261   3.384   3.447
 4714TIP3    H114099   1.240   3.477   3.458
 4714TIP3    H214100   1.286   3.376   3.355
 4715TIP3   OH214101   3.702   3.331   3.317
 4715TIP3    H114102   3.698   3.239   3.289
 4715TIP3    H214103   3.683   3.381   3.238
 4716TIP3   OH214104   6.245   3.405   3.611
 4716TIP3    H114105   6.283   3.380   3.695
 4716TIP3    H214106   6.196   3.485   3.630
 4717TIP3   OH214107   0.219   2.878   0.363
 4717TIP3    H114108   0.191   2.846   0.448
 4717TIP3    H214109   0.149   2.937   0.335
 4718TIP3   OH214110   5.405   6.651   0.152
 4718TIP3    H114111   5.445   6.672   0.068
 4718TIP3    H214112   5.311   6.660   0.137
 4719TIP3   OH214113   2.827   3.233   6.520
 4719TIP3    H114114   2.778   3.313   6.501
 4719TIP3    H214115   2.784   3.165   6.469
 4720TIP3   OH214116   0.954   7.703   2.848
 4720TIP3    H114117   0.935   7.726   2.757
 4720TIP3    H214118   1.006   7.623   2.842
 4721TIP3   OH214119   7.388   1.020   4.166
 4721TIP3    H114120   7.458   0.976   4.118
 4721TIP3    H214121   7.333   1.059   4.099
 4722TIP3   OH214122   8.186   3.238   3.859
 4722TIP3    H114123   8.140   3.252   3.776
 4722TIP3    H214124   8.256   3.303   3.859
 4723TIP3   OH214125   8.194   5.437   4.726
 4723TIP3    H114126   8.223   5.397   4.808
 4723TIP3    H214127   8.128   5.376   4.692
 4724TIP3   OH214128   6.014   2.691   2.628
 4724TIP3    H114129   6.011   2.717   2.720
 4724TIP3    H214130   6.065   2.759   2.585
 4725TIP3   OH214131   0.571   0.211   0.938
 4725TIP3    H114132   0.665   0.198   0.933
 4725TIP3    H214133   0.539   0.191   0.850
 4726TIP3   OH214134   1.539   4.760   3.984
 4726TIP3    H114135   1.459   4.709   3.996
 4726TIP3    H214136   1.544   4.776   3.890
 4727TIP3   OH214137   3.828   2.019  -0.025
 4727TIP3    H114138   3.775   1.980   0.045
 4727TIP3    H214139   3.782   1.995  -0.106
 4728TIP3   OH214140   0.912   5.687   3.934
 4728TIP3    H114141   0.982   5.731   3.981
 4728TIP3    H214142   0.907   5.600   3.974
 4729TIP3   OH214143   6.681   4.475   4.088
 4729TIP3    H114144   6.689   4.519   4.173
 4729TIP3    H214145   6.685   4.381   4.110
 4730TIP3   OH214146   7.851   1.214   1.493
 4730TIP3    H114147   7.852   1.119   1.480
 4730TIP3    H214148   7.796   1.227   1.570
 4731TIP3   OH214149   2.142   7.274   5.816
 4731TIP3    H114150   2.050   7.247   5.807
 4731TIP3    H214151   2.185   7.198   5.856
 4732TIP3   OH214152   0.590   0.344   5.616
 4732TIP3    H114153   0.645   0.301   5.681
 4732TIP3    H214154   0.612   0.437   5.624
 4733TIP3   OH214155   7.363   5.834   1.035
 4733TIP3    H114156   7.440   5.866   0.988
 4733TIP3    H214157   7.353   5.896   1.108
 4734TIP3   OH214158   7.069   3.625   3.482
 4734TIP3    H114159   6.980   3.602   3.510
 4734TIP3    H214160   7.064   3.718   3.460
 4735TIP3   OH214161   4.908   4.811   2.892
 4735TIP3    H114162   4.849   4.748   2.934
 4735TIP3    H214163   4.932   4.770   2.809
 4736TIP3   OH214164   8.133   2.552   6.460
 4736TIP3    H114165   8.061   2.567   6.399
 4736TIP3    H214166   8.090   2.517   6.539
 4737TIP3   OH214167   2.391   4.791   2.976
 4737TIP3    H114168   2.362   4.855   3.040
 4737TIP3    H214169   2.345   4.710   3.001
 4738TIP3   OH214170   0.122   4.300   0.638
 4738TIP3    H114171   0.212   4.314   0.667
 4738TIP3    H214172   0.089   4.388   0.620
 4739TIP3   OH214173   3.959   2.663   2.636
 4739TIP3    H114174   3.985   2.755   2.648
 4739TIP3    H214175   3.905   2.663   2.558
 4740TIP3   OH214176   6.757   4.689   4.569
 4740TIP3    H114177   6.780   4.643   4.649
 4740TIP3    H214178   6.758   4.782   4.593
 4741TIP3   OH214179   5.985   5.989   1.418
 4741TIP3    H114180   6.078   6.012   1.409
 4741TIP3    H214181   5.948   6.061   1.469
 4742TIP3   OH214182   0.974   2.188   3.303
 4742TIP3    H114183   0.907   2.123   3.280
 4742TIP3    H214184   1.040   2.180   3.235
 4743TIP3   OH214185   8.187   6.757   6.828
 4743TIP3    H114186   8.108   6.703   6.831
 4743TIP3    H214187   8.242   6.716   6.762
 4744TIP3   OH214188   4.898   4.038   2.592
 4744TIP3    H114189   4.951   4.039   2.671
 4744TIP3    H214190   4.808   4.052   2.623
 4745TIP3   OH214191   0.215   6.730   4.457
 4745TIP3    H114192   0.299   6.749   4.415
 4745TIP3    H214193   0.210   6.634   4.460
 4746TIP3   OH214194   6.204   3.962   4.171
 4746TIP3    H114195   6.244   3.902   4.234
 4746TIP3    H214196   6.277   3.995   4.119
 4747TIP3   OH214197   3.211   7.271   6.192
 4747TIP3    H114198   3.283   7.223   6.151
 4747TIP3    H214199   3.164   7.311   6.119
 4748TIP3   OH214200   3.990   0.554   6.389
 4748TIP3    H114201   4.063   0.500   6.357
 4748TIP3    H214202   4.032   0.636   6.415
 4749TIP3   OH214203   0.201   6.459   4.434
 4749TIP3    H114204   0.194   6.409   4.352
 4749TIP3    H214205   0.146   6.410   4.496
 4750TIP3   OH214206   2.348   3.149   6.009
 4750TIP3    H114207   2.358   3.243   5.996
 4750TIP3    H214208   2.340   3.138   6.104
 4751TIP3   OH214209   7.287   2.918   3.880
 4751TIP3    H114210   7.237   2.999   3.890
 4751TIP3    H214211   7.377   2.946   3.861
 4752TIP3   OH214212   5.582   7.182   2.534
 4752TIP3    H114213   5.620   7.110   2.584
 4752TIP3    H214214   5.637   7.189   2.456
 4753TIP3   OH214215   6.279   2.278   0.988
 4753TIP3    H114216   6.353   2.218   0.997
 4753TIP3    H214217   6.298   2.329   0.909
 4754TIP3   OH214218   5.993   2.324   2.771
 4754TIP3    H114219   6.040   2.290   2.695
 4754TIP3    H214220   5.969   2.246   2.822
 4755TIP3   OH214221   1.911   1.018   1.053
 4755TIP3    H114222   1.959   0.948   1.097
 4755TIP3    H214223   1.866   0.975   0.980
 4756TIP3   OH214224   6.127   5.929   0.340
 4756TIP3    H114225   6.114   5.989   0.266
 4756TIP3    H214226   6.207   5.882   0.319
 4757TIP3   OH214227   6.380   2.482   6.347
 4757TIP3    H114228   6.408   2.545   6.280
 4757TIP3    H214229   6.403   2.524   6.430
 4758TIP3   OH214230   7.842   0.394   0.383
 4758TIP3    H114231   7.795   0.414   0.463
 4758TIP3    H214232   7.921   0.448   0.387
 4759TIP3   OH214233   0.020   3.324   6.363
 4759TIP3    H114234   0.073   3.265   6.416
 4759TIP3    H214235   0.083   3.378   6.316
 4760TIP3   OH214236   6.243   5.058   2.298
 4760TIP3    H114237   6.298   5.062   2.220
 4760TIP3    H214238   6.263   4.973   2.337
 4761TIP3   OH214239   6.229   3.924   5.867
 4761TIP3    H114240   6.232   3.902   5.774
 4761TIP3    H214241   6.138   3.949   5.883
 4762TIP3   OH214242   5.584   7.786   4.926
 4762TIP3    H114243   5.563   7.692   4.925
 4762TIP3    H214244   5.673   7.790   4.963
 4763TIP3   OH214245   6.223   1.269   0.105
 4763TIP3    H114246   6.319   1.273   0.098
 4763TIP3    H214247   6.192   1.308   0.023
 4764TIP3   OH214248   2.115   3.574   5.282
 4764TIP3    H114249   2.020   3.588   5.277
 4764TIP3    H214250   2.130   3.546   5.372
 4765TIP3   OH214251   0.859   2.130   2.964
 4765TIP3    H114252   0.860   2.043   3.004
 4765TIP3    H214253   0.831   2.115   2.874
 4766TIP3   OH214254   0.331   3.803   2.994
 4766TIP3    H114255   0.387   3.832   2.922
 4766TIP3    H214256   0.350   3.863   3.065
 4767TIP3   OH214257   0.859   7.215   5.583
 4767TIP3    H114258   0.898   7.278   5.521
 4767TIP3    H214259   0.915   7.220   5.660
 4768TIP3   OH214260   4.563   4.400   5.203
 4768TIP3    H114261   4.545   4.330   5.266
 4768TIP3    H214262   4.657   4.417   5.212
 4769TIP3   OH214263   0.320   4.607   3.083
 4769TIP3    H114264   0.340   4.700   3.097
 4769TIP3    H214265   0.295   4.575   3.170
 4770TIP3   OH214266   1.513   0.401   2.311
 4770TIP3    H114267   1.601   0.395   2.273
 4770TIP3    H214268   1.492   0.310   2.334
 4771TIP3   OH214269   2.134   4.864   0.941
 4771TIP3    H114270   2.080   4.934   0.905
 4771TIP3    H214271   2.148   4.889   1.033
 4772TIP3   OH214272   4.224   0.154   3.868
 4772TIP3    H114273   4.275   0.200   3.802
 4772TIP3    H214274   4.157   0.217   3.895
 4773TIP3   OH214275   0.613   4.874   1.131
 4773TIP3    H114276   0.571   4.788   1.123
 4773TIP3    H214277   0.608   4.912   1.044
 4774TIP3   OH214278   2.351   5.671   2.770
 4774TIP3    H114279   2.411   5.597   2.758
 4774TIP3    H214280   2.321   5.692   2.681
 4775TIP3   OH214281   2.750   5.591   6.587
 4775TIP3    H114282   2.822   5.605   6.526
 4775TIP3    H214283   2.786   5.533   6.654
 4776TIP3   OH214284   3.271   4.661   5.442
 4776TIP3    H114285   3.280   4.591   5.378
 4776TIP3    H214286   3.357   4.704   5.445
 4777TIP3   OH214287   6.493   0.305   3.571
 4777TIP3    H114288   6.554   0.329   3.641
 4777TIP3    H214289   6.420   0.262   3.616
 4778TIP3   OH214290   0.257   7.496   2.625
 4778TIP3    H114291   0.286   7.575   2.670
 4778TIP3    H214292   0.309   7.426   2.665
 4779TIP3   OH214293   2.556   1.862   6.741
 4779TIP3    H114294   2.587   1.838   6.654
 4779TIP3    H214295   2.626   1.835   6.800
 4780TIP3   OH214296   2.802   2.420   6.330
 4780TIP3    H114297   2.850   2.436   6.249
 4780TIP3    H214298   2.730   2.483   6.328
 4781TIP3   OH214299   3.197   5.633   1.471
 4781TIP3    H114300   3.285   5.617   1.504
 4781TIP3    H214301   3.176   5.721   1.503
 4782TIP3   OH214302   2.573   3.648   6.400
 4782TIP3    H114303   2.560   3.701   6.321
 4782TIP3    H214304   2.534   3.563   6.378
 4783TIP3   OH214305   7.603   6.754   4.619
 4783TIP3    H114306   7.592   6.848   4.603
 4783TIP3    H214307   7.599   6.744   4.714
 4784TIP3   OH214308   2.864   7.238   6.290
 4784TIP3    H114309   2.791   7.248   6.351
 4784TIP3    H214310   2.921   7.313   6.308
 4785TIP3   OH214311   7.043   7.769   1.455
 4785TIP3    H114312   6.994   7.687   1.453
 4785TIP3    H214313   7.121   7.752   1.402
 4786TIP3   OH214314   4.806   2.511   3.310
 4786TIP3    H114315   4.786   2.421   3.283
 4786TIP3    H214316   4.810   2.507   3.405
 4787TIP3   OH214317   5.214   0.449   4.233
 4787TIP3    H114318   5.256   0.373   4.274
 4787TIP3    H214319   5.275   0.475   4.164
 4788TIP3   OH214320   6.489   5.929   2.409
 4788TIP3    H114321   6.459   5.858   2.465
 4788TIP3    H214322   6.421   5.997   2.417
 4789TIP3   OH214323   3.751   4.529   5.845
 4789TIP3    H114324   3.809   4.581   5.902
 4789TIP3    H214325   3.732   4.450   5.896
 4790TIP3   OH214326   2.494   4.864   0.448
 4790TIP3    H114327   2.494   4.954   0.480
 4790TIP3    H214328   2.404   4.848   0.420
 4791TIP3   OH214329   6.911   6.529   1.145
 4791TIP3    H114330   6.897   6.593   1.075
 4791TIP3    H214331   6.906   6.444   1.101
 4792TIP3   OH214332   6.027   3.723   6.181
 4792TIP3    H114333   5.992   3.725   6.092
 4792TIP3    H214334   6.122   3.722   6.169
 4793TIP3   OH214335   6.031   3.586   2.339
 4793TIP3    H114336   6.024   3.676   2.308
 4793TIP3    H214337   6.050   3.535   2.260
 4794TIP3   OH214338   7.005   4.420   0.445
 4794TIP3    H114339   6.960   4.385   0.368
 4794TIP3    H214340   7.025   4.343   0.498
 4795TIP3   OH214341   2.913   3.615   1.712
 4795TIP3    H114342   2.877   3.659   1.635
 4795TIP3    H214343   2.956   3.537   1.678
 4796TIP3   OH214344   2.442   4.681   4.003
 4796TIP3    H114345   2.401   4.762   3.975
 4796TIP3    H214346   2.392   4.655   4.081
 4797TIP3   OH214347   5.651   4.184   2.245
 4797TIP3    H114348   5.665   4.105   2.298
 4797TIP3    H214349   5.557   4.201   2.253
 4798TIP3   OH214350   4.728   0.093   0.632
 4798TIP3    H114351   4.816   0.109   0.668
 4798TIP3    H214352   4.744   0.053   0.546
 4799TIP3   OH214353   7.309   7.462   0.807
 4799TIP3    H114354   7.300   7.538   0.749
 4799TIP3    H214355   7.365   7.402   0.759
 4800TIP3   OH214356   0.539   1.422   1.640
 4800TIP3    H114357   0.456   1.397   1.680
 4800TIP3    H214358   0.584   1.339   1.625
 4801TIP3   OH214359   4.192   6.371   0.520
 4801TIP3    H114360   4.167   6.434   0.452
 4801TIP3    H214361   4.288   6.372   0.519
 4802TIP3   OH214362   4.794   3.986   2.080
 4802TIP3    H114363   4.850   4.024   2.148
 4802TIP3    H214364   4.824   4.026   1.999
 4803TIP3   OH214365   5.630   6.370   2.501
 4803TIP3    H114366   5.674   6.289   2.526
 4803TIP3    H214367   5.537   6.346   2.499
 4804TIP3   OH214368   4.539   3.268   0.959
 4804TIP3    H114369   4.546   3.323   1.037
 4804TIP3    H214370   4.445   3.266   0.940
 4805TIP3   OH214371   6.789   4.828   5.962
 4805TIP3    H114372   6.738   4.902   5.928
 4805TIP3    H214373   6.822   4.859   6.047
 4806TIP3   OH214374   1.326   4.002   4.422
 4806TIP3    H114375   1.325   4.034   4.513
 4806TIP3    H214376   1.257   4.054   4.379
 4807TIP3   OH214377   1.783   1.938   6.527
 4807TIP3    H114378   1.718   1.928   6.458
 4807TIP3    H214379   1.859   1.888   6.496
 4808TIP3   OH214380   5.048   5.603   5.092
 4808TIP3    H114381   5.111   5.624   5.023
 4808TIP3    H214382   4.967   5.644   5.063
 4809TIP3   OH214383   3.974   4.814   5.136
 4809TIP3    H114384   3.957   4.876   5.207
 4809TIP3    H214385   4.065   4.788   5.148
 4810TIP3   OH214386   1.209   3.784   4.975
 4810TIP3    H114387   1.142   3.716   4.986
 4810TIP3    H214388   1.217   3.823   5.062
 4811TIP3   OH214389   2.152   2.229   3.208
 4811TIP3    H114390   2.068   2.273   3.219
 4811TIP3    H214391   2.202   2.254   3.286
 4812TIP3   OH214392   3.429   3.639   1.993
 4812TIP3    H114393   3.489   3.618   2.065
 4812TIP3    H214394   3.438   3.733   1.981
 4813TIP3   OH214395   1.999   0.986   4.072
 4813TIP3    H114396   1.906   0.991   4.092
 4813TIP3    H214397   2.003   0.985   3.976
 4814TIP3   OH214398   1.097   3.798   6.596
 4814TIP3    H114399   1.076   3.726   6.655
 4814TIP3    H214400   1.182   3.830   6.627
 4815TIP3   OH214401   7.257   2.638   0.635
 4815TIP3    H114402   7.317   2.580   0.681
 4815TIP3    H214403   7.208   2.581   0.576
 4816TIP3   OH214404   3.026   6.486   2.672
 4816TIP3    H114405   2.946   6.439   2.696
 4816TIP3    H214406   3.049   6.535   2.750
 4817TIP3   OH214407   2.245   4.341   0.328
 4817TIP3    H114408   2.228   4.434   0.342
 4817TIP3    H214409   2.320   4.339   0.269
 4818TIP3   OH214410   0.469   1.559   1.994
 4818TIP3    H114411   0.480   1.564   2.089
 4818TIP3    H214412   0.374   1.557   1.981
 4819TIP3   OH214413   3.086   5.606   4.436
 4819TIP3    H114414   3.038   5.639   4.513
 4819TIP3    H214415   3.066   5.669   4.367
 4820TIP3   OH214416   5.515   7.087   1.382
 4820TIP3    H114417   5.476   7.000   1.392
 4820TIP3    H214418   5.456   7.146   1.430
 4821TIP3   OH214419   1.190   5.890   3.449
 4821TIP3    H114420   1.153   5.864   3.533
 4821TIP3    H214421   1.233   5.973   3.466
 4822TIP3   OH214422   0.866   5.836   3.529
 4822TIP3    H114423   0.805   5.783   3.582
 4822TIP3    H214424   0.950   5.791   3.538
 4823TIP3   OH214425   7.699   5.182   6.319
 4823TIP3    H114426   7.772   5.243   6.318
 4823TIP3    H214427   7.725   5.113   6.380
 4824TIP3   OH214428   7.566   1.308   3.368
 4824TIP3    H114429   7.567   1.380   3.304
 4824TIP3    H214430   7.607   1.343   3.446
 4825TIP3   OH214431   4.657   4.485   1.120
 4825TIP3    H114432   4.628   4.515   1.206
 4825TIP3    H214433   4.752   4.494   1.122
 4826TIP3   OH214434   2.556   0.720   5.228
 4826TIP3    H114435   2.481   0.778   5.218
 4826TIP3    H214436   2.520   0.632   5.224
 4827TIP3   OH214437   6.881   1.458   6.119
 4827TIP3    H114438   6.889   1.546   6.157
 4827TIP3    H214439   6.904   1.470   6.026
 4828TIP3   OH214440   3.239   0.891   1.004
 4828TIP3    H114441   3.288   0.973   1.009
 4828TIP3    H214442   3.299   0.830   0.961
 4829TIP3   OH214443   1.853   5.600   4.901
 4829TIP3    H114444   1.880   5.622   4.990
 4829TIP3    H214445   1.847   5.685   4.857
 4830TIP3   OH214446   0.899   1.089   4.617
 4830TIP3    H114447   0.966   1.084   4.548
 4830TIP3    H214448   0.946   1.065   4.697
 4831TIP3   OH214449   7.168   2.482   3.901
 4831TIP3    H114450   7.103   2.438   3.847
 4831TIP3    H214451   7.242   2.421   3.906
 4832TIP3   OH214452   7.134   7.394   0.245
 4832TIP3    H114453   7.099   7.310   0.274
 4832TIP3    H214454   7.213   7.406   0.298
 4833TIP3   OH214455   0.412   7.657   1.087
 4833TIP3    H114456   0.351   7.607   1.033
 4833TIP3    H214457   0.497   7.646   1.044
 4834TIP3   OH214458   3.327   6.806   1.931
 4834TIP3    H114459   3.368   6.891   1.944
 4834TIP3    H214460   3.238   6.827   1.903
 4835TIP3   OH214461   1.310   7.655   3.380
 4835TIP3    H114462   1.346   7.566   3.383
 4835TIP3    H214463   1.365   7.705   3.440
 4836TIP3   OH214464   5.617   5.677   4.229
 4836TIP3    H114465   5.683   5.684   4.160
 4836TIP3    H214466   5.534   5.683   4.182
 4837TIP3   OH214467   1.022   7.186   3.290
 4837TIP3    H114468   0.938   7.206   3.250
 4837TIP3    H214469   1.001   7.124   3.360
 4838TIP3   OH214470   0.267   5.951   1.424
 4838TIP3    H114471   0.347   6.004   1.431
 4838TIP3    H214472   0.202   6.011   1.387
 4839TIP3   OH214473   2.865   2.162   6.191
 4839TIP3    H114474   2.788   2.188   6.140
 4839TIP3    H214475   2.861   2.218   6.269
 4840TIP3   OH214476   5.722   2.261   3.309
 4840TIP3    H114477   5.761   2.176   3.330
 4840TIP3    H214478   5.769   2.323   3.365
 4841TIP3   OH214479   4.782   4.796   1.201
 4841TIP3    H114480   4.824   4.879   1.180
 4841TIP3    H214481   4.754   4.805   1.291
 4842TIP3   OH214482   5.323   7.662   0.121
 4842TIP3    H114483   5.365   7.748   0.128
 4842TIP3    H214484   5.232   7.681   0.099
 4843TIP3   OH214485   0.487   1.235   0.414
 4843TIP3    H114486   0.473   1.146   0.445
 4843TIP3    H214487   0.512   1.284   0.492
 4844TIP3   OH214488   5.789   3.141   1.100
 4844TIP3    H114489   5.799   3.051   1.071
 4844TIP3    H214490   5.702   3.143   1.140
 4845TIP3   OH214491   5.008   6.305   3.718
 4845TIP3    H114492   4.944   6.285   3.650
 4845TIP3    H214493   5.084   6.251   3.696
 4846TIP3   OH214494   3.254   2.072   3.776
 4846TIP3    H114495   3.174   2.076   3.723
 4846TIP3    H214496   3.278   1.979   3.777
 4847TIP3   OH214497   5.140   7.582   3.688
 4847TIP3    H114498   5.213   7.572   3.627
 4847TIP3    H214499   5.131   7.496   3.729
 4848TIP3   OH214500   3.321   5.016   1.841
 4848TIP3    H114501   3.250   5.003   1.904
 4848TIP3    H214502   3.375   5.085   1.879
 4849TIP3   OH214503   3.060   0.653   1.881
 4849TIP3    H114504   3.110   0.655   1.799
 4849TIP3    H214505   3.060   0.561   1.907
 4850TIP3   OH214506   6.046   1.723   4.334
 4850TIP3    H114507   6.032   1.654   4.269
 4850TIP3    H214508   5.961   1.736   4.374
 4851TIP3   OH214509   6.364   2.585   1.043
 4851TIP3    H114510   6.411   2.649   1.096
 4851TIP3    H214511   6.368   2.504   1.094
 4852TIP3   OH214512   6.655   1.250   5.960
 4852TIP3    H114513   6.633   1.342   5.949
 4852TIP3    H214514   6.734   1.250   6.015
 4853TIP3   OH214515   6.182   3.303   3.370
 4853TIP3    H114516   6.223   3.326   3.453
 4853TIP3    H214517   6.155   3.212   3.381
 4854TIP3   OH214518   7.078   4.871   1.863
 4854TIP3    H114519   6.987   4.850   1.845
 4854TIP3    H214520   7.121   4.866   1.777
 4855TIP3   OH214521   1.008   0.261   5.772
 4855TIP3    H114522   0.981   0.171   5.787
 4855TIP3    H214523   1.004   0.302   5.858
 4856TIP3   OH214524   4.238   1.897   2.941
 4856TIP3    H114525   4.201   1.895   2.853
 4856TIP3    H214526   4.330   1.920   2.928
 4857TIP3   OH214527   0.202   4.005   0.294
 4857TIP3    H114528   0.133   4.064   0.325
 4857TIP3    H214529   0.283   4.043   0.328
 4858TIP3   OH214530   1.810   5.538   3.182
 4858TIP3    H114531   1.801   5.629   3.154
 4858TIP3    H214532   1.883   5.504   3.129
 4859TIP3   OH214533   1.865   3.664   2.116
 4859TIP3    H114534   1.951   3.703   2.134
 4859TIP3    H214535   1.886   3.578   2.078
 4860TIP3   OH214536   6.577   7.013   4.103
 4860TIP3    H114537   6.589   7.108   4.097
 4860TIP3    H214538   6.652   6.983   4.154
 4861TIP3   OH214539   7.402   2.528   4.412
 4861TIP3    H114540   7.428   2.467   4.344
 4861TIP3    H214541   7.469   2.518   4.480
 4862TIP3   OH214542   0.332   4.215   2.264
 4862TIP3    H114543   0.291   4.170   2.338
 4862TIP3    H214544   0.381   4.147   2.218
 4863TIP3   OH214545   0.293   0.400   3.858
 4863TIP3    H114546   0.236   0.459   3.809
 4863TIP3    H214547   0.382   0.428   3.835
 4864TIP3   OH214548   3.297   0.101   5.757
 4864TIP3    H114549   3.358   0.052   5.701
 4864TIP3    H214550   3.343   0.109   5.841
 4865TIP3   OH214551   7.280   5.856   6.157
 4865TIP3    H114552   7.229   5.920   6.208
 4865TIP3    H214553   7.328   5.806   6.223
 4866TIP3   OH214554   6.412   3.759   0.872
 4866TIP3    H114555   6.408   3.837   0.816
 4866TIP3    H214556   6.336   3.707   0.846
 4867TIP3   OH214557   4.232   0.064   5.911
 4867TIP3    H114558   4.158   0.005   5.926
 4867TIP3    H214559   4.228   0.127   5.983
 4868TIP3   OH214560   5.935   0.375   1.354
 4868TIP3    H114561   6.011   0.317   1.359
 4868TIP3    H214562   5.916   0.383   1.260
 4869TIP3   OH214563   6.998   4.197   0.618
 4869TIP3    H114564   7.012   4.117   0.668
 4869TIP3    H214565   6.902   4.207   0.614
 4870TIP3   OH214566   5.682   4.841   4.803
 4870TIP3    H114567   5.645   4.915   4.754
 4870TIP3    H214568   5.730   4.791   4.737
 4871TIP3   OH214569   5.485   4.415   1.445
 4871TIP3    H114570   5.556   4.475   1.469
 4871TIP3    H214571   5.527   4.352   1.386
 4872TIP3   OH214572   4.977   4.364   3.936
 4872TIP3    H114573   4.894   4.320   3.955
 4872TIP3    H214574   5.016   4.312   3.865
 4873TIP3   OH214575   3.583   3.430   6.542
 4873TIP3    H114576   3.574   3.415   6.636
 4873TIP3    H214577   3.603   3.344   6.505
 4874TIP3   OH214578   4.004   7.240   1.993
 4874TIP3    H114579   3.933   7.281   1.942
 4874TIP3    H214580   3.962   7.167   2.037
 4875TIP3   OH214581   0.736   3.932   4.563
 4875TIP3    H114582   0.815   3.921   4.617
 4875TIP3    H214583   0.697   4.014   4.593
 4876TIP3   OH214584   7.538   6.367   2.999
 4876TIP3    H114585   7.515   6.328   2.915
 4876TIP3    H214586   7.454   6.375   3.045
 4877TIP3   OH214587   4.504   1.643   3.933
 4877TIP3    H114588   4.471   1.622   3.846
 4877TIP3    H214589   4.538   1.732   3.925
 4878TIP3   OH214590   5.835   2.945   0.352
 4878TIP3    H114591   5.793   3.025   0.385
 4878TIP3    H214592   5.768   2.878   0.360
 4879TIP3   OH214593   1.267   2.214   2.131
 4879TIP3    H114594   1.257   2.120   2.111
 4879TIP3    H214595   1.210   2.228   2.206
 4880TIP3   OH214596   1.438   4.910   5.748
 4880TIP3    H114597   1.370   4.976   5.762
 4880TIP3    H214598   1.520   4.958   5.762
 4881TIP3   OH214599   1.612   3.461   5.401
 4881TIP3    H114600   1.651   3.374   5.396
 4881TIP3    H214601   1.528   3.452   5.356
 4882TIP3   OH214602   3.336   1.646   6.418
 4882TIP3    H114603   3.277   1.675   6.348
 4882TIP3    H214604   3.285   1.581   6.467
 4883TIP3   OH214605   3.666   6.808   4.735
 4883TIP3    H114606   3.713   6.867   4.794
 4883TIP3    H214607   3.577   6.804   4.771
 4884TIP3   OH214608   7.433   5.053   2.882
 4884TIP3    H114609   7.357   5.029   2.934
 4884TIP3    H214610   7.398   5.108   2.812
 4885TIP3   OH214611   4.235   6.103   6.039
 4885TIP3    H114612   4.181   6.055   5.977
 4885TIP3    H214613   4.324   6.074   6.021
 4886TIP3   OH214614   3.101   6.190   2.026
 4886TIP3    H114615   3.067   6.133   1.957
 4886TIP3    H214616   3.162   6.134   2.074
 4887TIP3   OH214617   3.892   3.233   3.106
 4887TIP3    H114618   3.904   3.208   3.198
 4887TIP3    H214619   3.888   3.149   3.059
 4888TIP3   OH214620   7.395   1.821   3.948
 4888TIP3    H114621   7.310   1.784   3.928
 4888TIP3    H214622   7.423   1.776   4.028
 4889TIP3   OH214623   6.819   2.921   4.618
 4889TIP3    H114624   6.869   2.857   4.567
 4889TIP3    H214625   6.831   3.004   4.572
 4890TIP3   OH214626   1.669   7.417   4.680
 4890TIP3    H114627   1.611   7.405   4.755
 4890TIP3    H214628   1.628   7.368   4.609
 4891TIP3   OH214629   6.894   0.611   5.550
 4891TIP3    H114630   6.834   0.602   5.476
 4891TIP3    H214631   6.903   0.523   5.585
 4892TIP3   OH214632   5.011   6.051   2.351
 4892TIP3    H114633   4.957   5.974   2.335
 4892TIP3    H214634   5.029   6.087   2.264
 4893TIP3   OH214635   2.116   5.081   5.509
 4893TIP3    H114636   2.113   5.120   5.421
 4893TIP3    H214637   2.158   4.996   5.496
 4894TIP3   OH214638   4.594   5.157   0.407
 4894TIP3    H114639   4.689   5.144   0.415
 4894TIP3    H214640   4.558   5.068   0.406
 4895TIP3   OH214641   0.392   1.062   5.323
 4895TIP3    H114642   0.365   1.001   5.392
 4895TIP3    H214643   0.409   1.006   5.247
 4896TIP3   OH214644   7.660   5.172   6.024
 4896TIP3    H114645   7.572   5.204   6.007
 4896TIP3    H214646   7.679   5.200   6.114
 4897TIP3   OH214647   7.481   5.419   0.636
 4897TIP3    H114648   7.493   5.354   0.704
 4897TIP3    H214649   7.490   5.503   0.680
 4898TIP3   OH214650   3.766   0.051   3.604
 4898TIP3    H114651   3.686   0.065   3.655
 4898TIP3    H214652   3.835   0.041   3.670
 4899TIP3   OH214653   0.173   5.314   2.981
 4899TIP3    H114654   0.135   5.232   2.948
 4899TIP3    H214655   0.254   5.324   2.931
 4900TIP3   OH214656   1.577   2.759   1.212
 4900TIP3    H114657   1.551   2.851   1.218
 4900TIP3    H214658   1.669   2.758   1.236
 4901TIP3   OH214659   3.289   0.594   6.076
 4901TIP3    H114660   3.253   0.641   6.151
 4901TIP3    H214661   3.216   0.543   6.043
 4902TIP3   OH214662   7.450   7.607   0.180
 4902TIP3    H114663   7.436   7.701   0.168
 4902TIP3    H214664   7.422   7.589   0.269
 4903TIP3   OH214665   3.626   2.539   2.684
 4903TIP3    H114666   3.548   2.508   2.637
 4903TIP3    H214667   3.687   2.465   2.680
 4904TIP3   OH214668   5.953   1.794   0.858
 4904TIP3    H114669   5.906   1.733   0.915
 4904TIP3    H214670   5.908   1.786   0.774
 4905TIP3   OH214671   6.001   5.565   2.518
 4905TIP3    H114672   5.920   5.556   2.569
 4905TIP3    H214673   5.983   5.635   2.455
 4906TIP3   OH214674   3.182   1.933   4.691
 4906TIP3    H114675   3.101   1.922   4.641
 4906TIP3    H214676   3.181   1.861   4.754
 4907TIP3   OH214677   0.846   0.415   6.313
 4907TIP3    H114678   0.837   0.450   6.402
 4907TIP3    H214679   0.882   0.488   6.263
 4908TIP3   OH214680   4.704   2.148   6.526
 4908TIP3    H114681   4.709   2.069   6.580
 4908TIP3    H214682   4.796   2.175   6.515
 4909TIP3   OH214683   2.680   5.254   0.414
 4909TIP3    H114684   2.717   5.333   0.373
 4909TIP3    H214685   2.611   5.287   0.471
 4910TIP3   OH214686   3.373   4.268   3.698
 4910TIP3    H114687   3.348   4.325   3.771
 4910TIP3    H214688   3.333   4.308   3.621
 4911TIP3   OH214689   3.552   3.045   2.544
 4911TIP3    H114690   3.543   3.138   2.561
 4911TIP3    H214691   3.616   3.015   2.609
 4912TIP3   OH214692   3.117   7.273   2.777
 4912TIP3    H114693   3.191   7.323   2.744
 4912TIP3    H214694   3.040   7.310   2.733
 4913TIP3   OH214695   1.813   3.101   6.588
 4913TIP3    H114696   1.870   3.024   6.593
 4913TIP3    H214697   1.842   3.157   6.660
 4914TIP3   OH214698   7.705   0.127   4.984
 4914TIP3    H114699   7.755   0.153   4.906
 4914TIP3    H214700   7.652   0.052   4.955
 4915TIP3   OH214701   2.330   7.663   2.741
 4915TIP3    H114702   2.279   7.663   2.659
 4915TIP3    H214703   2.297   7.587   2.789
 4916TIP3   OH214704   4.392   6.811   2.892
 4916TIP3    H114705   4.305   6.802   2.930
 4916TIP3    H214706   4.416   6.723   2.863
 4917TIP3   OH214707   8.239   0.757   6.235
 4917TIP3    H114708   8.168   0.692   6.241
 4917TIP3    H214709   8.260   0.760   6.142
 4918TIP3   OH214710   1.619   0.559   5.053
 4918TIP3    H114711   1.630   0.465   5.062
 4918TIP3    H214712   1.597   0.589   5.142
 4919TIP3   OH214713   2.784   5.465   2.724
 4919TIP3    H114714   2.784   5.469   2.820
 4919TIP3    H214715   2.861   5.516   2.699
 4920TIP3   OH214716   2.970   7.175   5.551
 4920TIP3    H114717   3.035   7.142   5.614
 4920TIP3    H214718   2.986   7.124   5.471
 4921TIP3   OH214719   8.106   6.306   0.993
 4921TIP3    H114720   8.059   6.236   0.948
 4921TIP3    H214721   8.133   6.268   1.077
 4922TIP3   OH214722   5.768   4.106   1.949
 4922TIP3    H114723   5.763   4.010   1.943
 4922TIP3    H214724   5.721   4.127   2.029
 4923TIP3   OH214725   5.330   1.287   6.411
 4923TIP3    H114726   5.258   1.303   6.472
 4923TIP3    H214727   5.366   1.375   6.395
 4924TIP3   OH214728   0.330   5.587   2.829
 4924TIP3    H114729   0.318   5.644   2.753
 4924TIP3    H214730   0.303   5.640   2.904
 4925TIP3   OH214731   6.453   6.711   2.942
 4925TIP3    H114732   6.371   6.670   2.912
 4925TIP3    H214733   6.522   6.662   2.899
 4926TIP3   OH214734   2.619   5.333   0.743
 4926TIP3    H114735   2.633   5.421   0.707
 4926TIP3    H214736   2.705   5.304   0.770
 4927TIP3   OH214737   7.056   5.570   4.369
 4927TIP3    H114738   7.135   5.516   4.367
 4927TIP3    H214739   6.992   5.520   4.319
 4928TIP3   OH214740   3.853   6.414   5.869
 4928TIP3    H114741   3.945   6.434   5.849
 4928TIP3    H214742   3.857   6.333   5.921
 4929TIP3   OH214743   7.467   2.205   0.177
 4929TIP3    H114744   7.434   2.116   0.191
 4929TIP3    H214745   7.430   2.256   0.249
 4930TIP3   OH214746   2.215   5.608   3.860
 4930TIP3    H114747   2.273   5.604   3.783
 4930TIP3    H214748   2.257   5.552   3.925
 4931TIP3   OH214749   6.776   0.063   3.526
 4931TIP3    H114750   6.866   0.035   3.543
 4931TIP3    H214751   6.785   0.155   3.498
 4932TIP3   OH214752   4.840   5.859   2.241
 4932TIP3    H114753   4.745   5.865   2.232
 4932TIP3    H214754   4.873   5.879   2.154
 4933TIP3   OH214755   4.619   5.923   2.582
 4933TIP3    H114756   4.696   5.887   2.536
 4933TIP3    H214757   4.653   5.950   2.668
 4934TIP3   OH214758   3.659   0.205   4.942
 4934TIP3    H114759   3.686   0.114   4.956
 4934TIP3    H214760   3.587   0.218   5.005
 4935TIP3   OH214761   1.644   3.161   5.298
 4935TIP3    H114762   1.734   3.193   5.302
 4935TIP3    H214763   1.599   3.223   5.239
 4936TIP3   OH214764   0.091   2.319   3.934
 4936TIP3    H114765   0.037   2.313   4.013
 4936TIP3    H214766   0.028   2.315   3.862
 4937TIP3   OH214767   7.922   4.433   1.300
 4937TIP3    H114768   7.857   4.451   1.368
 4937TIP3    H214769   7.980   4.368   1.338
 4938TIP3   OH214770   7.903   0.448   4.650
 4938TIP3    H114771   7.842   0.381   4.679
 4938TIP3    H214772   7.989   0.411   4.666
 4939TIP3   OH214773   3.496   3.484   1.780
 4939TIP3    H114774   3.421   3.480   1.720
 4939TIP3    H214775   3.465   3.539   1.852
 4940TIP3   OH214776   6.419   7.276   0.903
 4940TIP3    H114777   6.451   7.280   0.813
 4940TIP3    H214778   6.330   7.240   0.895
 4941TIP3   OH214779   0.564   4.504   5.810
 4941TIP3    H114780   0.595   4.587   5.847
 4941TIP3    H214781   0.627   4.484   5.740
 4942TIP3   OH214782   0.181   7.441   4.155
 4942TIP3    H114783   0.234   7.418   4.078
 4942TIP3    H214784   0.182   7.536   4.157
 4943TIP3   OH214785   4.617   2.749   2.610
 4943TIP3    H114786   4.527   2.755   2.643
 4943TIP3    H214787   4.660   2.828   2.644
 4944TIP3   OH214788   1.046   2.040   6.430
 4944TIP3    H114789   0.992   1.999   6.363
 4944TIP3    H214790   1.117   1.977   6.446
 4945TIP3   OH214791   0.188   6.074   5.266
 4945TIP3    H114792   0.146   6.050   5.184
 4945TIP3    H214793   0.188   6.170   5.266
 4946TIP3   OH214794   6.734   7.380   1.354
 4946TIP3    H114795   6.706   7.340   1.272
 4946TIP3    H214796   6.815   7.426   1.332
 4947TIP3   OH214797   6.391   6.192   0.221
 4947TIP3    H114798   6.458   6.161   0.282
 4947TIP3    H214799   6.336   6.116   0.204
 4948TIP3   OH214800   6.615   0.247   0.436
 4948TIP3    H114801   6.693   0.281   0.480
 4948TIP3    H214802   6.650   0.195   0.363
 4949TIP3   OH214803   0.727   7.674   5.919
 4949TIP3    H114804   0.773   7.686   5.836
 4949TIP3    H214805   0.635   7.663   5.893
 4950TIP3   OH214806   4.560   3.954   4.498
 4950TIP3    H114807   4.499   4.026   4.510
 4950TIP3    H214808   4.524   3.903   4.425
 4951TIP3   OH214809   6.441   4.402   1.935
 4951TIP3    H114810   6.403   4.360   2.012
 4951TIP3    H214811   6.366   4.424   1.880
 4952TIP3   OH214812   1.546   7.296   4.434
 4952TIP3    H114813   1.591   7.258   4.359
 4952TIP3    H214814   1.517   7.382   4.404
 4953TIP3   OH214815   2.136   4.294   4.497
 4953TIP3    H114816   2.058   4.350   4.499
 4953TIP3    H214817   2.207   4.354   4.476
 4954TIP3   OH214818   5.649   1.042   3.224
 4954TIP3    H114819   5.622   1.126   3.260
 4954TIP3    H214820   5.651   0.983   3.300
 4955TIP3   OH214821   4.485   1.146   1.848
 4955TIP3    H114822   4.462   1.239   1.848
 4955TIP3    H214823   4.579   1.145   1.829
 4956TIP3   OH214824   7.180   1.616   4.457
 4956TIP3    H114825   7.165   1.606   4.363
 4956TIP3    H214826   7.264   1.572   4.473
 4957TIP3   OH214827   3.243   3.288   4.070
 4957TIP3    H114828   3.273   3.317   4.156
 4957TIP3    H214829   3.269   3.196   4.065
 4958TIP3   OH214830   5.458   4.388   0.397
 4958TIP3    H114831   5.411   4.431   0.326
 4958TIP3    H214832   5.444   4.445   0.473
 4959TIP3   OH214833   1.796   2.063   0.968
 4959TIP3    H114834   1.753   2.140   0.930
 4959TIP3    H214835   1.751   1.989   0.929
 4960TIP3   OH214836   0.648   2.846   5.636
 4960TIP3    H114837   0.608   2.870   5.720
 4960TIP3    H214838   0.623   2.755   5.623
 4961TIP3   OH214839   6.848   7.147   5.697
 4961TIP3    H114840   6.791   7.095   5.640
 4961TIP3    H214841   6.886   7.083   5.757
 4962TIP3   OH214842   1.952   4.291   6.538
 4962TIP3    H114843   1.883   4.335   6.588
 4962TIP3    H214844   1.918   4.202   6.524
 4963TIP3   OH214845   5.763   4.720   1.170
 4963TIP3    H114846   5.729   4.783   1.106
 4963TIP3    H214847   5.803   4.652   1.116
 4964TIP3   OH214848   6.127   6.148   0.787
 4964TIP3    H114849   6.184   6.135   0.863
 4964TIP3    H214850   6.179   6.119   0.712
 4965TIP3   OH214851   7.439   7.293   1.917
 4965TIP3    H114852   7.399   7.352   1.853
 4965TIP3    H214853   7.371   7.281   1.984
 4966TIP3   OH214854   4.143   7.625   4.989
 4966TIP3    H114855   4.056   7.598   4.960
 4966TIP3    H214856   4.167   7.561   5.056
 4967TIP3   OH214857   0.462   2.181   4.045
 4967TIP3    H114858   0.468   2.221   3.958
 4967TIP3    H214859   0.380   2.132   4.042
 4968TIP3   OH214860   1.180   6.028   1.660
 4968TIP3    H114861   1.181   6.042   1.566
 4968TIP3    H214862   1.266   5.993   1.681
 4969TIP3   OH214863   2.847   5.172   3.966
 4969TIP3    H114864   2.779   5.161   4.033
 4969TIP3    H214865   2.913   5.107   3.989
 4970TIP3   OH214866   1.337   0.519   4.912
 4970TIP3    H114867   1.271   0.573   4.957
 4970TIP3    H214868   1.421   0.556   4.941
 4971TIP3   OH214869   2.787   5.399   4.649
 4971TIP3    H114870   2.791   5.313   4.607
 4971TIP3    H214871   2.779   5.461   4.576
 4972TIP3   OH214872   0.358   5.230   2.038
 4972TIP3    H114873   0.433   5.172   2.050
 4972TIP3    H214874   0.322   5.204   1.953
 4973TIP3   OH214875   0.056   2.101   5.449
 4973TIP3    H114876   0.027   2.181   5.493
 4973TIP3    H214877   0.151   2.101   5.458
 4974TIP3   OH214878   1.405   2.539   2.909
 4974TIP3    H114879   1.414   2.497   2.994
 4974TIP3    H214880   1.485   2.591   2.900
 4975TIP3   OH214881   6.591   3.408   2.964
 4975TIP3    H114882   6.625   3.426   3.052
 4975TIP3    H214883   6.500   3.436   2.969
 4976TIP3   OH214884   0.269   0.096   2.835
 4976TIP3    H114885   0.338   0.162   2.830
 4976TIP3    H214886   0.309   0.022   2.881
 4977TIP3   OH214887   4.601   6.975   2.419
 4977TIP3    H114888   4.592   6.880   2.416
 4977TIP3    H214889   4.694   6.990   2.400
 4978TIP3   OH214890   1.100   3.622   6.122
 4978TIP3    H114891   1.180   3.575   6.098
 4978TIP3    H214892   1.110   3.708   6.081
 4979TIP3   OH214893   0.787   4.737   2.938
 4979TIP3    H114894   0.874   4.713   2.904
 4979TIP3    H214895   0.802   4.763   3.028
 4980TIP3   OH214896   5.946   5.126   5.002
 4980TIP3    H114897   5.936   5.125   5.098
 4980TIP3    H214898   5.866   5.169   4.971
 4981TIP3   OH214899   3.442   7.542   6.533
 4981TIP3    H114900   3.483   7.479   6.474
 4981TIP3    H214901   3.454   7.505   6.621
 4982TIP3   OH214902   5.008   3.946   0.862
 4982TIP3    H114903   5.049   3.910   0.783
 4982TIP3    H214904   5.000   4.039   0.845
 4983TIP3   OH214905   2.769   6.222   5.732
 4983TIP3    H114906   2.727   6.160   5.672
 4983TIP3    H214907   2.840   6.260   5.681
 4984TIP3   OH214908   6.996   3.514   6.209
 4984TIP3    H114909   7.044   3.441   6.248
 4984TIP3    H214910   7.045   3.535   6.130
 4985TIP3   OH214911   6.084   0.440   5.380
 4985TIP3    H114912   6.010   0.424   5.438
 4985TIP3    H214913   6.118   0.352   5.360
 4986TIP3   OH214914   0.543   3.123   2.416
 4986TIP3    H114915   0.606   3.097   2.349
 4986TIP3    H214916   0.591   3.182   2.473
 4987TIP3   OH214917   1.794   5.594   1.331
 4987TIP3    H114918   1.833   5.614   1.416
 4987TIP3    H214919   1.841   5.651   1.270
 4988TIP3   OH214920   7.634   2.104   2.153
 4988TIP3    H114921   7.649   2.186   2.106
 4988TIP3    H214922   7.721   2.079   2.186
 4989TIP3   OH214923   3.011   7.498   5.016
 4989TIP3    H114924   3.064   7.476   5.093
 4989TIP3    H214925   3.075   7.521   4.949
 4990TIP3   OH214926   0.227   2.915   1.717
 4990TIP3    H114927   0.175   2.842   1.683
 4990TIP3    H214928   0.171   2.992   1.709
 4991TIP3   OH214929   3.981   1.408   0.301
 4991TIP3    H114930   4.052   1.469   0.321
 4991TIP3    H214931   3.911   1.431   0.362
 4992TIP3   OH214932   7.756   7.715   5.882
 4992TIP3    H114933   7.778   7.661   5.957
 4992TIP3    H214934   7.805   7.796   5.894
 4993TIP3   OH214935   3.423   7.649   5.948
 4993TIP3    H114936   3.447   7.740   5.966
 4993TIP3    H214937   3.424   7.607   6.034
 4994TIP3   OH214938   2.587   3.826   6.172
 4994TIP3    H114939   2.660   3.872   6.214
 4994TIP3    H214940   2.617   3.811   6.083
 4995TIP3   OH214941   2.737   3.711   4.947
 4995TIP3    H114942   2.707   3.679   5.032
 4995TIP3    H214943   2.675   3.674   4.884
 4996TIP3   OH214944   4.425   1.998   5.939
 4996TIP3    H114945   4.491   2.038   5.995
 4996TIP3    H214946   4.394   1.923   5.989
 4997TIP3   OH214947   1.446   0.244   0.886
 4997TIP3    H114948   1.477   0.326   0.847
 4997TIP3    H214949   1.363   0.227   0.842
 4998TIP3   OH214950   2.628   3.638   3.944
 4998TIP3    H114951   2.620   3.676   3.856
 4998TIP3    H214952   2.722   3.643   3.964
 4999TIP3   OH214953   4.382   4.786   0.964
 4999TIP3    H114954   4.389   4.881   0.976
 4999TIP3    H214955   4.298   4.763   1.004
 5000TIP3   OH214956   4.724   6.894   5.380
 5000TIP3    H114957   4.651   6.840   5.348
 5000TIP3    H214958   4.682   6.973   5.412
 5001TIP3   OH214959   7.296   0.127   4.927
 5001TIP3    H114960   7.202   0.146   4.924
 5001TIP3    H214961   7.331   0.193   4.988
 5002TIP3   OH214962   2.300   2.851   6.531
 5002TIP3    H114963   2.238   2.917   6.561
 5002TIP3    H214964   2.258   2.767   6.553
 5003TIP3   OH214965   3.479   1.430   2.690
 5003TIP3    H114966   3.412   1.496   2.671
 5003TIP3    H214967   3.443   1.349   2.655
 5004TIP3   OH214968   2.620   6.999   3.071
 5004TIP3    H114969   2.540   6.975   3.026
 5004TIP3    H214970   2.681   6.928   3.052
 5005TIP3   OH214971   7.655   2.027   6.690
 5005TIP3    H114972   7.607   1.969   6.631
 5005TIP3    H214973   7.617   2.113   6.675
 5006TIP3   OH214974   0.676   5.513   0.750
 5006TIP3    H114975   0.710   5.585   0.803
 5006TIP3    H214976   0.716   5.526   0.664
 5007TIP3   OH214977   3.177   1.080   2.996
 5007TIP3    H114978   3.128   1.053   2.918
 5007TIP3    H214979   3.246   1.137   2.962
 5008TIP3   OH214980   1.309   6.534   3.366
 5008TIP3    H114981   1.360   6.570   3.293
 5008TIP3    H214982   1.218   6.542   3.338
 5009TIP3   OH214983   4.678   3.239   3.518
 5009TIP3    H114984   4.728   3.256   3.598
 5009TIP3    H214985   4.604   3.300   3.522
 5010TIP3   OH214986   0.529   0.468   4.280
 5010TIP3    H114987   0.493   0.503   4.361
 5010TIP3    H214988   0.454   0.429   4.236
 5011TIP3   OH214989   4.891   4.386   3.633
 5011TIP3    H114990   4.921   4.462   3.683
 5011TIP3    H214991   4.964   4.324   3.639
 5012TIP3   OH214992   6.910   7.003   2.397
 5012TIP3    H114993   6.815   7.009   2.408
 5012TIP3    H214994   6.923   6.963   2.311
 5013TIP3   OH214995   1.763   0.906   3.496
 5013TIP3    H114996   1.678   0.905   3.539
 5013TIP3    H214997   1.791   0.814   3.495
 5014TIP3   OH214998   8.123   0.236   5.699
 5014TIP3    H114999   8.110   0.328   5.723
 5014TIP3    H215000   8.063   0.221   5.626
 5015TIP3   OH215001   1.543   2.200   3.703
 5015TIP3    H115002   1.604   2.185   3.776
 5015TIP3    H215003   1.581   2.152   3.630
 5016TIP3   OH215004   8.129   6.798   3.979
 5016TIP3    H115005   8.116   6.739   4.053
 5016TIP3    H215006   8.050   6.787   3.925
 5017TIP3   OH215007   1.217   6.642   0.946
 5017TIP3    H115008   1.290   6.668   1.002
 5017TIP3    H215009   1.230   6.548   0.932
 5018TIP3   OH215010   0.038   1.898   4.959
 5018TIP3    H115011   0.001   1.810   4.968
 5018TIP3    H215012   0.107   1.889   4.894
 5019TIP3   OH215013   1.703   3.302   6.403
 5019TIP3    H115014   1.723   3.257   6.321
 5019TIP3    H215015   1.732   3.242   6.472
 5020TIP3   OH215016   5.679   2.932   3.404
 5020TIP3    H115017   5.731   2.852   3.415
 5020TIP3    H215018   5.594   2.911   3.441
 5021TIP3   OH215019   5.765   4.916   6.402
 5021TIP3    H115020   5.775   4.882   6.491
 5021TIP3    H215021   5.717   4.848   6.356
 5022TIP3   OH215022   5.170   2.994   0.829
 5022TIP3    H115023   5.230   2.928   0.864
 5022TIP3    H215024   5.188   3.072   0.881
 5023TIP3   OH215025   4.756   2.815   3.391
 5023TIP3    H115026   4.825   2.772   3.340
 5023TIP3    H215027   4.802   2.848   3.469
 5024TIP3   OH215028   2.855   1.470   4.498
 5024TIP3    H115029   2.834   1.388   4.454
 5024TIP3    H215030   2.903   1.444   4.577
 5025TIP3   OH215031   2.524   4.981   1.203
 5025TIP3    H115032   2.573   4.899   1.201
 5025TIP3    H215033   2.485   4.983   1.291
 5026TIP3   OH215034   5.960   4.309   2.023
 5026TIP3    H115035   5.904   4.259   1.962
 5026TIP3    H215036   6.018   4.243   2.061
 5027TIP3   OH215037   1.803   5.501   3.444
 5027TIP3    H115038   1.715   5.521   3.476
 5027TIP3    H215039   1.803   5.526   3.352
 5028TIP3   OH215040   3.868   4.686   4.927
 5028TIP3    H115041   3.893   4.751   4.992
 5028TIP3    H215042   3.951   4.652   4.893
 5029TIP3   OH215043   8.236   5.301   4.951
 5029TIP3    H115044   8.226   5.325   5.043
 5029TIP3    H215045   8.179   5.225   4.939
 5030TIP3   OH215046   2.773   1.018   4.825
 5030TIP3    H115047   2.706   0.967   4.870
 5030TIP3    H215048   2.837   0.953   4.796
 5031TIP3   OH215049   3.681   1.195   4.825
 5031TIP3    H115050   3.647   1.141   4.895
 5031TIP3    H215051   3.603   1.226   4.778
 5032TIP3   OH215052   2.764   2.113   3.436
 5032TIP3    H115053   2.816   2.041   3.399
 5032TIP3    H215054   2.694   2.127   3.372
 5033TIP3   OH215055   4.862   0.701   6.779
 5033TIP3    H115056   4.930   0.767   6.789
 5033TIP3    H215057   4.822   0.720   6.694
 5034TIP3   OH215058   5.603   2.766   2.565
 5034TIP3    H115059   5.563   2.766   2.478
 5034TIP3    H215060   5.651   2.849   2.569
 5035TIP3   OH215061   7.903   2.784   6.723
 5035TIP3    H115062   7.893   2.766   6.629
 5035TIP3    H215063   7.995   2.805   6.734
 5036TIP3   OH215064   7.570   4.044   6.373
 5036TIP3    H115065   7.543   3.958   6.405
 5036TIP3    H215066   7.527   4.052   6.288
 5037TIP3   OH215067   7.791   2.866   6.195
 5037TIP3    H115068   7.799   2.946   6.247
 5037TIP3    H215069   7.862   2.810   6.225
 5038TIP3   OH215070   2.914   1.862   3.709
 5038TIP3    H115071   2.854   1.787   3.709
 5038TIP3    H215072   2.994   1.829   3.667
 5039TIP3   OH215073   3.456   6.533   4.772
 5039TIP3    H115074   3.415   6.489   4.698
 5039TIP3    H215075   3.514   6.467   4.810
 5040TIP3   OH215076   3.188   6.881   4.964
 5040TIP3    H115077   3.166   6.790   4.984
 5040TIP3    H215078   3.105   6.921   4.938
 5041TIP3   OH215079   8.043   2.024   2.678
 5041TIP3    H115080   7.986   2.099   2.695
 5041TIP3    H215081   8.126   2.048   2.718
 5042TIP3   OH215082   2.993   7.244   3.790
 5042TIP3    H115083   2.992   7.149   3.798
 5042TIP3    H215084   3.032   7.261   3.704
 5043TIP3   OH215085   2.839   6.446   1.118
 5043TIP3    H115086   2.799   6.495   1.190
 5043TIP3    H215087   2.903   6.506   1.081
 5044TIP3   OH215088   8.025   5.500   1.124
 5044TIP3    H115089   8.053   5.591   1.127
 5044TIP3    H215090   7.930   5.504   1.136
 5045TIP3   OH215091   5.291   6.520   1.755
 5045TIP3    H115092   5.284   6.552   1.846
 5045TIP3    H215093   5.305   6.599   1.703
 5046TIP3   OH215094   6.468   7.206   6.636
 5046TIP3    H115095   6.472   7.162   6.551
 5046TIP3    H215096   6.510   7.145   6.697
 5047TIP3   OH215097   6.102   4.582   2.248
 5047TIP3    H115098   6.177   4.623   2.204
 5047TIP3    H215099   6.140   4.539   2.324
 5048TIP3   OH215100   2.059   0.545   1.291
 5048TIP3    H115101   2.050   0.610   1.222
 5048TIP3    H215102   2.017   0.466   1.255
 5049TIP3   OH215103   1.686   4.002   2.094
 5049TIP3    H115104   1.634   3.922   2.094
 5049TIP3    H215105   1.739   3.996   2.015
 5050TIP3   OH215106   7.398   4.617   4.521
 5050TIP3    H115107   7.389   4.668   4.440
 5050TIP3    H215108   7.454   4.670   4.577
 5051TIP3   OH215109   3.337   4.720   2.672
 5051TIP3    H115110   3.315   4.729   2.579
 5051TIP3    H215111   3.302   4.799   2.712
 5052TIP3   OH215112   0.608   2.749   1.474
 5052TIP3    H115113   0.548   2.683   1.440
 5052TIP3    H215114   0.552   2.813   1.518
 5053TIP3   OH215115   3.440   1.029   1.563
 5053TIP3    H115116   3.444   0.942   1.525
 5053TIP3    H215117   3.358   1.066   1.531
 5054TIP3   OH215118   1.731   0.528   2.792
 5054TIP3    H115119   1.641   0.561   2.793
 5054TIP3    H215120   1.731   0.458   2.857
 5055TIP3   OH215121   4.358   1.524   0.767
 5055TIP3    H115122   4.282   1.551   0.818
 5055TIP3    H215123   4.338   1.434   0.740
 5056TIP3   OH215124   0.886   2.702   1.584
 5056TIP3    H115125   0.885   2.734   1.674
 5056TIP3    H215126   0.794   2.694   1.561
 5057TIP3   OH215127   0.676   6.487   1.053
 5057TIP3    H115128   0.654   6.522   0.967
 5057TIP3    H215129   0.765   6.454   1.043
 5058TIP3   OH215130   4.997   4.187   4.334
 5058TIP3    H115131   4.913   4.216   4.299
 5058TIP3    H215132   5.062   4.220   4.272
 5059TIP3   OH215133   5.342   3.087   6.327
 5059TIP3    H115134   5.306   3.161   6.278
 5059TIP3    H215135   5.376   3.126   6.407
 5060TIP3   OH215136   0.257   4.602   3.342
 5060TIP3    H115137   0.241   4.563   3.428
 5060TIP3    H215138   0.280   4.693   3.360
 5061TIP3   OH215139   1.986   1.211   4.247
 5061TIP3    H115140   1.934   1.178   4.174
 5061TIP3    H215141   1.956   1.301   4.259
 5062TIP3   OH215142   2.423   2.321   2.611
 5062TIP3    H115143   2.360   2.298   2.679
 5062TIP3    H215144   2.507   2.287   2.643
 5063TIP3   OH215145   4.790   1.324   2.962
 5063TIP3    H115146   4.705   1.299   2.926
 5063TIP3    H215147   4.776   1.327   3.057
 5064TIP3   OH215148   8.119   5.660   1.521
 5064TIP3    H115149   8.187   5.629   1.580
 5064TIP3    H215150   8.131   5.755   1.518
 5065TIP3   OH215151   5.228   5.626   0.504
 5065TIP3    H115152   5.304   5.571   0.486
 5065TIP3    H215153   5.154   5.565   0.509
 5066TIP3   OH215154   0.341   5.726   3.098
 5066TIP3    H115155   0.393   5.704   3.175
 5066TIP3    H215156   0.255   5.688   3.116
 5067TIP3   OH215157   2.110   2.325   6.350
 5067TIP3    H115158   2.076   2.389   6.287
 5067TIP3    H215159   2.079   2.241   6.318
 5068TIP3   OH215160   2.465   0.222   3.710
 5068TIP3    H115161   2.469   0.200   3.803
 5068TIP3    H215162   2.382   0.183   3.680
 5069TIP3   OH215163   2.342   5.116   3.069
 5069TIP3    H115164   2.322   5.033   3.113
 5069TIP3    H215165   2.316   5.184   3.132
 5070TIP3   OH215166   4.064   7.405   5.714
 5070TIP3    H115167   4.053   7.495   5.745
 5070TIP3    H215168   4.158   7.394   5.706
 5071TIP3   OH215169   0.992   5.758   5.153
 5071TIP3    H115170   1.083   5.771   5.126
 5071TIP3    H215171   0.940   5.781   5.076
 5072TIP3   OH215172   3.626   4.816   0.696
 5072TIP3    H115173   3.687   4.890   0.696
 5072TIP3    H215174   3.673   4.746   0.741
 5073TIP3   OH215175   5.411   5.315   5.716
 5073TIP3    H115176   5.463   5.234   5.718
 5073TIP3    H215177   5.322   5.285   5.697
 5074TIP3   OH215178   3.898   6.061   0.849
 5074TIP3    H115179   3.923   5.971   0.869
 5074TIP3    H215180   3.900   6.106   0.933
 5075TIP3   OH215181   3.533   4.706   1.120
 5075TIP3    H115182   3.555   4.634   1.060
 5075TIP3    H215183   3.524   4.664   1.205
 5076TIP3   OH215184   2.243   5.649   6.157
 5076TIP3    H115185   2.205   5.565   6.182
 5076TIP3    H215186   2.178   5.689   6.100
 5077TIP3   OH215187   0.763   1.347   4.600
 5077TIP3    H115188   0.815   1.271   4.626
 5077TIP3    H215189   0.782   1.358   4.507
 5078TIP3   OH215190   5.729   0.061   2.979
 5078TIP3    H115191   5.740   0.052   3.074
 5078TIP3    H215192   5.818   0.056   2.944
 5079TIP3   OH215193   2.620   3.779   5.901
 5079TIP3    H115194   2.550   3.745   5.846
 5079TIP3    H215195   2.623   3.873   5.883
 5080TIP3   OH215196   7.276   0.972   6.147
 5080TIP3    H115197   7.309   0.995   6.060
 5080TIP3    H215198   7.341   1.010   6.207
 5081TIP3   OH215199   7.328   4.927   4.647
 5081TIP3    H115200   7.356   4.962   4.562
 5081TIP3    H215201   7.408   4.891   4.686
 5082TIP3   OH215202   5.196   1.905   4.167
 5082TIP3    H115203   5.232   1.968   4.230
 5082TIP3    H215204   5.107   1.935   4.152
 5083TIP3   OH215205   1.231   5.416   0.283
 5083TIP3    H115206   1.301   5.417   0.218
 5083TIP3    H215207   1.275   5.428   0.367
 5084TIP3   OH215208   5.939   3.389   2.743
 5084TIP3    H115209   5.886   3.459   2.782
 5084TIP3    H215210   5.975   3.428   2.664
 5085TIP3   OH215211   0.012   5.332   1.111
 5085TIP3    H115212   0.026   5.423   1.135
 5085TIP3    H215213   0.019   5.284   1.194
 5086TIP3   OH215214   1.345   4.800   2.555
 5086TIP3    H115215   1.346   4.870   2.621
 5086TIP3    H215216   1.277   4.740   2.586
 5087TIP3   OH215217   4.293   1.956   0.021
 5087TIP3    H115218   4.213   1.991   0.059
 5087TIP3    H215219   4.353   2.031   0.016
 5088TIP3   OH215220   4.433   1.339   1.512
 5088TIP3    H115221   4.362   1.382   1.560
 5088TIP3    H215222   4.406   1.248   1.505
 5089TIP3   OH215223   8.131   6.784   3.382
 5089TIP3    H115224   8.174   6.738   3.310
 5089TIP3    H215225   8.161   6.738   3.461
 5090TIP3   OH215226   5.239   3.301   0.166
 5090TIP3    H115227   5.191   3.316   0.248
 5090TIP3    H215228   5.196   3.357   0.102
 5091TIP3   OH215229   7.677   2.691   3.837
 5091TIP3    H115230   7.693   2.602   3.866
 5091TIP3    H215231   7.621   2.681   3.759
 5092TIP3   OH215232   3.963   2.279   6.254
 5092TIP3    H115233   3.996   2.244   6.337
 5092TIP3    H215234   3.870   2.291   6.268
 5093TIP3   OH215235   6.028   5.622   1.002
 5093TIP3    H115236   5.969   5.677   0.951
 5093TIP3    H215237   6.059   5.678   1.073
 5094TIP3   OH215238   2.108   4.243   5.981
 5094TIP3    H115239   2.056   4.163   5.981
 5094TIP3    H215240   2.191   4.218   5.940
 5095TIP3   OH215241   1.610   2.048   4.510
 5095TIP3    H115242   1.642   1.959   4.525
 5095TIP3    H215243   1.687   2.096   4.478
 5096TIP3   OH215244   2.565   6.778   6.741
 5096TIP3    H115245   2.531   6.867   6.737
 5096TIP3    H215246   2.531   6.743   6.823
 5097TIP3   OH215247   7.605   4.073   0.761
 5097TIP3    H115248   7.637   4.003   0.817
 5097TIP3    H215249   7.662   4.147   0.781
 5098TIP3   OH215250   4.563   0.174   4.798
 5098TIP3    H115251   4.655   0.171   4.770
 5098TIP3    H215252   4.551   0.095   4.850
 5099TIP3   OH215253   7.916   6.561   6.778
 5099TIP3    H115254   7.925   6.584   6.686
 5099TIP3    H215255   7.857   6.486   6.779
 5100TIP3   OH215256   2.001   6.905   1.411
 5100TIP3    H115257   1.914   6.877   1.385
 5100TIP3    H215258   1.996   6.914   1.506
 5101TIP3   OH215259   3.426   7.483   1.045
 5101TIP3    H115260   3.368   7.504   0.972
 5101TIP3    H215261   3.474   7.406   1.016
 5102TIP3   OH215262   7.042   7.106   4.328
 5102TIP3    H115263   7.008   7.164   4.261
 5102TIP3    H215264   7.040   7.158   4.409
 5103TIP3   OH215265   5.454   1.891   6.254
 5103TIP3    H115266   5.537   1.936   6.236
 5103TIP3    H215267   5.464   1.858   6.343
 5104TIP3   OH215268   5.720   3.508   0.676
 5104TIP3    H115269   5.683   3.584   0.721
 5104TIP3    H215270   5.738   3.446   0.746
 5105TIP3   OH215271   1.751   2.012   5.905
 5105TIP3    H115272   1.682   1.962   5.861
 5105TIP3    H215273   1.823   1.950   5.917
 5106TIP3   OH215274   3.968   2.965   4.607
 5106TIP3    H115275   3.933   3.017   4.534
 5106TIP3    H215276   3.982   3.029   4.677
 5107TIP3   OH215277   7.198   1.421   6.630
 5107TIP3    H115278   7.253   1.495   6.656
 5107TIP3    H215279   7.176   1.437   6.539
 5108TIP3   OH215280   4.252   7.040   2.653
 5108TIP3    H115281   4.227   7.105   2.587
 5108TIP3    H215282   4.183   6.974   2.649
 5109TIP3   OH215283   4.898   7.616   0.200
 5109TIP3    H115284   4.840   7.558   0.248
 5109TIP3    H215285   4.904   7.695   0.254
 5110TIP3   OH215286   6.449   0.519   1.745
 5110TIP3    H115287   6.525   0.467   1.766
 5110TIP3    H215288   6.419   0.485   1.660
 5111TIP3   OH215289   3.983   5.694   0.497
 5111TIP3    H115290   3.992   5.761   0.429
 5111TIP3    H215291   4.073   5.680   0.528
 5112TIP3   OH215292   0.725   7.401   3.546
 5112TIP3    H115293   0.713   7.309   3.523
 5112TIP3    H215294   0.687   7.449   3.472
 5113TIP3   OH215295   5.478   4.295   0.087
 5113TIP3    H115296   5.425   4.366   0.124
 5113TIP3    H215297   5.546   4.280   0.153
 5114TIP3   OH215298   6.841   6.237   3.547
 5114TIP3    H115299   6.861   6.323   3.583
 5114TIP3    H215300   6.915   6.216   3.491
 5115TIP3   OH215301   6.449   3.353   0.207
 5115TIP3    H115302   6.466   3.411   0.281
 5115TIP3    H215303   6.434   3.267   0.248
 5116TIP3   OH215304   7.996   7.091   2.421
 5116TIP3    H115305   7.960   7.114   2.335
 5116TIP3    H215306   8.090   7.105   2.413
 5117TIP3   OH215307   6.290   7.249   0.028
 5117TIP3    H115308   6.370   7.199   0.010
 5117TIP3    H215309   6.321   7.325   0.078
 5118TIP3   OH215310   4.752   5.064   0.935
 5118TIP3    H115311   4.818   5.053   1.003
 5118TIP3    H215312   4.737   4.976   0.901
 5119TIP3   OH215313   0.297   3.555   1.324
 5119TIP3    H115314   0.203   3.566   1.309
 5119TIP3    H215315   0.319   3.623   1.387
 5120TIP3   OH215316   0.477   6.267   3.548
 5120TIP3    H115317   0.508   6.239   3.461
 5120TIP3    H215318   0.523   6.349   3.565
 5121TIP3   OH215319   3.379   0.128   4.590
 5121TIP3    H115320   3.353   0.036   4.594
 5121TIP3    H215321   3.349   0.165   4.673
 5122TIP3   OH215322   0.464   0.058   3.907
 5122TIP3    H115323   0.533  -0.008   3.911
 5122TIP3    H215324   0.419   0.041   3.824
 5123TIP3   OH215325   2.809   4.647   4.157
 5123TIP3    H115326   2.733   4.704   4.169
 5123TIP3    H215327   2.781   4.562   4.192
 5124TIP3   OH215328   0.012   0.454   3.999
 5124TIP3    H115329   0.104   0.430   3.992
 5124TIP3    H215330  -0.022   0.399   4.069
 5125TIP3   OH215331   5.565   3.583   6.512
 5125TIP3    H115332   5.566   3.628   6.427
 5125TIP3    H215333   5.536   3.494   6.491
 5126TIP3   OH215334   0.817   2.128   4.296
 5126TIP3    H115335   0.747   2.142   4.359
 5126TIP3    H215336   0.865   2.052   4.330
 5127TIP3   OH215337   6.647   3.368   1.360
 5127TIP3    H115338   6.676   3.451   1.397
 5127TIP3    H215339   6.596   3.328   1.430
 5128TIP3   OH215340   3.717   3.774   5.293
 5128TIP3    H115341   3.807   3.742   5.293
 5128TIP3    H215342   3.668   3.705   5.338
 5129TIP3   OH215343   2.536   5.637   6.235
 5129TIP3    H115344   2.590   5.707   6.270
 5129TIP3    H215345   2.448   5.675   6.230
 5130TIP3   OH215346   1.665   4.603   3.408
 5130TIP3    H115347   1.595   4.636   3.352
 5130TIP3    H215348   1.732   4.671   3.405
 5131TIP3   OH215349   0.750   2.213   1.100
 5131TIP3    H115350   0.705   2.295   1.118
 5131TIP3    H215351   0.837   2.239   1.068
 5132TIP3   OH215352   6.600   6.153   0.415
 5132TIP3    H115353   6.679   6.189   0.376
 5132TIP3    H215354   6.624   6.064   0.442
 5133TIP3   OH215355   6.813   4.697   2.149
 5133TIP3    H115356   6.870   4.620   2.150
 5133TIP3    H215357   6.739   4.671   2.095
 5134TIP3   OH215358   8.131   6.462   0.513
 5134TIP3    H115359   8.087   6.547   0.513
 5134TIP3    H215360   8.145   6.442   0.605
 5135TIP3   OH215361   2.715   6.156   5.314
 5135TIP3    H115362   2.770   6.232   5.291
 5135TIP3    H215363   2.770   6.080   5.293
 5136TIP3   OH215364   3.173   0.435   0.325
 5136TIP3    H115365   3.120   0.479   0.392
 5136TIP3    H215366   3.109   0.399   0.264
 5137TIP3   OH215367   1.076   4.057   2.452
 5137TIP3    H115368   1.130   4.130   2.423
 5137TIP3    H215369   1.078   3.995   2.379
 5138TIP3   OH215370   2.079   0.549   5.686
 5138TIP3    H115371   2.055   0.628   5.639
 5138TIP3    H215372   2.154   0.574   5.739
 5139TIP3   OH215373   6.600   6.511   3.560
 5139TIP3    H115374   6.690   6.533   3.583
 5139TIP3    H215375   6.603   6.485   3.468
 5140TIP3   OH215376   0.166   0.814   5.268
 5140TIP3    H115377   0.084   0.791   5.224
 5140TIP3    H215378   0.229   0.826   5.197
 5141TIP3   OH215379   5.027   5.488   4.397
 5141TIP3    H115380   5.109   5.482   4.348
 5141TIP3    H215381   5.002   5.397   4.412
 5142TIP3   OH215382   4.200   1.026   3.927
 5142TIP3    H115383   4.268   0.976   3.971
 5142TIP3    H215384   4.134   1.042   3.995
 5143TIP3   OH215385   5.048   3.499   6.327
 5143TIP3    H115386   5.093   3.482   6.410
 5143TIP3    H215387   4.988   3.571   6.347
 5144TIP3   OH215388   4.974   6.718   2.272
 5144TIP3    H115389   4.994   6.629   2.243
 5144TIP3    H215390   5.047   6.741   2.330
 5145TIP3   OH215391   5.306   3.400   4.760
 5145TIP3    H115392   5.330   3.465   4.695
 5145TIP3    H215393   5.242   3.444   4.816
 5146TIP3   OH215394   6.352   5.295   5.951
 5146TIP3    H115395   6.334   5.366   5.890
 5146TIP3    H215396   6.302   5.318   6.030
 5147TIP3   OH215397   1.838   3.799   6.231
 5147TIP3    H115398   1.757   3.806   6.181
 5147TIP3    H215399   1.881   3.884   6.218
 5148TIP3   OH215400   5.218   7.345   5.407
 5148TIP3    H115401   5.236   7.267   5.460
 5148TIP3    H215402   5.126   7.336   5.382
 5149TIP3   OH215403   5.527   5.846   3.011
 5149TIP3    H115404   5.511   5.920   3.069
 5149TIP3    H215405   5.472   5.776   3.046
 5150TIP3   OH215406   5.585   6.048   0.752
 5150TIP3    H115407   5.648   5.977   0.766
 5150TIP3    H215408   5.636   6.128   0.768
 5151TIP3   OH215409   5.613   6.270   4.058
 5151TIP3    H115410   5.657   6.350   4.031
 5151TIP3    H215411   5.532   6.299   4.100
 5152TIP3   OH215412   3.196   0.890   6.648
 5152TIP3    H115413   3.184   0.922   6.737
 5152TIP3    H215414   3.114   0.913   6.604
 5153TIP3   OH215415   2.855   5.010   4.364
 5153TIP3    H115416   2.830   4.922   4.396
 5153TIP3    H215417   2.949   5.015   4.378
 5154TIP3   OH215418   2.321   0.474   1.439
 5154TIP3    H115419   2.303   0.505   1.528
 5154TIP3    H215420   2.240   0.431   1.412
 5155TIP3   OH215421   4.123   3.312   5.829
 5155TIP3    H115422   4.087   3.336   5.914
 5155TIP3    H215423   4.192   3.376   5.813
 5156TIP3   OH215424   4.175   1.202   0.915
 5156TIP3    H115425   4.118   1.126   0.904
 5156TIP3    H215426   4.176   1.217   1.010
 5157TIP3   OH215427   6.363   2.976   3.397
 5157TIP3    H115428   6.439   3.001   3.345
 5157TIP3    H215429   6.288   3.007   3.346
 5158TIP3   OH215430   0.081   2.602   4.316
 5158TIP3    H115431   0.147   2.671   4.316
 5158TIP3    H215432   0.082   2.567   4.405
 5159TIP3   OH215433   4.718   1.846   4.186
 5159TIP3    H115434   4.629   1.838   4.218
 5159TIP3    H215435   4.756   1.759   4.199
 5160TIP3   OH215436   8.010   1.092   1.197
 5160TIP3    H115437   8.065   1.119   1.270
 5160TIP3    H215438   8.018   0.997   1.194
 5161TIP3   OH215439   6.422   7.587   6.384
 5161TIP3    H115440   6.350   7.583   6.447
 5161TIP3    H215441   6.467   7.669   6.403
 5162TIP3   OH215442   0.522   3.837   0.676
 5162TIP3    H115443   0.551   3.864   0.589
 5162TIP3    H215444   0.550   3.746   0.684
 5163TIP3   OH215445   1.235   5.232   1.597
 5163TIP3    H115446   1.327   5.216   1.618
 5163TIP3    H215447   1.205   5.292   1.666
 5164TIP3   OH215448   5.036   0.755   2.743
 5164TIP3    H115449   5.040   0.753   2.839
 5164TIP3    H215450   5.115   0.802   2.717
 5165TIP3   OH215451   4.156   5.707   1.285
 5165TIP3    H115452   4.138   5.702   1.191
 5165TIP3    H215453   4.245   5.741   1.291
 5166TIP3   OH215454   2.330   7.078   3.354
 5166TIP3    H115455   2.388   7.124   3.292
 5166TIP3    H215456   2.245   7.076   3.310
 5167TIP3   OH215457   2.158   6.570   4.274
 5167TIP3    H115458   2.155   6.632   4.201
 5167TIP3    H215459   2.178   6.624   4.350
 5168TIP3   OH215460   2.553   5.092   4.065
 5168TIP3    H115461   2.518   5.156   4.003
 5168TIP3    H215462   2.492   5.095   4.139
 5169TIP3   OH215463   2.880   0.518   6.181
 5169TIP3    H115464   2.952   0.479   6.131
 5169TIP3    H215465   2.885   0.477   6.267
 5170TIP3   OH215466   3.019   1.109   5.384
 5170TIP3    H115467   3.081   1.174   5.350
 5170TIP3    H215468   3.071   1.029   5.391
 5171TIP3   OH215469   7.197   1.112   5.591
 5171TIP3    H115470   7.149   1.135   5.670
 5171TIP3    H215471   7.133   1.066   5.536
 5172TIP3   OH215472   4.483   1.171   4.182
 5172TIP3    H115473   4.471   1.220   4.100
 5172TIP3    H215474   4.576   1.181   4.203
 5173TIP3   OH215475   4.058   7.586   0.082
 5173TIP3    H115476   4.085   7.499   0.053
 5173TIP3    H215477   4.077   7.588   0.176
 5174TIP3   OH215478   5.253   5.610   6.065
 5174TIP3    H115479   5.307   5.687   6.044
 5174TIP3    H215480   5.163   5.639   6.049
 5175TIP3   OH215481   0.145   6.640   5.525
 5175TIP3    H115482   0.112   6.659   5.437
 5175TIP3    H215483   0.221   6.697   5.534
 5176TIP3   OH215484   8.156   2.494   5.442
 5176TIP3    H115485   8.116   2.489   5.356
 5176TIP3    H215486   8.215   2.569   5.437
 5177TIP3   OH215487   0.916   2.832   5.547
 5177TIP3    H115488   0.830   2.842   5.588
 5177TIP3    H215489   0.949   2.749   5.580
 5178TIP3   OH215490   5.386   1.418   5.489
 5178TIP3    H115491   5.312   1.364   5.461
 5178TIP3    H215492   5.463   1.373   5.453
 5179TIP3   OH215493   4.430   5.093   2.234
 5179TIP3    H115494   4.367   5.154   2.196
 5179TIP3    H215495   4.511   5.143   2.239
 5180TIP3   OH215496   0.819   3.084   3.409
 5180TIP3    H115497   0.804   3.137   3.487
 5180TIP3    H215498   0.913   3.066   3.409
 5181TIP3   OH215499   5.770   4.557   3.704
 5181TIP3    H115500   5.758   4.630   3.765
 5181TIP3    H215501   5.861   4.530   3.717
 5182TIP3   OH215502   7.270   4.810   0.821
 5182TIP3    H115503   7.351   4.860   0.812
 5182TIP3    H215504   7.236   4.803   0.731
 5183TIP3   OH215505   1.918   6.780   0.079
 5183TIP3    H115506   1.978   6.838   0.127
 5183TIP3    H215507   1.976   6.720   0.032
 5184TIP3   OH215508   7.258   1.359   3.847
 5184TIP3    H115509   7.280   1.406   3.767
 5184TIP3    H215510   7.173   1.395   3.874
 5185TIP3   OH215511   4.253   0.222   0.053
 5185TIP3    H115512   4.343   0.197   0.029
 5185TIP3    H215513   4.202   0.203  -0.026
 5186TIP3   OH215514   4.991   3.088   2.513
 5186TIP3    H115515   5.065   3.066   2.456
 5186TIP3    H215516   4.915   3.082   2.456
 5187TIP3   OH215517   2.723   6.761   6.202
 5187TIP3    H115518   2.728   6.798   6.113
 5187TIP3    H215519   2.691   6.672   6.189
 5188TIP3   OH215520   6.506   1.894   0.223
 5188TIP3    H115521   6.497   1.807   0.262
 5188TIP3    H215522   6.420   1.934   0.232
 5189TIP3   OH215523   0.010   2.094   3.027
 5189TIP3    H115524   0.029   2.128   2.940
 5189TIP3    H215525   0.008   1.999   3.016
 5190TIP3   OH215526   1.395   5.718   5.468
 5190TIP3    H115527   1.464   5.733   5.534
 5190TIP3    H215528   1.313   5.726   5.517
 5191TIP3   OH215529   1.606   0.882   4.933
 5191TIP3    H115530   1.635   0.874   4.842
 5191TIP3    H215531   1.559   0.966   4.935
 5192TIP3   OH215532   6.279   7.115   3.180
 5192TIP3    H115533   6.285   7.074   3.093
 5192TIP3    H215534   6.210   7.066   3.224
 5193TIP3   OH215535   0.260   6.271   1.609
 5193TIP3    H115536   0.257   6.358   1.567
 5193TIP3    H215537   0.338   6.230   1.571
 5194TIP3   OH215538   7.667   2.546   4.224
 5194TIP3    H115539   7.663   2.583   4.313
 5194TIP3    H215540   7.591   2.488   4.219
 5195TIP3   OH215541   0.568   6.023   6.622
 5195TIP3    H115542   0.602   5.955   6.679
 5195TIP3    H215543   0.523   5.976   6.552
 5196TIP3   OH215544   3.000   6.014   5.298
 5196TIP3    H115545   3.092   5.993   5.315
 5196TIP3    H215546   2.978   5.961   5.221
 5197TIP3   OH215547   6.061   5.090   0.251
 5197TIP3    H115548   6.103   5.132   0.176
 5197TIP3    H215549   6.093   5.000   0.249
 5198TIP3   OH215550   8.138   5.428   2.102
 5198TIP3    H115551   8.132   5.424   2.198
 5198TIP3    H215552   8.136   5.336   2.075
 5199TIP3   OH215553   4.421   1.418   1.914
 5199TIP3    H115554   4.434   1.505   1.950
 5199TIP3    H215555   4.371   1.432   1.833
 5200TIP3   OH215556   1.447   2.622   6.347
 5200TIP3    H115557   1.353   2.608   6.336
 5200TIP3    H215558   1.463   2.708   6.308
 5201TIP3   OH215559   5.104   6.529   1.536
 5201TIP3    H115560   5.147   6.533   1.622
 5201TIP3    H215561   5.100   6.436   1.515
 5202TIP3   OH215562   5.640   3.028   6.311
 5202TIP3    H115563   5.706   3.060   6.249
 5202TIP3    H215564   5.560   3.022   6.260
 5203TIP3   OH215565   7.185   5.058   0.177
 5203TIP3    H115566   7.202   4.998   0.104
 5203TIP3    H215567   7.199   5.004   0.255
 5204TIP3   OH215568   4.061   1.576   3.734
 5204TIP3    H115569   4.152   1.603   3.749
 5204TIP3    H215570   4.030   1.635   3.665
 5205TIP3   OH215571   1.552   0.058   3.202
 5205TIP3    H115572   1.499   0.124   3.158
 5205TIP3    H215573   1.560   0.090   3.292
 5206TIP3   OH215574   7.563   4.415   3.398
 5206TIP3    H115575   7.595   4.416   3.308
 5206TIP3    H215576   7.537   4.324   3.413
 5207TIP3   OH215577   8.014   0.581   2.452
 5207TIP3    H115578   7.918   0.581   2.454
 5207TIP3    H215579   8.040   0.559   2.542
 5208TIP3   OH215580   3.914   2.915   6.797
 5208TIP3    H115581   3.976   2.892   6.728
 5208TIP3    H215582   3.853   2.841   6.800
 5209TIP3   OH215583   3.975   6.566   6.571
 5209TIP3    H115584   4.051   6.512   6.551
 5209TIP3    H215585   3.924   6.566   6.490
 5210TIP3   OH215586   7.822   4.506   1.544
 5210TIP3    H115587   7.741   4.535   1.585
 5210TIP3    H215588   7.887   4.510   1.615
 5211TIP3   OH215589   4.220   7.342   1.191
 5211TIP3    H115590   4.223   7.431   1.156
 5211TIP3    H215591   4.129   7.329   1.217
 5212TIP3   OH215592   4.447   4.224   1.910
 5212TIP3    H115593   4.384   4.296   1.909
 5212TIP3    H215594   4.532   4.266   1.893
 5213TIP3   OH215595   0.525   7.407   4.023
 5213TIP3    H115596   0.541   7.335   3.962
 5213TIP3    H215597   0.437   7.437   4.001
 5214TIP3   OH215598   4.817   1.559   0.362
 5214TIP3    H115599   4.836   1.506   0.285
 5214TIP3    H215600   4.741   1.611   0.337
 5215TIP3   OH215601   2.189   4.176   5.644
 5215TIP3    H115602   2.228   4.164   5.557
 5215TIP3    H215603   2.194   4.270   5.660
 5216TIP3   OH215604   7.423   2.573   3.108
 5216TIP3    H115605   7.437   2.664   3.081
 5216TIP3    H215606   7.357   2.579   3.178
 5217TIP3   OH215607   5.285   3.645   6.636
 5217TIP3    H115608   5.267   3.722   6.690
 5217TIP3    H215609   5.352   3.674   6.575
 5218TIP3   OH215610   6.939   6.846   4.955
 5218TIP3    H115611   6.982   6.853   4.870
 5218TIP3    H215612   6.901   6.932   4.970
 5219TIP3   OH215613   1.909   3.034   1.953
 5219TIP3    H115614   1.819   3.066   1.948
 5219TIP3    H215615   1.932   3.040   2.046
 5220TIP3   OH215616   2.530   7.532   3.976
 5220TIP3    H115617   2.466   7.593   3.940
 5220TIP3    H215618   2.486   7.447   3.975
 5221TIP3   OH215619   5.065   0.643   5.362
 5221TIP3    H115620   5.154   0.606   5.359
 5221TIP3    H215621   5.009   0.574   5.328
 5222TIP3   OH215622   5.246   1.511   2.441
 5222TIP3    H115623   5.274   1.564   2.516
 5222TIP3    H215624   5.290   1.427   2.454
 5223TIP3   OH215625   6.560   2.565   2.786
 5223TIP3    H115626   6.484   2.516   2.755
 5223TIP3    H215627   6.523   2.634   2.841
 5224TIP3   OH215628   7.336   3.285   0.444
 5224TIP3    H115629   7.399   3.217   0.420
 5224TIP3    H215630   7.256   3.262   0.398
 5225TIP3   OH215631   4.414   2.924   2.373
 5225TIP3    H115632   4.342   2.939   2.312
 5225TIP3    H215633   4.446   2.836   2.352
 5226TIP3   OH215634   6.841   5.683   2.335
 5226TIP3    H115635   6.791   5.650   2.261
 5226TIP3    H215636   6.775   5.709   2.399
 5227TIP3   OH215637   7.964   2.580   4.835
 5227TIP3    H115638   8.035   2.539   4.787
 5227TIP3    H215639   7.885   2.534   4.805
 5228TIP3   OH215640   7.787   2.886   1.847
 5228TIP3    H115641   7.804   2.913   1.937
 5228TIP3    H215642   7.707   2.934   1.823
 5229TIP3   OH215643   1.815   3.453   3.699
 5229TIP3    H115644   1.899   3.442   3.653
 5229TIP3    H215645   1.834   3.514   3.770
 5230TIP3   OH215646   1.762   7.383   3.339
 5230TIP3    H115647   1.789   7.458   3.392
 5230TIP3    H215648   1.717   7.422   3.264
 5231TIP3   OH215649   4.385   7.370   4.006
 5231TIP3    H115650   4.390   7.459   3.971
 5231TIP3    H215651   4.463   7.362   4.061
 5232TIP3   OH215652   0.500   3.089   2.849
 5232TIP3    H115653   0.549   3.166   2.819
 5232TIP3    H215654   0.436   3.073   2.780
 5233TIP3   OH215655   1.529   6.510   2.230
 5233TIP3    H115656   1.524   6.555   2.315
 5233TIP3    H215657   1.542   6.580   2.166
 5234TIP3   OH215658   4.514   1.730   2.081
 5234TIP3    H115659   4.540   1.771   1.998
 5234TIP3    H215660   4.591   1.735   2.136
 5235TIP3   OH215661   6.519   6.479   5.406
 5235TIP3    H115662   6.456   6.445   5.343
 5235TIP3    H215663   6.539   6.406   5.463
 5236TIP3   OH215664   3.611   6.179   3.230
 5236TIP3    H115665   3.561   6.248   3.188
 5236TIP3    H215666   3.684   6.162   3.170
 5237TIP3   OH215667   5.580   7.178   0.293
 5237TIP3    H115668   5.532   7.187   0.211
 5237TIP3    H215669   5.582   7.084   0.310
 5238TIP3   OH215670   5.010   7.457   3.412
 5238TIP3    H115671   4.937   7.473   3.471
 5238TIP3    H215672   5.033   7.543   3.378
 5239TIP3   OH215673   3.294   3.040   0.397
 5239TIP3    H115674   3.322   2.970   0.338
 5239TIP3    H215675   3.372   3.062   0.447
 5240TIP3   OH215676   0.197   5.371   6.509
 5240TIP3    H115677   0.280   5.353   6.464
 5240TIP3    H215678   0.174   5.288   6.552
 5241TIP3   OH215679   5.308   0.862   0.385
 5241TIP3    H115680   5.213   0.867   0.379
 5241TIP3    H215681   5.327   0.768   0.394
 5242TIP3   OH215682   4.794   5.191   2.385
 5242TIP3    H115683   4.740   5.240   2.323
 5242TIP3    H215684   4.876   5.176   2.337
 5243TIP3   OH215685   3.097   4.602   1.069
 5243TIP3    H115686   3.112   4.524   1.122
 5243TIP3    H215687   3.108   4.573   0.979
 5244TIP3   OH215688   3.396   7.308   4.951
 5244TIP3    H115689   3.445   7.307   4.869
 5244TIP3    H215690   3.410   7.396   4.986
 5245TIP3   OH215691   0.573   4.471   3.395
 5245TIP3    H115692   0.505   4.529   3.428
 5245TIP3    H215693   0.562   4.391   3.446
 5246TIP3   OH215694   0.153   3.828   3.579
 5246TIP3    H115695   0.215   3.878   3.525
 5246TIP3    H215696   0.169   3.860   3.668
 5247TIP3   OH215697   3.405   6.195   4.228
 5247TIP3    H115698   3.365   6.273   4.192
 5247TIP3    H215699   3.335   6.129   4.228
 5248TIP3   OH215700   1.504   2.514   4.625
 5248TIP3    H115701   1.580   2.461   4.601
 5248TIP3    H215702   1.510   2.591   4.570
 5249TIP3   OH215703   3.436   3.975   1.848
 5249TIP3    H115704   3.499   3.972   1.776
 5249TIP3    H215705   3.487   4.008   1.923
 5250TIP3   OH215706   2.299   3.441   4.527
 5250TIP3    H115707   2.301   3.379   4.600
 5250TIP3    H215708   2.222   3.495   4.542
 5251TIP3   OH215709   2.071   2.122   3.542
 5251TIP3    H115710   2.026   2.117   3.457
 5251TIP3    H215711   2.152   2.168   3.523
 5252TIP3   OH215712   6.245   4.105   4.443
 5252TIP3    H115713   6.172   4.158   4.477
 5252TIP3    H215714   6.257   4.134   4.353
 5253TIP3   OH215715   8.017   7.524   0.730
 5253TIP3    H115716   8.098   7.567   0.758
 5253TIP3    H215717   7.961   7.595   0.701
 5254TIP3   OH215718   5.281   5.383   5.325
 5254TIP3    H115719   5.345   5.316   5.350
 5254TIP3    H215720   5.243   5.350   5.243
 5255TIP3   OH215721   6.128   2.232   2.560
 5255TIP3    H115722   6.192   2.284   2.512
 5255TIP3    H215723   6.134   2.145   2.522
 5256TIP3   OH215724   2.992   5.219   1.398
 5256TIP3    H115725   3.061   5.281   1.374
 5256TIP3    H215726   3.019   5.136   1.357
 5257TIP3   OH215727   3.633   7.846   2.887
 5257TIP3    H115728   3.645   7.765   2.838
 5257TIP3    H215729   3.556   7.887   2.847
 5258TIP3   OH215730   2.573   0.707   4.790
 5258TIP3    H115731   2.645   0.668   4.840
 5258TIP3    H215732   2.547   0.784   4.841
 5259TIP3   OH215733   3.729   0.521   6.371
 5259TIP3    H115734   3.820   0.551   6.377
 5259TIP3    H215735   3.733   0.428   6.393
 5260TIP3   OH215736   3.847   6.219   3.754
 5260TIP3    H115737   3.941   6.226   3.739
 5260TIP3    H215738   3.819   6.147   3.699
 5261TIP3   OH215739   4.009   5.965   3.388
 5261TIP3    H115740   4.006   5.869   3.381
 5261TIP3    H215741   4.005   5.996   3.298
 5262TIP3   OH215742   0.755   1.459   1.137
 5262TIP3    H115743   0.748   1.495   1.225
 5262TIP3    H215744   0.667   1.468   1.100
 5263TIP3   OH215745   2.064   3.240   5.525
 5263TIP3    H115746   2.085   3.327   5.561
 5263TIP3    H215747   2.127   3.228   5.454
 5264TIP3   OH215748   4.918   1.232   6.178
 5264TIP3    H115749   4.893   1.312   6.133
 5264TIP3    H215750   5.014   1.237   6.184
 5265TIP3   OH215751   2.224   1.973   4.428
 5265TIP3    H115752   2.298   2.030   4.447
 5265TIP3    H215753   2.161   1.990   4.498
 5266TIP3   OH215754   4.814   5.549   2.352
 5266TIP3    H115755   4.905   5.520   2.363
 5266TIP3    H215756   4.812   5.638   2.387
 5267TIP3   OH215757   4.087   2.913   2.688
 5267TIP3    H115758   4.178   2.894   2.664
 5267TIP3    H215759   4.067   2.994   2.642
 5268TIP3   OH215760   6.450   2.907   5.905
 5268TIP3    H115761   6.372   2.857   5.883
 5268TIP3    H215762   6.442   2.925   5.998
 5269TIP3   OH215763   4.670   5.565   3.943
 5269TIP3    H115764   4.648   5.479   3.906
 5269TIP3    H215765   4.623   5.627   3.887
 5270TIP3   OH215766   8.230   5.824   5.867
 5270TIP3    H115767   8.179   5.867   5.936
 5270TIP3    H215768   8.204   5.732   5.871
 5271TIP3   OH215769   6.595   5.576   2.224
 5271TIP3    H115770   6.503   5.602   2.233
 5271TIP3    H215771   6.594   5.481   2.242
 5272TIP3   OH215772   0.098   6.119   6.064
 5272TIP3    H115773   0.085   6.075   6.149
 5272TIP3    H215774   0.167   6.069   6.021
 5273TIP3   OH215775   2.860   7.511   6.069
 5273TIP3    H115776   2.778   7.556   6.050
 5273TIP3    H215777   2.927   7.580   6.065
 5274TIP3   OH215778   6.238   2.411   6.700
 5274TIP3    H115779   6.193   2.479   6.750
 5274TIP3    H215780   6.305   2.458   6.650
 5275TIP3   OH215781   5.417   6.202   3.270
 5275TIP3    H115782   5.491   6.147   3.294
 5275TIP3    H215783   5.352   6.141   3.234
 5276TIP3   OH215784   0.831   1.645   3.984
 5276TIP3    H115785   0.792   1.717   4.034
 5276TIP3    H215786   0.782   1.644   3.901
 5277TIP3   OH215787   6.609   0.396   3.330
 5277TIP3    H115788   6.574   0.348   3.405
 5277TIP3    H215789   6.539   0.394   3.265
 5278TIP3   OH215790   1.548   3.520   2.240
 5278TIP3    H115791   1.474   3.533   2.300
 5278TIP3    H215792   1.625   3.514   2.296
 5279TIP3   OH215793   5.127   0.165   3.255
 5279TIP3    H115794   5.196   0.189   3.316
 5279TIP3    H215795   5.121   0.239   3.194
 5280TIP3   OH215796   5.259   4.037   2.444
 5280TIP3    H115797   5.309   3.958   2.463
 5280TIP3    H215798   5.197   4.044   2.517
 5281TIP3   OH215799   5.019   2.824   6.042
 5281TIP3    H115800   5.079   2.755   6.014
 5281TIP3    H215801   5.068   2.905   6.026
 5282TIP3   OH215802   3.516   0.943   4.848
 5282TIP3    H115803   3.490   0.915   4.936
 5282TIP3    H215804   3.601   0.902   4.834
 5283TIP3   OH215805   7.229   7.264   3.004
 5283TIP3    H115806   7.200   7.337   2.948
 5283TIP3    H215807   7.226   7.188   2.947
 5284TIP3   OH215808   7.983   0.326   1.470
 5284TIP3    H115809   8.015   0.325   1.560
 5284TIP3    H215810   8.052   0.284   1.419
 5285TIP3   OH215811   5.429   1.788   3.028
 5285TIP3    H115812   5.418   1.789   2.933
 5285TIP3    H215813   5.347   1.824   3.063
 5286TIP3   OH215814   5.706   1.402   2.033
 5286TIP3    H115815   5.758   1.452   2.096
 5286TIP3    H215816   5.749   1.415   1.949
 5287TIP3   OH215817   1.905   4.156   3.434
 5287TIP3    H115818   1.998   4.138   3.423
 5287TIP3    H215819   1.891   4.239   3.388
 5288TIP3   OH215820   3.651   4.008   5.424
 5288TIP3    H115821   3.701   3.954   5.363
 5288TIP3    H215822   3.694   3.995   5.508
 5289TIP3   OH215823   8.242   1.068   6.048
 5289TIP3    H115824   8.161   1.118   6.044
 5289TIP3    H215825   8.303   1.117   5.993
 5290TIP3   OH215826   5.755   5.138   2.215
 5290TIP3    H115827   5.693   5.073   2.248
 5290TIP3    H215828   5.746   5.212   2.275
 5291TIP3   OH215829   3.839   3.270   0.090
 5291TIP3    H115830   3.897   3.326   0.038
 5291TIP3    H215831   3.892   3.242   0.164
 5292TIP3   OH215832   4.645   7.337   6.320
 5292TIP3    H115833   4.637   7.263   6.260
 5292TIP3    H215834   4.739   7.343   6.339
 5293TIP3   OH215835   0.315   1.682   4.934
 5293TIP3    H115836   0.352   1.736   4.864
 5293TIP3    H215837   0.333   1.592   4.908
 5294TIP3   OH215838   3.062   3.136   4.288
 5294TIP3    H115839   3.060   3.230   4.272
 5294TIP3    H215840   2.970   3.111   4.292
 5295TIP3   OH215841   7.938   2.227   6.546
 5295TIP3    H115842   7.966   2.305   6.594
 5295TIP3    H215843   8.012   2.206   6.489
 5296TIP3   OH215844   4.741   5.221   4.102
 5296TIP3    H115845   4.823   5.264   4.128
 5296TIP3    H215846   4.694   5.288   4.051
 5297TIP3   OH215847   5.314   3.040   1.855
 5297TIP3    H115848   5.363   2.975   1.804
 5297TIP3    H215849   5.223   3.027   1.829
 5298TIP3   OH215850   0.723   0.048   6.571
 5298TIP3    H115851   0.713   0.073   6.663
 5298TIP3    H215852   0.666  -0.028   6.560
 5299TIP3   OH215853   8.057   6.538   4.563
 5299TIP3    H115854   8.106   6.457   4.577
 5299TIP3    H215855   8.017   6.557   4.648
 5300TIP3   OH215856   4.064   0.724   0.118
 5300TIP3    H115857   4.057   0.631   0.140
 5300TIP3    H215858   4.024   0.731   0.031
 5301TIP3   OH215859   3.924   5.738   5.944
 5301TIP3    H115860   3.918   5.658   5.892
 5301TIP3    H215861   3.834   5.755   5.972
 5302TIP3   OH215862   0.847   2.674   3.465
 5302TIP3    H115863   0.847   2.686   3.371
 5302TIP3    H215864   0.838   2.580   3.478
 5303TIP3   OH215865   3.860   4.015   6.322
 5303TIP3    H115866   3.933   3.994   6.380
 5303TIP3    H215867   3.787   4.032   6.381
 5304TIP3   OH215868   4.974   5.467   0.615
 5304TIP3    H115869   5.031   5.457   0.691
 5304TIP3    H215870   4.905   5.401   0.628
 5305TIP3   OH215871   7.391   6.878   6.710
 5305TIP3    H115872   7.375   6.950   6.650
 5305TIP3    H215873   7.375   6.915   6.797
 5306TIP3   OH215874   0.315   2.057   5.336
 5306TIP3    H115875   0.273   2.028   5.255
 5306TIP3    H215876   0.338   2.148   5.321
 5307TIP3   OH215877   3.233   3.811   2.540
 5307TIP3    H115878   3.306   3.844   2.488
 5307TIP3    H215879   3.157   3.863   2.511
 5308TIP3   OH215880   7.169   6.604   5.765
 5308TIP3    H115881   7.263   6.591   5.753
 5308TIP3    H215882   7.134   6.516   5.779
 5309TIP3   OH215883   5.790   6.944   6.410
 5309TIP3    H115884   5.826   6.998   6.340
 5309TIP3    H215885   5.843   6.864   6.409
 5310TIP3   OH215886   0.757   6.561   6.062
 5310TIP3    H115887   0.812   6.627   6.021
 5310TIP3    H215888   0.773   6.571   6.156
 5311TIP3   OH215889   7.303   7.479   3.419
 5311TIP3    H115890   7.329   7.568   3.394
 5311TIP3    H215891   7.349   7.422   3.357
 5312TIP3   OH215892   1.711   4.458   2.598
 5312TIP3    H115893   1.691   4.401   2.524
 5312TIP3    H215894   1.626   4.472   2.641
 5313TIP3   OH215895   0.098   2.931   2.475
 5313TIP3    H115896   0.030   2.968   2.418
 5313TIP3    H215897   0.077   2.966   2.562
 5314TIP3   OH215898   1.680   2.592   4.074
 5314TIP3    H115899   1.593   2.632   4.084
 5314TIP3    H215900   1.741   2.663   4.092
 5315TIP3   OH215901   7.332   1.267   6.072
 5315TIP3    H115902   7.313   1.188   6.021
 5315TIP3    H215903   7.256   1.277   6.129
 5316TIP3   OH215904   8.027   2.835   2.229
 5316TIP3    H115905   8.019   2.789   2.313
 5316TIP3    H215906   7.937   2.845   2.199
 5317TIP3   OH215907   5.490   2.559   4.616
 5317TIP3    H115908   5.427   2.609   4.564
 5317TIP3    H215909   5.554   2.528   4.552
 5318TIP3   OH215910   3.165   4.475   0.359
 5318TIP3    H115911   3.143   4.387   0.330
 5318TIP3    H215912   3.094   4.499   0.419
 5319TIP3   OH215913   7.780   3.922   2.678
 5319TIP3    H115914   7.866   3.931   2.719
 5319TIP3    H215915   7.729   3.995   2.714
 5320TIP3   OH215916   1.507   3.029   1.315
 5320TIP3    H115917   1.492   3.093   1.385
 5320TIP3    H215918   1.438   3.047   1.251
 5321TIP3   OH215919   1.700   3.483   0.539
 5321TIP3    H115920   1.777   3.523   0.499
 5321TIP3    H215921   1.629   3.543   0.520
 5322TIP3   OH215922   6.689   1.567   1.312
 5322TIP3    H115923   6.640   1.649   1.313
 5322TIP3    H215924   6.763   1.584   1.255
 5323TIP3   OH215925   7.011   3.986   0.820
 5323TIP3    H115926   6.960   3.906   0.805
 5323TIP3    H215927   7.099   3.954   0.841
 5324TIP3   OH215928   3.675   1.164   4.224
 5324TIP3    H115929   3.743   1.183   4.159
 5324TIP3    H215930   3.722   1.158   4.307
 5325TIP3   OH215931   1.045   3.088   0.043
 5325TIP3    H115932   0.960   3.126   0.066
 5325TIP3    H215933   1.108   3.150   0.079
 5326TIP3   OH215934   4.368   0.632   5.434
 5326TIP3    H115935   4.462   0.617   5.439
 5326TIP3    H215936   4.359   0.728   5.436
 5327TIP3   OH215937   4.157   6.378   6.511
 5327TIP3    H115938   4.200   6.360   6.594
 5327TIP3    H215939   4.185   6.307   6.453
 5328TIP3   OH215940   7.538   0.997   0.000
 5328TIP3    H115941   7.544   1.091   0.017
 5328TIP3    H215942   7.512   0.958   0.083
 5329TIP3   OH215943   7.356   0.080   1.609
 5329TIP3    H115944   7.262   0.099   1.604
 5329TIP3    H215945   7.366   0.033   1.692
 5330TIP3   OH215946   1.704   7.769   4.133
 5330TIP3    H115947   1.711   7.729   4.220
 5330TIP3    H215948   1.664   7.700   4.079
 5331TIP3   OH215949   3.031   1.958   6.247
 5331TIP3    H115950   2.997   2.029   6.193
 5331TIP3    H215951   3.083   2.002   6.315
 5332TIP3   OH215952   2.419   5.894   5.360
 5332TIP3    H115953   2.496   5.845   5.391
 5332TIP3    H215954   2.351   5.827   5.349
 5333TIP3   OH215955   1.709   7.167   5.340
 5333TIP3    H115956   1.692   7.261   5.346
 5333TIP3    H215957   1.671   7.141   5.256
 5334TIP3   OH215958   1.702   7.472   6.728
 5334TIP3    H115959   1.690   7.521   6.810
 5334TIP3    H215960   1.797   7.469   6.716
 5335TIP3   OH215961   7.411   1.681   6.292
 5335TIP3    H115962   7.445   1.759   6.247
 5335TIP3    H215963   7.438   1.608   6.237
 5336TIP3   OH215964   8.179   5.821   2.201
 5336TIP3    H115965   8.111   5.780   2.254
 5336TIP3    H215966   8.187   5.764   2.124
 5337TIP3   OH215967   0.590   4.573   5.344
 5337TIP3    H115968   0.523   4.505   5.342
 5337TIP3    H215969   0.549   4.648   5.301
 5338TIP3   OH215970   3.300   7.765   2.574
 5338TIP3    H115971   3.353   7.775   2.495
 5338TIP3    H215972   3.254   7.848   2.583
 5339TIP3   OH215973   5.902   3.278   3.319
 5339TIP3    H115974   5.996   3.291   3.316
 5339TIP3    H215975   5.878   3.291   3.410
 5340TIP3   OH215976   4.750   6.298   6.390
 5340TIP3    H115977   4.776   6.279   6.300
 5340TIP3    H215978   4.833   6.300   6.438
 5341TIP3   OH215979   3.597   0.667   4.262
 5341TIP3    H115980   3.600   0.613   4.183
 5341TIP3    H215981   3.678   0.646   4.309
 5342TIP3   OH215982   4.832   3.735   6.107
 5342TIP3    H115983   4.750   3.685   6.108
 5342TIP3    H215984   4.811   3.818   6.149
 5343TIP3   OH215985   5.366   4.603   0.868
 5343TIP3    H115986   5.297   4.668   0.857
 5343TIP3    H215987   5.380   4.599   0.963
 5344TIP3   OH215988   2.267   6.471   2.838
 5344TIP3    H115989   2.355   6.503   2.857
 5344TIP3    H215990   2.231   6.446   2.924
 5345TIP3   OH215991   2.592   4.545   6.255
 5345TIP3    H115992   2.521   4.487   6.227
 5345TIP3    H215993   2.628   4.580   6.173
 5346TIP3   OH215994   5.817   6.382   6.607
 5346TIP3    H115995   5.727   6.359   6.588
 5346TIP3    H215996   5.860   6.299   6.628
 5347TIP3   OH215997   5.948   7.382   3.202
 5347TIP3    H115998   5.947   7.335   3.285
 5347TIP3    H215999   5.973   7.472   3.225
 5348TIP3   OH216000   3.478   5.995   1.699
 5348TIP3    H116001   3.441   5.937   1.766
 5348TIP3    H216002   3.405   6.052   1.673
 5349TIP3   OH216003   4.740   5.382   5.675
 5349TIP3    H116004   4.724   5.348   5.588
 5349TIP3    H216005   4.795   5.316   5.717
 5350TIP3   OH216006   0.952   0.942   5.815
 5350TIP3    H116007   0.973   1.016   5.872
 5350TIP3    H216008   0.974   0.973   5.727
 5351TIP3   OH216009   4.731   5.901   0.404
 5351TIP3    H116010   4.715   5.930   0.314
 5351TIP3    H216011   4.796   5.831   0.396
 5352TIP3   OH216012   5.831   5.377   4.760
 5352TIP3    H116013   5.792   5.464   4.753
 5352TIP3    H216014   5.876   5.364   4.676
 5353TIP3   OH216015   8.121   1.263   1.842
 5353TIP3    H116016   8.030   1.247   1.819
 5353TIP3    H216017   8.152   1.326   1.777
 5354TIP3   OH216018   4.213   7.096   5.008
 5354TIP3    H116019   4.192   7.161   4.941
 5354TIP3    H216020   4.138   7.099   5.068
 5355TIP3   OH216021   5.208   3.086   4.860
 5355TIP3    H116022   5.165   3.142   4.796
 5355TIP3    H216023   5.278   3.140   4.896
 5356TIP3   OH216024   6.936   4.150   5.510
 5356TIP3    H116025   6.987   4.120   5.586
 5356TIP3    H216026   6.937   4.076   5.450
 5357TIP3   OH216027   1.211   4.840   0.977
 5357TIP3    H116028   1.223   4.760   0.926
 5357TIP3    H216029   1.119   4.863   0.964
 5358TIP3   OH216030   6.786   3.670   0.553
 5358TIP3    H116031   6.811   3.581   0.579
 5358TIP3    H216032   6.848   3.692   0.483
 5359TIP3   OH216033   3.278   2.146   3.494
 5359TIP3    H116034   3.310   2.104   3.573
 5359TIP3    H216035   3.248   2.233   3.523
 5360TIP3   OH216036   2.850   0.164   3.413
 5360TIP3    H116037   2.906   0.088   3.399
 5360TIP3    H216038   2.910   0.239   3.411
 5361TIP3   OH216039   4.670   6.124   0.762
 5361TIP3    H116040   4.665   6.101   0.855
 5361TIP3    H216041   4.640   6.215   0.759
 5362TIP3   OH216042   4.684   7.187   0.975
 5362TIP3    H116043   4.624   7.219   1.043
 5362TIP3    H216044   4.771   7.211   1.007
 5363TIP3   OH216045   2.275   7.570   6.244
 5363TIP3    H116046   2.305   7.657   6.218
 5363TIP3    H216047   2.181   7.571   6.230
 5364TIP3   OH216048   5.748   3.539   0.417
 5364TIP3    H116049   5.742   3.635   0.417
 5364TIP3    H216050   5.732   3.515   0.509
 5365TIP3   OH216051   0.173   6.359   4.905
 5365TIP3    H116052   0.146   6.283   4.853
 5365TIP3    H216053   0.246   6.327   4.958
 5366TIP3   OH216054   8.112   3.246   0.183
 5366TIP3    H116055   8.129   3.155   0.206
 5366TIP3    H216056   8.063   3.281   0.258
 5367TIP3   OH216057   0.492   7.657   4.838
 5367TIP3    H116058   0.462   7.648   4.748
 5367TIP3    H216059   0.425   7.711   4.881
 5368TIP3   OH216060   6.549   6.069   1.642
 5368TIP3    H116061   6.636   6.060   1.682
 5368TIP3    H216062   6.490   6.025   1.703
 5369TIP3   OH216063   3.664   1.229   3.350
 5369TIP3    H116064   3.584   1.180   3.330
 5369TIP3    H216065   3.711   1.233   3.267
 5370TIP3   OH216066   4.177   6.493   3.625
 5370TIP3    H116067   4.232   6.526   3.555
 5370TIP3    H216068   4.174   6.563   3.690
 5371TIP3   OH216069   0.001   5.364   6.031
 5371TIP3    H116070   0.084   5.396   6.067
 5371TIP3    H216071  -0.025   5.292   6.090
 5372TIP3   OH216072   1.764   1.552   1.044
 5372TIP3    H116073   1.711   1.508   0.977
 5372TIP3    H216074   1.700   1.590   1.104
 5373TIP3   OH216075   1.385   5.686   2.617
 5373TIP3    H116076   1.474   5.720   2.606
 5373TIP3    H216077   1.328   5.757   2.586
 5374TIP3   OH216078   6.923   4.744   0.589
 5374TIP3    H116079   6.945   4.749   0.682
 5374TIP3    H216080   6.838   4.701   0.587
 5375TIP3   OH216081   4.805   4.425   4.860
 5375TIP3    H116082   4.848   4.341   4.846
 5375TIP3    H216083   4.862   4.471   4.921
 5376TIP3   OH216084   6.678   7.000   5.557
 5376TIP3    H116085   6.638   7.050   5.485
 5376TIP3    H216086   6.636   6.914   5.552
 5377TIP3   OH216087   3.176   2.594   3.425
 5377TIP3    H116088   3.119   2.661   3.387
 5377TIP3    H216089   3.198   2.537   3.351
 5378TIP3   OH216090   7.771   0.564   0.981
 5378TIP3    H116091   7.776   0.659   0.992
 5378TIP3    H216092   7.810   0.548   0.894
 5379TIP3   OH216093   5.860   3.547   1.818
 5379TIP3    H116094   5.772   3.565   1.851
 5379TIP3    H216095   5.883   3.462   1.855
 5380TIP3   OH216096   6.313   4.639   6.498
 5380TIP3    H116097   6.407   4.626   6.512
 5380TIP3    H216098   6.273   4.614   6.581
 5381TIP3   OH216099   1.009   2.591   5.645
 5381TIP3    H116100   1.074   2.576   5.577
 5381TIP3    H216101   1.056   2.579   5.727
 5382TIP3   OH216102   4.149   6.724   3.755
 5382TIP3    H116103   4.073   6.739   3.811
 5382TIP3    H216104   4.223   6.716   3.816
 5383TIP3   OH216105   6.923   3.556   1.300
 5383TIP3    H116106   6.984   3.580   1.370
 5383TIP3    H216107   6.836   3.567   1.340
 5384TIP3   OH216108   2.186   0.113   5.505
 5384TIP3    H116109   2.229   0.196   5.526
 5384TIP3    H216110   2.107   0.113   5.559
 5385TIP3   OH216111   3.517   2.112   5.989
 5385TIP3    H116112   3.489   2.148   5.905
 5385TIP3    H216113   3.441   2.122   6.046
 5386TIP3   OH216114   3.413   4.145   4.519
 5386TIP3    H116115   3.413   4.101   4.604
 5386TIP3    H216116   3.462   4.226   4.534
 5387TIP3   OH216117   6.850   1.498   1.804
 5387TIP3    H116118   6.844   1.537   1.892
 5387TIP3    H216119   6.762   1.507   1.768
 5388TIP3   OH216120   1.232   3.538   1.774
 5388TIP3    H116121   1.177   3.482   1.829
 5388TIP3    H216122   1.223   3.625   1.811
 5389TIP3   OH216123   1.249   2.315   6.301
 5389TIP3    H116124   1.309   2.308   6.227
 5389TIP3    H216125   1.167   2.278   6.269
 5390TIP3   OH216126   2.137   5.279   6.488
 5390TIP3    H116127   2.059   5.298   6.540
 5390TIP3    H216128   2.106   5.218   6.420
 5391TIP3   OH216129   2.637   0.938   2.576
 5391TIP3    H116130   2.680   0.982   2.649
 5391TIP3    H216131   2.572   1.001   2.544
 5392TIP3   OH216132   0.699   2.829   2.387
 5392TIP3    H116133   0.657   2.856   2.469
 5392TIP3    H216134   0.752   2.753   2.411
 5393TIP3   OH216135   5.966   6.749   0.290
 5393TIP3    H116136   5.980   6.696   0.211
 5393TIP3    H216137   5.880   6.787   0.278
 5394TIP3   OH216138   2.213   1.326   5.672
 5394TIP3    H116139   2.168   1.263   5.729
 5394TIP3    H216140   2.296   1.344   5.716
 5395TIP3   OH216141   5.712   0.388   6.451
 5395TIP3    H116142   5.750   0.469   6.486
 5395TIP3    H216143   5.618   0.399   6.465
 5396TIP3   OH216144   0.778   7.296   3.843
 5396TIP3    H116145   0.687   7.291   3.815
 5396TIP3    H216146   0.827   7.312   3.763
 5397TIP3   OH216147   2.216   3.047   1.027
 5397TIP3    H116148   2.243   2.973   0.973
 5397TIP3    H216149   2.170   3.008   1.101
 5398TIP3   OH216150   1.136   5.143   0.760
 5398TIP3    H116151   1.133   5.152   0.856
 5398TIP3    H216152   1.051   5.105   0.737
 5399TIP3   OH216153   5.406   3.298   5.912
 5399TIP3    H116154   5.343   3.335   5.850
 5399TIP3    H216155   5.439   3.219   5.868
 5400TIP3   OH216156   7.825   2.976   0.242
 5400TIP3    H116157   7.920   2.983   0.251
 5400TIP3    H216158   7.811   2.899   0.188
 5401TIP3   OH216159   1.857   4.787   4.402
 5401TIP3    H116160   1.863   4.850   4.331
 5401TIP3    H216161   1.939   4.797   4.450
 5402TIP3   OH216162   5.548   1.825   0.158
 5402TIP3    H116163   5.489   1.778   0.217
 5402TIP3    H216164   5.608   1.758   0.126
 5403TIP3   OH216165   1.100   4.398   4.187
 5403TIP3    H116166   1.054   4.466   4.138
 5403TIP3    H216167   1.030   4.345   4.226
 5404TIP3   OH216168   0.614   0.306   2.012
 5404TIP3    H116169   0.644   0.289   1.923
 5404TIP3    H216170   0.548   0.239   2.028
 5405TIP3   OH216171   4.462   6.317   6.425
 5405TIP3    H116172   4.430   6.327   6.515
 5405TIP3    H216173   4.548   6.275   6.434
 5406TIP3   OH216174   0.319   2.576   6.051
 5406TIP3    H116175   0.230   2.598   6.079
 5406TIP3    H216176   0.322   2.600   5.959
 5407TIP3   OH216177   0.961   7.585   4.401
 5407TIP3    H116178   0.881   7.537   4.421
 5407TIP3    H216179   0.944   7.674   4.433
 5408TIP3   OH216180   0.791   4.143   2.226
 5408TIP3    H116181   0.719   4.101   2.178
 5408TIP3    H216182   0.761   4.145   2.317
 5409TIP3   OH216183   4.967   0.922   1.499
 5409TIP3    H116184   4.930   0.891   1.582
 5409TIP3    H216185   5.058   0.944   1.520
 5410TIP3   OH216186   1.200   2.687   6.242
 5410TIP3    H116187   1.214   2.769   6.195
 5410TIP3    H216188   1.148   2.711   6.319
 5411TIP3   OH216189   7.780   4.836   0.009
 5411TIP3    H116190   7.706   4.890  -0.016
 5411TIP3    H216191   7.799   4.861   0.099
 5412TIP3   OH216192   4.065   3.123   4.798
 5412TIP3    H116193   4.072   3.128   4.894
 5412TIP3    H216194   4.109   3.201   4.766
 5413TIP3   OH216195   7.986   5.314   4.572
 5413TIP3    H116196   8.066   5.279   4.534
 5413TIP3    H216197   7.916   5.257   4.540
 5414TIP3   OH216198   2.889   4.805   6.385
 5414TIP3    H116199   2.857   4.854   6.460
 5414TIP3    H216200   2.929   4.871   6.328
 5415TIP3   OH216201   6.547   4.541   2.435
 5415TIP3    H116202   6.624   4.591   2.407
 5415TIP3    H216203   6.583   4.457   2.463
 5416TIP3   OH216204   3.025   4.156   3.439
 5416TIP3    H116205   2.957   4.093   3.417
 5416TIP3    H216206   2.993   4.240   3.406
 5417TIP3   OH216207   3.780   0.415   3.826
 5417TIP3    H116208   3.825   0.460   3.755
 5417TIP3    H216209   3.850   0.378   3.879
 5418TIP3   OH216210   5.565   3.656   4.285
 5418TIP3    H116211   5.657   3.665   4.262
 5418TIP3    H216212   5.519   3.649   4.202
 5419TIP3   OH216213   3.563   1.743   3.561
 5419TIP3    H116214   3.501   1.767   3.493
 5419TIP3    H216215   3.579   1.649   3.547
 5420TIP3   OH216216   5.903   6.899   3.470
 5420TIP3    H116217   5.900   6.821   3.525
 5420TIP3    H216218   5.829   6.953   3.500
 5421TIP3   OH216219   7.535   6.991   1.891
 5421TIP3    H116220   7.475   6.933   1.938
 5421TIP3    H216221   7.511   7.079   1.921
 5422TIP3   OH216222   6.165   6.437   0.540
 5422TIP3    H116223   6.121   6.420   0.623
 5422TIP3    H216224   6.253   6.402   0.553
 5423TIP3   OH216225   1.574   1.677   4.003
 5423TIP3    H116226   1.661   1.638   4.002
 5423TIP3    H216227   1.538   1.657   3.917
 5424TIP3   OH216228   6.442   2.343   2.087
 5424TIP3    H116229   6.405   2.431   2.087
 5424TIP3    H216230   6.537   2.357   2.082
 5425TIP3   OH216231   7.243   5.075   5.842
 5425TIP3    H116232   7.150   5.072   5.820
 5425TIP3    H216233   7.246   5.053   5.935
 5426TIP3   OH216234   4.375   6.981   0.674
 5426TIP3    H116235   4.459   6.998   0.716
 5426TIP3    H216236   4.313   7.038   0.721
 5427TIP3   OH216237   5.565   1.966   2.237
 5427TIP3    H116238   5.491   1.940   2.292
 5427TIP3    H216239   5.528   2.032   2.177
 5428TIP3   OH216240   3.661   1.453   0.133
 5428TIP3    H116241   3.673   1.363   0.164
 5428TIP3    H216242   3.572   1.454   0.098
 5429TIP3   OH216243   5.480   3.485   0.847
 5429TIP3    H116244   5.553   3.478   0.909
 5429TIP3    H216245   5.477   3.400   0.803
 5430TIP3   OH216246   1.410   7.485   3.769
 5430TIP3    H116247   1.468   7.544   3.816
 5430TIP3    H216248   1.324   7.526   3.774
 5431TIP3   OH216249   2.803   6.547   3.861
 5431TIP3    H116250   2.823   6.498   3.941
 5431TIP3    H216251   2.713   6.524   3.840
 5432TIP3   OH216252   8.140   4.231   4.242
 5432TIP3    H116253   8.114   4.311   4.196
 5432TIP3    H216254   8.202   4.261   4.309
 5433TIP3   OH216255   6.439   5.647   0.794
 5433TIP3    H116256   6.450   5.706   0.868
 5433TIP3    H216257   6.462   5.561   0.828
 5434TIP3   OH216258   7.812   1.445   0.259
 5434TIP3    H116259   7.806   1.502   0.183
 5434TIP3    H216260   7.806   1.356   0.224
 5435TIP3   OH216261   3.635   3.701   5.714
 5435TIP3    H116262   3.554   3.666   5.678
 5435TIP3    H216263   3.667   3.632   5.772
 5436TIP3   OH216264   4.502   3.904   1.121
 5436TIP3    H116265   4.458   3.973   1.170
 5436TIP3    H216266   4.552   3.950   1.054
 5437TIP3   OH216267   6.875   1.064   6.402
 5437TIP3    H116268   6.859   1.040   6.493
 5437TIP3    H216269   6.965   1.038   6.386
 5438TIP3   OH216270   7.376   6.769   5.053
 5438TIP3    H116271   7.331   6.687   5.070
 5438TIP3    H216272   7.326   6.835   5.101
 5439TIP3   OH216273   1.420   4.607   6.462
 5439TIP3    H116274   1.345   4.651   6.423
 5439TIP3    H216275   1.382   4.532   6.509
 5440TIP3   OH216276   2.886   5.242   2.225
 5440TIP3    H116277   2.908   5.159   2.267
 5440TIP3    H216278   2.955   5.255   2.161
 5441TIP3   OH216279   1.430   3.634   6.345
 5441TIP3    H116280   1.449   3.640   6.252
 5441TIP3    H216281   1.407   3.542   6.360
 5442TIP3   OH216282   3.402   7.681   2.003
 5442TIP3    H116283   3.409   7.739   2.079
 5442TIP3    H216284   3.330   7.621   2.025
 5443TIP3   OH216285   7.142   5.787   5.583
 5443TIP3    H116286   7.107   5.760   5.668
 5443TIP3    H216287   7.065   5.796   5.528
 5444TIP3   OH216288   0.803   5.482   6.466
 5444TIP3    H116289   0.778   5.544   6.397
 5444TIP3    H216290   0.892   5.454   6.442
 5445TIP3   OH216291   1.519   4.566   2.757
 5445TIP3    H116292   1.579   4.550   2.829
 5445TIP3    H216293   1.525   4.660   2.740
 5446TIP3   OH216294   3.434   1.075   0.976
 5446TIP3    H116295   3.525   1.053   0.955
 5446TIP3    H216296   3.441   1.140   1.046
 5447TIP3   OH216297   3.644   5.469   4.444
 5447TIP3    H116298   3.679   5.453   4.356
 5447TIP3    H216299   3.643   5.565   4.453
 5448TIP3   OH216300   2.996   3.520   4.874
 5448TIP3    H116301   3.091   3.516   4.865
 5448TIP3    H216302   2.981   3.556   4.961
 5449TIP3   OH216303  -0.010   4.867   6.234
 5449TIP3    H116304  -0.010   4.795   6.297
 5449TIP3    H216305   0.038   4.834   6.159
 5450TIP3   OH216306   4.988   2.433   0.004
 5450TIP3    H116307   5.030   2.389   0.079
 5450TIP3    H216308   4.895   2.415   0.015
 5451TIP3   OH216309   5.431   4.644   6.489
 5451TIP3    H116310   5.415   4.616   6.579
 5451TIP3    H216311   5.423   4.740   6.492
 5452TIP3   OH216312   4.039   6.341   0.726
 5452TIP3    H116313   4.107   6.352   0.660
 5452TIP3    H216314   4.062   6.403   0.795
 5453TIP3   OH216315   7.547   6.983   1.212
 5453TIP3    H116316   7.557   7.078   1.216
 5453TIP3    H216317   7.526   6.957   1.302
 5454TIP3   OH216318   4.150   6.267   3.757
 5454TIP3    H116319   4.207   6.272   3.834
 5454TIP3    H216320   4.152   6.355   3.720
 5455TIP3   OH216321   0.555   2.849   2.611
 5455TIP3    H116322   0.468   2.831   2.575
 5455TIP3    H216323   0.549   2.824   2.703
 5456TIP3   OH216324   8.147   4.317   5.655
 5456TIP3    H116325   8.084   4.316   5.727
 5456TIP3    H216326   8.172   4.409   5.646
 5457TIP3   OH216327   6.206   7.051   5.664
 5457TIP3    H116328   6.288   7.088   5.697
 5457TIP3    H216329   6.230   6.963   5.634
 5458TIP3   OH216330   2.661   5.800   5.466
 5458TIP3    H116331   2.739   5.821   5.518
 5458TIP3    H216332   2.696   5.755   5.389
 5459TIP3   OH216333   4.504   1.451   1.039
 5459TIP3    H116334   4.540   1.362   1.040
 5459TIP3    H216335   4.463   1.459   0.953
 5460TIP3   OH216336   1.092   6.446   6.756
 5460TIP3    H116337   1.107   6.540   6.762
 5460TIP3    H216338   1.097   6.426   6.663
 5461TIP3   OH216339   1.628   3.730   2.020
 5461TIP3    H116340   1.579   3.661   1.974
 5461TIP3    H216341   1.711   3.688   2.045
 5462TIP3   OH216342   5.339   3.076   3.355
 5462TIP3    H116343   5.248   3.099   3.375
 5462TIP3    H216344   5.354   2.993   3.402
 5463TIP3   OH216345   4.451   4.922   3.009
 5463TIP3    H116346   4.528   4.905   3.065
 5463TIP3    H216347   4.485   4.913   2.920
 5464TIP3   OH216348   1.505   1.180   1.979
 5464TIP3    H116349   1.456   1.117   1.925
 5464TIP3    H216350   1.580   1.204   1.925
 5465TIP3   OH216351   6.053   1.171   5.605
 5465TIP3    H116352   6.098   1.091   5.578
 5465TIP3    H216353   6.079   1.184   5.696
 5466TIP3   OH216354   1.007   6.501   2.239
 5466TIP3    H116355   0.915   6.513   2.261
 5466TIP3    H216356   1.050   6.580   2.271
 5467TIP3   OH216357   5.886   6.044   0.424
 5467TIP3    H116358   5.832   5.967   0.407
 5467TIP3    H216359   5.975   6.009   0.432
 5468TIP3   OH216360   6.568   7.294   1.745
 5468TIP3    H116361   6.663   7.300   1.754
 5468TIP3    H216362   6.540   7.384   1.724
 5469TIP3   OH216363   3.830   1.162   5.517
 5469TIP3    H116364   3.887   1.152   5.440
 5469TIP3    H216365   3.890   1.182   5.589
 5470TIP3   OH216366   0.466   2.518   0.412
 5470TIP3    H116367   0.421   2.590   0.457
 5470TIP3    H216368   0.497   2.557   0.330
 5471TIP3   OH216369   6.895   7.285   6.080
 5471TIP3    H116370   6.931   7.298   5.993
 5471TIP3    H216371   6.970   7.263   6.135
 5472TIP3   OH216372   2.461   0.422   5.180
 5472TIP3    H116373   2.426   0.441   5.093
 5472TIP3    H216374   2.444   0.329   5.193
 5473TIP3   OH216375   7.005   6.724   5.967
 5473TIP3    H116376   7.032   6.675   5.890
 5473TIP3    H216377   7.086   6.752   6.009
 5474TIP3   OH216378   5.839   1.659   3.422
 5474TIP3    H116379   5.853   1.663   3.517
 5474TIP3    H216380   5.927   1.651   3.385
 5475TIP3   OH216381   2.607   6.400   2.230
 5475TIP3    H116382   2.544   6.470   2.211
 5475TIP3    H216383   2.596   6.338   2.158
 5476TIP3   OH216384   5.079   1.673   4.118
 5476TIP3    H116385   5.083   1.645   4.210
 5476TIP3    H216386   5.105   1.765   4.121
 5477TIP3   OH216387   1.884   4.140   0.339
 5477TIP3    H116388   1.973   4.106   0.330
 5477TIP3    H216389   1.873   4.153   0.433
 5478TIP3   OH216390   5.440   6.427   3.449
 5478TIP3    H116391   5.440   6.364   3.377
 5478TIP3    H216392   5.349   6.433   3.475
 5479TIP3   OH216393   4.539   4.162   3.137
 5479TIP3    H116394   4.584   4.092   3.090
 5479TIP3    H216395   4.607   4.227   3.154
 5480TIP3   OH216396   3.046   4.299   1.846
 5480TIP3    H116397   3.093   4.379   1.825
 5480TIP3    H216398   2.954   4.318   1.828
 5481TIP3   OH216399   7.573   1.234   0.855
 5481TIP3    H116400   7.668   1.245   0.867
 5481TIP3    H216401   7.535   1.257   0.939
 5482TIP3   OH216402   5.569   2.633   4.001
 5482TIP3    H116403   5.507   2.655   4.070
 5482TIP3    H216404   5.610   2.552   4.030
 5483TIP3   OH216405   2.183   6.620   0.291
 5483TIP3    H116406   2.174   6.712   0.266
 5483TIP3    H216407   2.196   6.622   0.386
 5484TIP3   OH216408   1.451   3.611   0.196
 5484TIP3    H116409   1.415   3.547   0.257
 5484TIP3    H216410   1.529   3.569   0.161
 5485TIP3   OH216411   2.313   6.083   3.719
 5485TIP3    H116412   2.306   6.112   3.810
 5485TIP3    H216413   2.288   5.991   3.721
 5486TIP3   OH216414   3.946   3.752   6.112
 5486TIP3    H116415   3.939   3.664   6.148
 5486TIP3    H216416   4.034   3.782   6.138
 5487TIP3   OH216417   1.102   1.271   5.473
 5487TIP3    H116418   1.122   1.363   5.455
 5487TIP3    H216419   1.050   1.243   5.398
 5488TIP3   OH216420   0.818   6.559   3.674
 5488TIP3    H116421   0.807   6.468   3.703
 5488TIP3    H216422   0.739   6.603   3.704
 5489TIP3   OH216423   0.796   7.182   2.645
 5489TIP3    H116424   0.794   7.253   2.710
 5489TIP3    H216425   0.736   7.211   2.576
 5490TIP3   OH216426   8.212   2.037   4.492
 5490TIP3    H116427   8.244   1.949   4.475
 5490TIP3    H216428   8.128   2.025   4.535
 5491TIP3   OH216429   2.770   6.581   2.098
 5491TIP3    H116430   2.726   6.665   2.107
 5491TIP3    H216431   2.732   6.526   2.166
 5492TIP3   OH216432   4.250   5.651   0.541
 5492TIP3    H116433   4.275   5.741   0.560
 5492TIP3    H216434   4.300   5.628   0.462
 5493TIP3   OH216435   7.655   1.742   3.867
 5493TIP3    H116436   7.667   1.684   3.792
 5493TIP3    H216437   7.561   1.751   3.877
 5494TIP3   OH216438   4.771   4.953   5.978
 5494TIP3    H116439   4.805   4.865   5.992
 5494TIP3    H216440   4.678   4.947   6.000
 5495TIP3   OH216441   4.207   0.558   0.851
 5495TIP3    H116442   4.175   0.647   0.869
 5495TIP3    H216443   4.135   0.501   0.875
 5496TIP3   OH216444   3.668   4.289   5.967
 5496TIP3    H116445   3.742   4.250   6.014
 5496TIP3    H216446   3.601   4.301   6.035
 5497TIP3   OH216447   7.537   4.139   1.205
 5497TIP3    H116448   7.630   4.115   1.207
 5497TIP3    H216449   7.525   4.193   1.283
 5498TIP3   OH216450   2.430   6.481   5.860
 5498TIP3    H116451   2.392   6.394   5.844
 5498TIP3    H216452   2.496   6.491   5.792
 5499TIP3   OH216453   0.800   2.417   4.195
 5499TIP3    H116454   0.735   2.447   4.259
 5499TIP3    H216455   0.824   2.329   4.224
 5500TIP3   OH216456   1.952   5.656   5.800
 5500TIP3    H116457   1.964   5.693   5.712
 5500TIP3    H216458   2.006   5.577   5.799
 5501TIP3   OH216459   3.660   7.419   5.583
 5501TIP3    H116460   3.683   7.411   5.676
 5501TIP3    H216461   3.592   7.353   5.570
 5502TIP3   OH216462   0.743   0.346   0.716
 5502TIP3    H116463   0.807   0.290   0.759
 5502TIP3    H216464   0.678   0.285   0.679
 5503TIP3   OH216465   3.762   2.249   5.963
 5503TIP3    H116466   3.782   2.236   5.870
 5503TIP3    H216467   3.705   2.175   5.985
 5504TIP3   OH216468   4.318   6.158   3.155
 5504TIP3    H116469   4.378   6.233   3.150
 5504TIP3    H216470   4.235   6.196   3.185
 5505TIP3   OH216471   3.847   0.188   0.020
 5505TIP3    H116472   3.845   0.135   0.099
 5505TIP3    H216473   3.760   0.177  -0.018
 5506TIP3   OH216474   6.512   2.433   3.526
 5506TIP3    H116475   6.515   2.359   3.587
 5506TIP3    H216476   6.426   2.426   3.485
 5507TIP3   OH216477   7.575   1.587   3.598
 5507TIP3    H116478   7.654   1.632   3.567
 5507TIP3    H216479   7.503   1.639   3.562
 5508TIP3   OH216480   5.207   5.724   4.797
 5508TIP3    H116481   5.126   5.725   4.746
 5508TIP3    H216482   5.255   5.648   4.764
 5509TIP3   OH216483   2.023   7.692   2.068
 5509TIP3    H116484   2.091   7.625   2.072
 5509TIP3    H216485   2.021   7.718   1.976
 5510TIP3   OH216486   7.409   3.887   0.665
 5510TIP3    H116487   7.436   3.973   0.697
 5510TIP3    H216488   7.377   3.904   0.576
 5511TIP3   OH216489   7.708   2.528   5.612
 5511TIP3    H116490   7.747   2.597   5.559
 5511TIP3    H216491   7.782   2.488   5.658
 5512TIP3   OH216492   4.725   0.991   5.614
 5512TIP3    H116493   4.788   0.975   5.684
 5512TIP3    H216494   4.673   0.911   5.609
 5513TIP3   OH216495   2.346   5.190   4.275
 5513TIP3    H116496   2.320   5.099   4.284
 5513TIP3    H216497   2.392   5.210   4.357
 5514TIP3   OH216498   2.976   3.899   3.719
 5514TIP3    H116499   3.031   3.973   3.691
 5514TIP3    H216500   3.037   3.825   3.726
 5515TIP3   OH216501   4.635   2.832   1.349
 5515TIP3    H116502   4.582   2.801   1.423
 5515TIP3    H216503   4.596   2.789   1.273
 5516TIP3   OH216504   6.487   2.241   0.107
 5516TIP3    H116505   6.460   2.215   0.019
 5516TIP3    H216506   6.534   2.324   0.094
 5517TIP3   OH216507   5.346   3.170   5.418
 5517TIP3    H116508   5.266   3.123   5.398
 5517TIP3    H216509   5.405   3.150   5.345
 5518TIP3   OH216510   3.624   5.560   0.684
 5518TIP3    H116511   3.551   5.541   0.624
 5518TIP3    H216512   3.650   5.649   0.661
 5519TIP3   OH216513   0.517   6.645   0.546
 5519TIP3    H116514   0.458   6.580   0.509
 5519TIP3    H216515   0.469   6.728   0.538
 5520TIP3   OH216516   2.704   0.359   0.097
 5520TIP3    H116517   2.783   0.316   0.130
 5520TIP3    H216518   2.646   0.364   0.173
 5521TIP3   OH216519   4.226   6.775   6.758
 5521TIP3    H116520   4.190   6.721   6.828
 5521TIP3    H216521   4.284   6.716   6.709
 5522TIP3   OH216522   7.959   1.891   0.033
 5522TIP3    H116523   7.872   1.889  -0.008
 5522TIP3    H216524   7.985   1.983   0.028
 5523TIP3   OH216525   1.502   4.952   6.030
 5523TIP3    H116526   1.444   5.012   6.076
 5523TIP3    H216527   1.540   5.005   5.959
 5524TIP3   OH216528   0.852   1.835   6.325
 5524TIP3    H116529   0.792   1.792   6.385
 5524TIP3    H216530   0.912   1.766   6.297
 5525TIP3   OH216531   5.027   7.525   6.645
 5525TIP3    H116532   4.991   7.438   6.628
 5525TIP3    H216533   5.115   7.508   6.679
 5526TIP3   OH216534   6.960   7.630   3.111
 5526TIP3    H116535   7.007   7.617   3.029
 5526TIP3    H216536   7.007   7.701   3.155
 5527TIP3   OH216537   6.471   0.865   0.997
 5527TIP3    H116538   6.426   0.890   0.916
 5527TIP3    H216539   6.522   0.942   1.021
 5528TIP3   OH216540   3.182   5.076   2.355
 5528TIP3    H116541   3.249   5.140   2.375
 5528TIP3    H216542   3.109   5.098   2.413
 5529TIP3   OH216543   3.256   2.367   6.309
 5529TIP3    H116544   3.322   2.428   6.342
 5529TIP3    H216545   3.281   2.282   6.345
 5530TIP3   OH216546   1.100   2.617   4.566
 5530TIP3    H116547   1.039   2.677   4.610
 5530TIP3    H216548   1.166   2.674   4.526
 5531TIP3   OH216549   0.162   4.947   1.695
 5531TIP3    H116550   0.116   4.935   1.611
 5531TIP3    H216551   0.121   5.025   1.733
 5532TIP3   OH216552   5.891   3.955   4.214
 5532TIP3    H116553   5.887   4.023   4.281
 5532TIP3    H216554   5.849   3.879   4.253
 5533TIP3   OH216555   3.302   4.835   3.973
 5533TIP3    H116556   3.304   4.766   4.039
 5533TIP3    H216557   3.391   4.870   3.972
 5534TIP3   OH216558   5.472   0.516   6.488
 5534TIP3    H116559   5.513   0.536   6.403
 5534TIP3    H216560   5.378   0.523   6.471
 5535TIP3   OH216561   3.773   7.080   1.744
 5535TIP3    H116562   3.705   7.041   1.691
 5535TIP3    H216563   3.756   7.174   1.740
 5536TIP3   OH216564   8.072   6.520   1.295
 5536TIP3    H116565   8.068   6.592   1.359
 5536TIP3    H216566   7.981   6.497   1.279
 5537TIP3   OH216567   0.485   7.694   5.192
 5537TIP3    H116568   0.550   7.631   5.223
 5537TIP3    H216569   0.423   7.642   5.140
 5538TIP3   OH216570   6.203   3.598   6.445
 5538TIP3    H116571   6.167   3.529   6.390
 5538TIP3    H216572   6.297   3.599   6.425
 5539TIP3   OH216573   1.422   5.891   0.781
 5539TIP3    H116574   1.468   5.933   0.853
 5539TIP3    H216575   1.404   5.803   0.812
 5540TIP3   OH216576   4.259   1.008   1.821
 5540TIP3    H116577   4.240   0.958   1.900
 5540TIP3    H216578   4.338   1.058   1.843
 5541TIP3   OH216579   7.984   2.474   6.096
 5541TIP3    H116580   7.907   2.447   6.044
 5541TIP3    H216581   8.058   2.449   6.041
 5542TIP3   OH216582   4.248   4.855   0.581
 5542TIP3    H116583   4.308   4.797   0.627
 5542TIP3    H216584   4.303   4.902   0.518
 5543TIP3   OH216585   6.865   3.488   0.156
 5543TIP3    H116586   6.835   3.422   0.218
 5543TIP3    H216587   6.912   3.552   0.211
 5544TIP3   OH216588   5.815   3.641   6.318
 5544TIP3    H116589   5.831   3.547   6.320
 5544TIP3    H216590   5.893   3.678   6.278
 5545TIP3   OH216591   3.267   2.958   0.799
 5545TIP3    H116592   3.199   2.959   0.731
 5545TIP3    H216593   3.341   3.004   0.760
 5546TIP3   OH216594   1.274   5.915   2.449
 5546TIP3    H116595   1.234   5.934   2.364
 5546TIP3    H216596   1.309   5.999   2.478
 5547TIP3   OH216597   7.114   6.392   0.800
 5547TIP3    H116598   7.019   6.406   0.797
 5547TIP3    H216599   7.131   6.355   0.886
 5548TIP3   OH216600   0.881   6.609   0.102
 5548TIP3    H116601   0.865   6.704   0.099
 5548TIP3    H216602   0.794   6.571   0.114
 5549TIP3   OH216603   0.578   7.004   4.426
 5549TIP3    H116604   0.483   7.003   4.431
 5549TIP3    H216605   0.605   7.072   4.489
 5550TIP3   OH216606   7.209   3.105   4.503
 5550TIP3    H116607   7.273   3.158   4.456
 5550TIP3    H216608   7.181   3.039   4.440
 5551TIP3   OH216609   6.087   7.229   2.185
 5551TIP3    H116610   6.038   7.146   2.183
 5551TIP3    H216611   6.105   7.244   2.278
 5552TIP3   OH216612   4.628   4.458   5.600
 5552TIP3    H116613   4.614   4.442   5.694
 5552TIP3    H216614   4.723   4.466   5.591
 5553TIP3   OH216615   3.529   0.016   0.433
 5553TIP3    H116616   3.598   0.079   0.416
 5553TIP3    H216617   3.450   0.056   0.396
 5554TIP3   OH216618   6.504   7.429   5.496
 5554TIP3    H116619   6.455   7.348   5.481
 5554TIP3    H216620   6.557   7.410   5.573
 5555TIP3   OH216621   3.446   2.127   4.483
 5555TIP3    H116622   3.485   2.186   4.418
 5555TIP3    H216623   3.496   2.046   4.475
 5556TIP3   OH216624   3.562   1.483   1.284
 5556TIP3    H116625   3.529   1.406   1.237
 5556TIP3    H216626   3.505   1.554   1.258
 5557TIP3   OH216627   4.996   7.632   5.751
 5557TIP3    H116628   5.052   7.619   5.675
 5557TIP3    H216629   5.018   7.559   5.809
 5558TIP3   OH216630   7.931   3.742   4.233
 5558TIP3    H116631   7.901   3.765   4.145
 5558TIP3    H216632   8.015   3.698   4.219
 5559TIP3   OH216633   3.215   6.273   5.288
 5559TIP3    H116634   3.281   6.319   5.340
 5559TIP3    H216635   3.244   6.284   5.197
 5560TIP3   OH216636   7.113   3.917   3.560
 5560TIP3    H116637   7.030   3.924   3.606
 5560TIP3    H216638   7.177   3.896   3.629
 5561TIP3   OH216639   8.247   3.334   5.902
 5561TIP3    H116640   8.188   3.365   5.970
 5561TIP3    H216641   8.304   3.409   5.884
 5562TIP3   OH216642   8.072   1.265   4.957
 5562TIP3    H116643   8.097   1.291   5.046
 5562TIP3    H216644   8.055   1.171   4.964
 5563TIP3   OH216645   5.887   1.147   4.747
 5563TIP3    H116646   5.877   1.242   4.748
 5563TIP3    H216647   5.846   1.117   4.828
 5564TIP3   OH216648   0.151   1.677   6.235
 5564TIP3    H116649   0.214   1.685   6.307
 5564TIP3    H216650   0.163   1.587   6.202
 5565TIP3   OH216651   1.796   4.565   3.716
 5565TIP3    H116652   1.706   4.580   3.743
 5565TIP3    H216653   1.790   4.497   3.648
 5566TIP3   OH216654   1.024   5.144   5.496
 5566TIP3    H116655   1.086   5.213   5.518
 5566TIP3    H216656   1.032   5.132   5.402
 5567TIP3   OH216657   5.996   6.117   3.823
 5567TIP3    H116658   6.025   6.025   3.819
 5567TIP3    H216659   5.971   6.130   3.914
 5568TIP3   OH216660   0.872   2.349   1.646
 5568TIP3    H116661   0.843   2.386   1.729
 5568TIP3    H216662   0.930   2.415   1.608
 5569TIP3   OH216663   2.381   1.996   5.358
 5569TIP3    H116664   2.400   1.976   5.267
 5569TIP3    H216665   2.373   2.091   5.361
 5570TIP3   OH216666   4.425   4.654   0.100
 5570TIP3    H116667   4.508   4.703   0.093
 5570TIP3    H216668   4.422   4.625   0.191
 5571TIP3   OH216669   0.413   6.079   5.621
 5571TIP3    H116670   0.454   6.001   5.657
 5571TIP3    H216671   0.449   6.086   5.532
 5572TIP3   OH216672   0.607   5.603   5.813
 5572TIP3    H116673   0.550   5.565   5.746
 5572TIP3    H216674   0.551   5.608   5.891
 5573TIP3   OH216675   3.871   1.611   0.069
 5573TIP3    H116676   3.795   1.560   0.096
 5573TIP3    H216677   3.929   1.548   0.026
 5574TIP3   OH216678   4.665   1.912   3.846
 5574TIP3    H116679   4.640   1.975   3.914
 5574TIP3    H216680   4.760   1.918   3.841
 5575TIP3   OH216681   3.036   5.080   5.643
 5575TIP3    H116682   3.037   4.997   5.596
 5575TIP3    H216683   3.126   5.112   5.636
 5576TIP3   OH216684   0.835   0.096   0.894
 5576TIP3    H116685   0.870   0.111   0.982
 5576TIP3    H216686   0.801   0.007   0.898
 5577TIP3   OH216687   7.800   0.216   0.190
 5577TIP3    H116688   7.796   0.281   0.259
 5577TIP3    H216689   7.862   0.252   0.126
 5578TIP3   OH216690   5.512   2.928   0.667
 5578TIP3    H116691   5.446   2.920   0.736
 5578TIP3    H216692   5.595   2.914   0.712
 5579TIP3   OH216693   6.032   1.738   2.808
 5579TIP3    H116694   5.941   1.745   2.838
 5579TIP3    H216695   6.026   1.738   2.713
 5580TIP3   OH216696   1.051   3.204   5.368
 5580TIP3    H116697   1.041   3.171   5.457
 5580TIP3    H216698   1.145   3.217   5.357
 5581TIP3   OH216699   2.420   1.205   1.705
 5581TIP3    H116700   2.442   1.251   1.624
 5581TIP3    H216701   2.466   1.255   1.773
 5582TIP3   OH216702   4.633   7.791   1.854
 5582TIP3    H116703   4.621   7.696   1.861
 5582TIP3    H216704   4.668   7.817   1.940
 5583TIP3   OH216705   2.999   5.216   1.009
 5583TIP3    H116706   3.021   5.231   0.917
 5583TIP3    H216707   3.045   5.136   1.032
 5584TIP3   OH216708   6.313   7.313   4.911
 5584TIP3    H116709   6.371   7.342   4.841
 5584TIP3    H216710   6.292   7.393   4.959
 5585TIP3   OH216711   4.604   2.741   1.825
 5585TIP3    H116712   4.541   2.709   1.890
 5585TIP3    H216713   4.662   2.798   1.876
 5586TIP3   OH216714   5.486   1.802   6.526
 5586TIP3    H116715   5.497   1.723   6.579
 5586TIP3    H216716   5.436   1.862   6.582
 5587TIP3   OH216717   6.637   2.538   5.603
 5587TIP3    H116718   6.707   2.547   5.668
 5587TIP3    H216719   6.660   2.600   5.534
 5588TIP3   OH216720   4.793   5.912   4.493
 5588TIP3    H116721   4.754   5.991   4.530
 5588TIP3    H216722   4.739   5.891   4.417
 5589TIP3   OH216723   1.377   5.826   4.690
 5589TIP3    H116724   1.439   5.784   4.750
 5589TIP3    H216725   1.398   5.791   4.604
 5590TIP3   OH216726   6.440   4.913   0.241
 5590TIP3    H116727   6.426   4.829   0.285
 5590TIP3    H216728   6.466   4.972   0.312
 5591TIP3   OH216729   5.225   2.451   2.701
 5591TIP3    H116730   5.279   2.416   2.772
 5591TIP3    H216731   5.163   2.510   2.746
 5592TIP3   OH216732   2.353   2.420   0.793
 5592TIP3    H116733   2.292   2.434   0.720
 5592TIP3    H216734   2.414   2.493   0.788
 5593TIP3   OH216735   2.037   6.268   4.214
 5593TIP3    H116736   2.005   6.252   4.303
 5593TIP3    H216737   2.112   6.209   4.205
 5594TIP3   OH216738   7.077   2.748   3.925
 5594TIP3    H116739   7.113   2.659   3.924
 5594TIP3    H216740   7.155   2.805   3.930
 5595TIP3   OH216741   7.743   0.553   2.561
 5595TIP3    H116742   7.691   0.632   2.575
 5595TIP3    H216743   7.719   0.495   2.633
 5596TIP3   OH216744   4.564   4.049   2.306
 5596TIP3    H116745   4.633   4.035   2.241
 5596TIP3    H216746   4.533   4.138   2.288
 5597TIP3   OH216747   5.979   0.387   3.947
 5597TIP3    H116748   5.899   0.421   3.906
 5597TIP3    H216749   6.032   0.356   3.873
 5598TIP3   OH216750   2.335   4.938   4.794
 5598TIP3    H116751   2.304   4.855   4.832
 5598TIP3    H216752   2.343   4.997   4.869
 5599TIP3   OH216753   1.192   6.489   5.437
 5599TIP3    H116754   1.260   6.485   5.369
 5599TIP3    H216755   1.157   6.400   5.441
 5600TIP3   OH216756   2.729   5.198   1.132
 5600TIP3    H116757   2.702   5.106   1.136
 5600TIP3    H216758   2.823   5.195   1.113
 5601TIP3   OH216759   5.950   1.206   6.449
 5601TIP3    H116760   5.855   1.218   6.444
 5601TIP3    H216761   5.972   1.155   6.371
 5602TIP3   OH216762   2.412   0.877   0.985
 5602TIP3    H116763   2.413   0.906   1.076
 5602TIP3    H216764   2.466   0.798   0.984
 5603TIP3   OH216765   3.889   1.721   0.400
 5603TIP3    H116766   3.948   1.721   0.324
 5603TIP3    H216767   3.941   1.681   0.470
 5604TIP3   OH216768   0.056   3.764   0.494
 5604TIP3    H116769  -0.009   3.821   0.534
 5604TIP3    H216770   0.138   3.787   0.538
 5605TIP3   OH216771   5.400   1.135   5.743
 5605TIP3    H116772   5.408   1.078   5.819
 5605TIP3    H216773   5.308   1.132   5.720
 5606TIP3   OH216774   4.447   4.752   1.719
 5606TIP3    H116775   4.528   4.701   1.714
 5606TIP3    H216776   4.472   4.832   1.766
 5607TIP3   OH216777   1.067   0.577   0.297
 5607TIP3    H116778   1.152   0.545   0.268
 5607TIP3    H216779   1.013   0.499   0.304
 5608TIP3   OH216780   0.066   6.214   4.076
 5608TIP3    H116781   0.043   6.173   3.993
 5608TIP3    H216782   0.011   6.170   4.141
 5609TIP3   OH216783   0.401   6.936   4.741
 5609TIP3    H116784   0.425   6.844   4.725
 5609TIP3    H216785   0.379   6.970   4.654
 5610TIP3   OH216786   6.268   3.162   4.096
 5610TIP3    H116787   6.230   3.121   4.018
 5610TIP3    H216788   6.320   3.092   4.136
 5611TIP3   OH216789   1.958   5.110   6.359
 5611TIP3    H116790   1.923   5.023   6.378
 5611TIP3    H216791   1.883   5.168   6.367
 5612TIP3   OH216792   1.530   4.887   3.720
 5612TIP3    H116793   1.478   4.865   3.643
 5612TIP3    H216794   1.618   4.904   3.685
 5613TIP3   OH216795   7.382   3.466   5.948
 5613TIP3    H116796   7.389   3.550   5.992
 5613TIP3    H216797   7.435   3.476   5.869
 5614TIP3   OH216798   6.481   0.939   3.714
 5614TIP3    H116799   6.396   0.976   3.689
 5614TIP3    H216800   6.541   0.967   3.644
 5615TIP3   OH216801   8.201   1.464   1.680
 5615TIP3    H116802   8.124   1.520   1.666
 5615TIP3    H216803   8.275   1.521   1.658
 5616TIP3   OH216804   2.214   6.057   4.214
 5616TIP3    H116805   2.226   6.027   4.304
 5616TIP3    H216806   2.254   5.988   4.160
 5617TIP3   OH216807   4.373   7.393   4.561
 5617TIP3    H116808   4.278   7.401   4.554
 5617TIP3    H216809   4.407   7.442   4.487
 5618TIP3   OH216810   1.479   0.160   2.825
 5618TIP3    H116811   1.562   0.114   2.827
 5618TIP3    H216812   1.416   0.095   2.795
 5619TIP3   OH216813   6.698   2.550   1.719
 5619TIP3    H116814   6.652   2.518   1.796
 5619TIP3    H216815   6.790   2.550   1.744
 5620TIP3   OH216816   2.121   5.729   4.767
 5620TIP3    H116817   2.089   5.651   4.721
 5620TIP3    H216818   2.201   5.752   4.721
 5621TIP3   OH216819   2.662   4.052   3.705
 5621TIP3    H116820   2.573   4.065   3.737
 5621TIP3    H216821   2.707   4.133   3.727
 5622TIP3   OH216822   0.389   1.950   0.290
 5622TIP3    H116823   0.345   1.992   0.364
 5622TIP3    H216824   0.480   1.942   0.318
 5623TIP3   OH216825   0.750   0.691   1.631
 5623TIP3    H116826   0.763   0.756   1.562
 5623TIP3    H216827   0.733   0.609   1.584
 5624TIP3   OH216828   5.651   0.731   0.669
 5624TIP3    H116829   5.716   0.799   0.690
 5624TIP3    H216830   5.616   0.705   0.754
 5625TIP3   OH216831   3.861   0.093   6.050
 5625TIP3    H116832   3.873   0.187   6.059
 5625TIP3    H216833   3.794   0.071   6.115
 5626TIP3   OH216834   0.472   3.786   2.279
 5626TIP3    H116835   0.441   3.738   2.202
 5626TIP3    H216836   0.568   3.790   2.268
 5627TIP3   OH216837   5.906   6.791   5.058
 5627TIP3    H116838   5.902   6.881   5.089
 5627TIP3    H216839   5.815   6.762   5.054
 5628TIP3   OH216840   3.780   1.630   0.971
 5628TIP3    H116841   3.782   1.587   0.886
 5628TIP3    H216842   3.688   1.655   0.983
 5629TIP3   OH216843   2.045   6.184   3.188
 5629TIP3    H116844   2.129   6.186   3.234
 5629TIP3    H216845   2.038   6.270   3.147
 5630TIP3   OH216846   2.373   2.065   5.088
 5630TIP3    H116847   2.343   2.025   5.006
 5630TIP3    H216848   2.468   2.067   5.080
 5631TIP3   OH216849   7.095   4.391   5.859
 5631TIP3    H116850   7.105   4.483   5.835
 5631TIP3    H216851   7.182   4.353   5.846
 5632TIP3   OH216852   2.986   2.178   1.996
 5632TIP3    H116853   2.893   2.156   1.999
 5632TIP3    H216854   3.024   2.132   2.071
 5633TIP3   OH216855   2.629   7.069   3.366
 5633TIP3    H116856   2.574   7.145   3.381
 5633TIP3    H216857   2.617   7.050   3.273
 5634TIP3   OH216858   1.426   5.668   6.568
 5634TIP3    H116859   1.342   5.704   6.539
 5634TIP3    H216860   1.440   5.707   6.655
 5635TIP3   OH216861   6.223   3.565   0.089
 5635TIP3    H116862   6.233   3.480   0.131
 5635TIP3    H216863   6.280   3.623   0.139
 5636TIP3   OH216864   4.849   1.832   2.143
 5636TIP3    H116865   4.815   1.898   2.203
 5636TIP3    H216866   4.870   1.880   2.063
 5637TIP3   OH216867   1.448   6.090   5.195
 5637TIP3    H116868   1.460   5.999   5.221
 5637TIP3    H216869   1.483   6.142   5.268
 5638TIP3   OH216870   6.575   2.318   4.264
 5638TIP3    H116871   6.601   2.263   4.338
 5638TIP3    H216872   6.496   2.363   4.295
 5639TIP3   OH216873   1.475   1.211   2.244
 5639TIP3    H116874   1.463   1.175   2.156
 5639TIP3    H216875   1.385   1.222   2.277
 5640TIP3   OH216876   3.549   3.130   5.650
 5640TIP3    H116877   3.573   3.040   5.671
 5640TIP3    H216878   3.611   3.184   5.700
 5641TIP3   OH216879   5.977   2.206   6.000
 5641TIP3    H116880   5.938   2.123   6.028
 5641TIP3    H216881   5.931   2.228   5.919
 5642TIP3   OH216882   5.979   7.444   2.923
 5642TIP3    H116883   5.941   7.433   3.010
 5642TIP3    H216884   5.963   7.535   2.900
 5643TIP3   OH216885   5.522   0.553   5.251
 5643TIP3    H116886   5.613   0.582   5.257
 5643TIP3    H216887   5.473   0.631   5.224
 5644TIP3   OH216888   5.776   2.656   2.324
 5644TIP3    H116889   5.848   2.625   2.380
 5644TIP3    H216890   5.754   2.742   2.360
 5645TIP3   OH216891   0.886   7.426   2.403
 5645TIP3    H116892   0.839   7.500   2.441
 5645TIP3    H216893   0.974   7.461   2.385
 5646TIP3   OH216894   5.533   0.130   4.159
 5646TIP3    H116895   5.614   0.136   4.209
 5646TIP3    H216896   5.465   0.156   4.220
 5647TIP3   OH216897   4.045   5.199   0.376
 5647TIP3    H116898   4.040   5.239   0.463
 5647TIP3    H216899   4.004   5.113   0.386
 5648TIP3   OH216900   7.838   0.028   4.174
 5648TIP3    H116901   7.931   0.008   4.184
 5648TIP3    H216902   7.811   0.057   4.261
 5649TIP3   OH216903   3.794   4.728   3.725
 5649TIP3    H116904   3.851   4.772   3.663
 5649TIP3    H216905   3.811   4.635   3.711
 5650TIP3   OH216906   8.083   5.976   0.352
 5650TIP3    H116907   8.026   5.967   0.276
 5650TIP3    H216908   8.037   5.928   0.421
 5651TIP3   OH216909   2.191   1.777   0.039
 5651TIP3    H116910   2.252   1.851   0.047
 5651TIP3    H216911   2.106   1.819   0.026
 5652TIP3   OH216912   6.025   5.106   0.913
 5652TIP3    H116913   5.967   5.173   0.878
 5652TIP3    H216914   6.113   5.140   0.898
 5653TIP3   OH216915   6.312   2.471   4.197
 5653TIP3    H116916   6.304   2.566   4.204
 5653TIP3    H216917   6.327   2.442   4.287
 5654TIP3   OH216918   0.218   1.691   3.976
 5654TIP3    H116919   0.176   1.744   4.043
 5654TIP3    H216920   0.251   1.614   4.023
 5655TIP3   OH216921   2.289   1.256   0.156
 5655TIP3    H116922   2.276   1.347   0.180
 5655TIP3    H216923   2.358   1.257   0.089
 5656TIP3   OH216924   7.692   4.462   5.297
 5656TIP3    H116925   7.663   4.550   5.275
 5656TIP3    H216926   7.772   4.450   5.246
 5657TIP3   OH216927   7.361   4.837   5.705
 5657TIP3    H116928   7.317   4.917   5.734
 5657TIP3    H216929   7.433   4.825   5.768
 5658TIP3   OH216930   4.302   6.686   1.593
 5658TIP3    H116931   4.353   6.611   1.624
 5658TIP3    H216932   4.353   6.722   1.521
 5659TIP3   OH216933   7.478   1.791   2.444
 5659TIP3    H116934   7.539   1.725   2.478
 5659TIP3    H216935   7.397   1.776   2.492
 5660TIP3   OH216936   0.208   2.964   0.891
 5660TIP3    H116937   0.294   2.973   0.850
 5660TIP3    H216938   0.212   2.880   0.936
 5661TIP3   OH216939   6.734   4.068   0.455
 5661TIP3    H116940   6.689   3.984   0.451
 5661TIP3    H216941   6.697   4.118   0.382
 5662TIP3   OH216942   1.268   3.206   2.988
 5662TIP3    H116943   1.320   3.270   2.939
 5662TIP3    H216944   1.334   3.149   3.029
 5663TIP3   OH216945   4.663   0.919   0.693
 5663TIP3    H116946   4.670   0.861   0.769
 5663TIP3    H216947   4.613   0.995   0.725
 5664TIP3   OH216948   8.157   3.082   4.402
 5664TIP3    H116949   8.252   3.080   4.413
 5664TIP3    H216950   8.122   3.060   4.488
 5665TIP3   OH216951   4.906   7.390   1.913
 5665TIP3    H116952   4.865   7.338   1.981
 5665TIP3    H216953   4.957   7.456   1.960
 5666TIP3   OH216954   1.742   5.110   1.560
 5666TIP3    H116955   1.778   5.153   1.483
 5666TIP3    H216956   1.807   5.043   1.582
 5667TIP3   OH216957   1.946   3.466   2.602
 5667TIP3    H116958   1.897   3.465   2.684
 5667TIP3    H216959   2.034   3.437   2.626
 5668TIP3   OH216960   1.308   6.680   6.478
 5668TIP3    H116961   1.275   6.718   6.397
 5668TIP3    H216962   1.295   6.586   6.468
 5669TIP3   OH216963   5.520   7.499   1.822
 5669TIP3    H116964   5.570   7.418   1.834
 5669TIP3    H216965   5.576   7.553   1.767
 5670TIP3   OH216966   7.847   3.651   4.511
 5670TIP3    H116967   7.900   3.726   4.536
 5670TIP3    H216968   7.851   3.649   4.415
 5671TIP3   OH216969   0.474   3.645   3.982
 5671TIP3    H116970   0.494   3.739   3.982
 5671TIP3    H216971   0.513   3.613   4.063
 5672TIP3   OH216972   7.432   3.217   5.340
 5672TIP3    H116973   7.341   3.237   5.318
 5672TIP3    H216974   7.467   3.299   5.376
 5673TIP3   OH216975   1.955   4.449   3.069
 5673TIP3    H116976   1.899   4.526   3.059
 5673TIP3    H216977   2.025   4.462   3.006
 5674TIP3   OH216978   5.361   4.471   2.925
 5674TIP3    H116979   5.298   4.542   2.935
 5674TIP3    H216980   5.313   4.393   2.954
 5675TIP3   OH216981   0.541   5.622   0.457
 5675TIP3    H116982   0.482   5.677   0.405
 5675TIP3    H216983   0.605   5.683   0.493
 5676TIP3   OH216984   3.516   0.573   6.728
 5676TIP3    H116985   3.424   0.588   6.748
 5676TIP3    H216986   3.555   0.660   6.724
 5677TIP3   OH216987   6.820   1.860   1.084
 5677TIP3    H116988   6.779   1.916   1.151
 5677TIP3    H216989   6.749   1.805   1.052
 5678TIP3   OH216990   3.940   4.095   1.597
 5678TIP3    H116991   3.988   4.027   1.645
 5678TIP3    H216992   3.921   4.162   1.663
 5679TIP3   OH216993   6.580   6.221   5.134
 5679TIP3    H116994   6.655   6.279   5.145
 5679TIP3    H216995   6.504   6.279   5.130
 5680TIP3   OH216996   5.470   3.525   2.497
 5680TIP3    H116997   5.454   3.457   2.432
 5680TIP3    H216998   5.487   3.477   2.579
 5681TIP3   OH216999   5.266   4.084   6.638
 5681TIP3    H117000   5.303   4.122   6.718
 5681TIP3    H217001   5.193   4.142   6.616
 5682TIP3   OH217002   1.191   1.946   6.728
 5682TIP3    H117003   1.101   1.913   6.724
 5682TIP3    H217004   1.242   1.882   6.677
 5683TIP3   OH217005   7.981   7.442   5.008
 5683TIP3    H117006   8.049   7.483   5.062
 5683TIP3    H217007   7.919   7.405   5.071
 5684TIP3   OH217008   6.412   2.162   4.582
 5684TIP3    H117009   6.439   2.150   4.673
 5684TIP3    H217010   6.448   2.248   4.558
 5685TIP3   OH217011   4.766   6.116   4.826
 5685TIP3    H117012   4.694   6.057   4.803
 5685TIP3    H217013   4.743   6.199   4.785
 5686TIP3   OH217014   5.466   0.137   4.789
 5686TIP3    H117015   5.490   0.071   4.724
 5686TIP3    H217016   5.372   0.151   4.776
 5687TIP3   OH217017   5.728   0.730   3.904
 5687TIP3    H117018   5.796   0.775   3.855
 5687TIP3    H217019   5.738   0.761   3.994
 5688TIP3   OH217020   6.118   5.729   3.530
 5688TIP3    H117021   6.151   5.814   3.558
 5688TIP3    H217022   6.156   5.667   3.591
 5689TIP3   OH217023   2.048   7.234   6.542
 5689TIP3    H117024   2.023   7.300   6.607
 5689TIP3    H217025   1.994   7.255   6.466
 5690TIP3   OH217026   8.018   6.363   6.490
 5690TIP3    H117027   8.004   6.457   6.481
 5690TIP3    H217028   7.940   6.323   6.451
 5691TIP3   OH217029   0.603   5.865   1.499
 5691TIP3    H117030   0.651   5.789   1.465
 5691TIP3    H217031   0.576   5.839   1.587
 5692TIP3   OH217032   1.268   0.708   1.693
 5692TIP3    H117033   1.359   0.682   1.703
 5692TIP3    H217034   1.219   0.646   1.747
 5693TIP3   OH217035   7.328   0.672   6.262
 5693TIP3    H117036   7.351   0.730   6.335
 5693TIP3    H217037   7.412   0.644   6.227
 5694TIP3   OH217038   1.072   0.999   1.276
 5694TIP3    H117039   1.003   1.064   1.261
 5694TIP3    H217040   1.029   0.915   1.263
 5695TIP3   OH217041   4.936   5.692   1.534
 5695TIP3    H117042   5.025   5.698   1.570
 5695TIP3    H217043   4.879   5.707   1.610
 5696TIP3   OH217044   1.611   6.889   5.035
 5696TIP3    H117045   1.536   6.834   5.057
 5696TIP3    H217046   1.629   6.868   4.943
 5697TIP3   OH217047   4.068   6.456   0.048
 5697TIP3    H117048   4.088   6.456  -0.046
 5697TIP3    H217049   4.135   6.511   0.087
 5698TIP3   OH217050   1.587   0.457   3.752
 5698TIP3    H117051   1.565   0.536   3.802
 5698TIP3    H217052   1.506   0.436   3.704
 5699TIP3   OH217053   7.425   2.148   0.476
 5699TIP3    H117054   7.366   2.148   0.551
 5699TIP3    H217055   7.423   2.057   0.444
 5700TIP3   OH217056   2.355   3.516   2.885
 5700TIP3    H117057   2.286   3.575   2.854
 5700TIP3    H217058   2.433   3.543   2.837
 5701TIP3   OH217059   3.263   4.171   2.939
 5701TIP3    H117060   3.182   4.164   2.890
 5701TIP3    H217061   3.236   4.185   3.030
 5702TIP3   OH217062   1.346   7.081   2.929
 5702TIP3    H117063   1.369   7.025   2.855
 5702TIP3    H217064   1.357   7.170   2.895
 5703TIP3   OH217065   1.575   6.215   5.412
 5703TIP3    H117066   1.531   6.300   5.409
 5703TIP3    H217067   1.660   6.234   5.451
 5704TIP3   OH217068   7.275   2.989   0.081
 5704TIP3    H117069   7.282   3.056   0.013
 5704TIP3    H217070   7.182   2.967   0.084
 5705TIP3   OH217071   7.935   6.568   0.771
 5705TIP3    H117072   8.015   6.516   0.765
 5705TIP3    H217073   7.925   6.607   0.684
 5706TIP3   OH217074   0.374   0.804   6.452
 5706TIP3    H117075   0.441   0.738   6.470
 5706TIP3    H217076   0.419   0.870   6.398
 5707TIP3   OH217077   1.223   6.697   2.352
 5707TIP3    H117078   1.206   6.760   2.282
 5707TIP3    H217079   1.319   6.692   2.356
 5708TIP3   OH217080   4.316   0.074   2.571
 5708TIP3    H117081   4.327   0.155   2.521
 5708TIP3    H217082   4.223   0.054   2.563
 5709TIP3   OH217083   7.138   6.696   2.425
 5709TIP3    H117084   7.116   6.650   2.344
 5709TIP3    H217085   7.158   6.785   2.396
 5710TIP3   OH217086   7.311   6.590   1.885
 5710TIP3    H117087   7.218   6.567   1.880
 5710TIP3    H217088   7.312   6.683   1.903
 5711TIP3   OH217089   5.230   2.927   2.103
 5711TIP3    H117090   5.139   2.946   2.126
 5711TIP3    H217091   5.253   2.992   2.037
 5712TIP3   OH217092   0.407   3.826   6.206
 5712TIP3    H117093   0.322   3.858   6.176
 5712TIP3    H217094   0.462   3.904   6.211
 5713TIP3   OH217095   7.643   0.733   0.571
 5713TIP3    H117096   7.682   0.654   0.607
 5713TIP3    H217097   7.630   0.713   0.478
 5714TIP3   OH217098   5.424   7.073   4.287
 5714TIP3    H117099   5.484   7.020   4.235
 5714TIP3    H217100   5.383   7.011   4.348
 5715TIP3   OH217101   7.819   6.197   1.106
 5715TIP3    H117102   7.829   6.192   1.011
 5715TIP3    H217103   7.821   6.290   1.126
 5716TIP3   OH217104   2.910   3.762   5.683
 5716TIP3    H117105   2.881   3.702   5.752
 5716TIP3    H217106   2.845   3.752   5.613
 5717TIP3   OH217107   4.900   1.819   1.827
 5717TIP3    H117108   4.949   1.755   1.775
 5717TIP3    H217109   4.817   1.775   1.846
 5718TIP3   OH217110   1.805   6.274   2.481
 5718TIP3    H117111   1.830   6.198   2.534
 5718TIP3    H217112   1.816   6.244   2.390
 5719TIP3   OH217113   5.863   2.867   1.104
 5719TIP3    H117114   5.944   2.835   1.065
 5719TIP3    H217115   5.888   2.893   1.193
 5720TIP3   OH217116   1.765   3.605   4.174
 5720TIP3    H117117   1.789   3.514   4.155
 5720TIP3    H217118   1.677   3.599   4.212
 5721TIP3   OH217119   1.668   3.510   3.477
 5721TIP3    H117120   1.720   3.475   3.549
 5721TIP3    H217121   1.732   3.544   3.414
 5722TIP3   OH217122   3.677   2.956   0.930
 5722TIP3    H117123   3.690   2.990   0.841
 5722TIP3    H217124   3.730   3.013   0.985
 5723TIP3   OH217125   5.884   7.537   6.055
 5723TIP3    H117126   5.951   7.503   6.114
 5723TIP3    H217127   5.876   7.629   6.078
 5724TIP3   OH217128   6.468   1.401   3.638
 5724TIP3    H117129   6.391   1.361   3.680
 5724TIP3    H217130   6.522   1.431   3.711
 5725TIP3   OH217131   2.383   3.882   6.675
 5725TIP3    H117132   2.404   3.975   6.676
 5725TIP3    H217133   2.467   3.838   6.667
 5726TIP3   OH217134   5.354   5.589   6.348
 5726TIP3    H117135   5.386   5.499   6.340
 5726TIP3    H217136   5.303   5.604   6.269
 5727TIP3   OH217137   0.127   6.013   0.597
 5727TIP3    H117138   0.104   6.053   0.514
 5727TIP3    H217139   0.188   6.075   0.638
 5728TIP3   OH217140   1.801   4.001   1.026
 5728TIP3    H117141   1.842   4.068   0.970
 5728TIP3    H217142   1.874   3.961   1.073
 5729TIP3   OH217143   1.952   7.182   5.449
 5729TIP3    H117144   1.861   7.185   5.422
 5729TIP3    H217145   1.989   7.107   5.402
 5730TIP3   OH217146   3.684   3.728   4.464
 5730TIP3    H117147   3.653   3.686   4.544
 5730TIP3    H217148   3.637   3.811   4.461
 5731TIP3   OH217149   0.092   5.271   2.676
 5731TIP3    H117150   0.026   5.225   2.729
 5731TIP3    H217151   0.090   5.226   2.591
 5732TIP3   OH217152   6.225   0.896   3.218
 5732TIP3    H117153   6.297   0.836   3.198
 5732TIP3    H217154   6.265   0.983   3.215
 5733TIP3   OH217155   4.960   3.160   1.512
 5733TIP3    H117156   5.051   3.188   1.523
 5733TIP3    H217157   4.925   3.159   1.601
 5734TIP3   OH217158   7.860   0.929   1.589
 5734TIP3    H117159   7.767   0.907   1.595
 5734TIP3    H217160   7.897   0.861   1.533
 5735TIP3   OH217161   0.415   0.971   2.225
 5735TIP3    H117162   0.478   1.033   2.188
 5735TIP3    H217163   0.330   1.006   2.200
 5736TIP3   OH217164   7.466   5.905  -0.002
 5736TIP3    H117165   7.408   5.846   0.046
 5736TIP3    H217166   7.554   5.881   0.026
 5737TIP3   OH217167   2.256   6.172   6.679
 5737TIP3    H117168   2.343   6.133   6.684
 5737TIP3    H217169   2.226   6.152   6.591
 5738TIP3   OH217170   2.065   2.385   3.774
 5738TIP3    H117171   2.098   2.299   3.796
 5738TIP3    H217172   2.128   2.419   3.710
 5739TIP3   OH217173   0.579   5.811   2.403
 5739TIP3    H117174   0.599   5.868   2.328
 5739TIP3    H217175   0.548   5.730   2.364
 5740TIP3   OH217176   3.626   0.775   2.256
 5740TIP3    H117177   3.585   0.695   2.223
 5740TIP3    H217178   3.710   0.745   2.291
 5741TIP3   OH217179   1.477   5.801   5.227
 5741TIP3    H117180   1.414   5.754   5.281
 5741TIP3    H217181   1.537   5.842   5.289
 5742TIP3   OH217182   6.613   4.892   6.424
 5742TIP3    H117183   6.590   4.941   6.345
 5742TIP3    H217184   6.616   4.801   6.395
 5743TIP3   OH217185   1.178   3.709   3.201
 5743TIP3    H117186   1.226   3.634   3.234
 5743TIP3    H217187   1.178   3.772   3.273
 5744TIP3   OH217188   4.571   5.494   4.232
 5744TIP3    H117189   4.547   5.404   4.212
 5744TIP3    H217190   4.601   5.531   4.149
 5745TIP3   OH217191   7.266   7.468   2.215
 5745TIP3    H117192   7.321   7.415   2.273
 5745TIP3    H217193   7.203   7.509   2.274
 5746TIP3   OH217194   6.349   3.158   2.477
 5746TIP3    H117195   6.355   3.240   2.428
 5746TIP3    H217196   6.401   3.096   2.426
 5747TIP3   OH217197   1.807   7.528   0.861
 5747TIP3    H117198   1.790   7.435   0.848
 5747TIP3    H217199   1.880   7.531   0.923
 5748TIP3   OH217200   5.358   2.396   1.644
 5748TIP3    H117201   5.324   2.307   1.657
 5748TIP3    H217202   5.421   2.408   1.716
 5749TIP3   OH217203   1.317   3.139   2.621
 5749TIP3    H117204   1.258   3.139   2.546
 5749TIP3    H217205   1.259   3.145   2.697
 5750TIP3   OH217206   4.518   3.270   1.929
 5750TIP3    H117207   4.542   3.192   1.980
 5750TIP3    H217208   4.544   3.344   1.983
 5751TIP3   OH217209   2.166   3.672   3.360
 5751TIP3    H117210   2.233   3.658   3.427
 5751TIP3    H217211   2.203   3.635   3.280
 5752TIP3   OH217212   8.052   0.160   6.235
 5752TIP3    H117213   8.000   0.162   6.155
 5752TIP3    H217214   8.020   0.085   6.284
 5753TIP3   OH217215   7.092   0.897   3.849
 5753TIP3    H117216   7.094   0.992   3.834
 5753TIP3    H217217   6.999   0.874   3.842
 5754TIP3   OH217218   3.637   6.274   0.321
 5754TIP3    H117219   3.544   6.286   0.304
 5754TIP3    H217220   3.681   6.321   0.251
 5755TIP3   OH217221   7.826   2.619   1.863
 5755TIP3    H117222   7.824   2.714   1.861
 5755TIP3    H217223   7.910   2.597   1.903
 5756TIP3   OH217224   4.730   6.451   1.875
 5756TIP3    H117225   4.726   6.355   1.873
 5756TIP3    H217226   4.819   6.470   1.905
 5757TIP3   OH217227   5.655   5.041   5.377
 5757TIP3    H117228   5.598   5.016   5.304
 5757TIP3    H217229   5.738   5.065   5.335
 5758TIP3   OH217230   6.867   3.064   4.113
 5758TIP3    H117231   6.781   3.093   4.082
 5758TIP3    H217232   6.929   3.125   4.073
 5759TIP3   OH217233   2.917   6.388   0.430
 5759TIP3    H117234   2.861   6.342   0.493
 5759TIP3    H217235   2.877   6.474   0.421
 5760TIP3   OH217236   0.516   6.381   0.282
 5760TIP3    H117237   0.534   6.301   0.232
 5760TIP3    H217238   0.421   6.383   0.291
 5761TIP3   OH217239   1.385   6.441   0.692
 5761TIP3    H117240   1.348   6.415   0.776
 5761TIP3    H217241   1.343   6.382   0.629
 5762TIP3   OH217242   1.430   1.238   1.559
 5762TIP3    H117243   1.460   1.233   1.469
 5762TIP3    H217244   1.490   1.299   1.602
 5763TIP3   OH217245   2.687   7.152   4.899
 5763TIP3    H117246   2.669   7.190   4.813
 5763TIP3    H217247   2.604   7.159   4.946
 5764TIP3   OH217248   1.654   6.561   3.537
 5764TIP3    H117249   1.567   6.600   3.551
 5764TIP3    H217250   1.714   6.617   3.587
 5765TIP3   OH217251   3.205   7.140   3.233
 5765TIP3    H117252   3.219   7.153   3.139
 5765TIP3    H217253   3.184   7.227   3.267
 5766TIP3   OH217254   7.485   0.678   2.664
 5766TIP3    H117255   7.422   0.619   2.705
 5766TIP3    H217256   7.456   0.766   2.689
 5767TIP3   OH217257   1.419   3.688   4.014
 5767TIP3    H117258   1.412   3.716   3.922
 5767TIP3    H217259   1.391   3.596   4.013
 5768TIP3   OH217260   5.417   4.594   3.810
 5768TIP3    H117261   5.353   4.572   3.878
 5768TIP3    H217262   5.499   4.557   3.843
 5769TIP3   OH217263   5.437   4.281   1.072
 5769TIP3    H117264   5.494   4.276   1.149
 5769TIP3    H217265   5.469   4.213   1.013
 5770TIP3   OH217266   3.776   1.467   2.168
 5770TIP3    H117267   3.862   1.437   2.196
 5770TIP3    H217268   3.726   1.477   2.249
 5771TIP3   OH217269   7.293   0.464   4.468
 5771TIP3    H117270   7.271   0.546   4.514
 5771TIP3    H217271   7.375   0.483   4.423
 5772TIP3   OH217272   5.244   4.889   3.228
 5772TIP3    H117273   5.218   4.979   3.246
 5772TIP3    H217274   5.334   4.895   3.198
 5773TIP3   OH217275   0.944   3.912   4.761
 5773TIP3    H117276   0.865   3.949   4.801
 5773TIP3    H217277   0.933   3.817   4.768
 5774TIP3   OH217278   6.994   2.057   2.203
 5774TIP3    H117279   7.025   2.145   2.184
 5774TIP3    H217280   6.929   2.069   2.272
 5775TIP3   OH217281   2.161   6.303   5.696
 5775TIP3    H117282   2.124   6.223   5.658
 5775TIP3    H217283   2.099   6.371   5.673
 5776TIP3   OH217284   8.219   3.560   0.714
 5776TIP3    H117285   8.223   3.557   0.619
 5776TIP3    H217286   8.126   3.569   0.734
 5777TIP3   OH217287   8.197   3.040   2.255
 5777TIP3    H117288   8.145   2.967   2.223
 5777TIP3    H217289   8.275   3.041   2.200
 5778TIP3   OH217290   3.380   2.872   2.703
 5778TIP3    H117291   3.380   2.871   2.798
 5778TIP3    H217292   3.399   2.963   2.680
 5779TIP3   OH217293   2.803   5.284   4.364
 5779TIP3    H117294   2.795   5.191   4.347
 5779TIP3    H217295   2.887   5.294   4.409
 5780TIP3   OH217296   7.394   2.536   1.566
 5780TIP3    H117297   7.407   2.473   1.496
 5780TIP3    H217298   7.476   2.585   1.571
 5781TIP3   OH217299   0.321   0.591   6.691
 5781TIP3    H117300   0.401   0.633   6.723
 5781TIP3    H217301   0.289   0.649   6.622
 5782TIP3   OH217302   3.682   1.825   5.403
 5782TIP3    H117303   3.673   1.754   5.340
 5782TIP3    H217304   3.669   1.785   5.488
 5783TIP3   OH217305   1.765   0.277   4.128
 5783TIP3    H117306   1.825   0.222   4.076
 5783TIP3    H217307   1.794   0.265   4.218
 5784TIP3   OH217308   2.544   0.659   4.513
 5784TIP3    H117309   2.453   0.631   4.512
 5784TIP3    H217310   2.570   0.655   4.605
 5785TIP3   OH217311   3.083   6.257   5.633
 5785TIP3    H117312   3.080   6.317   5.558
 5785TIP3    H217313   3.166   6.211   5.623
 5786TIP3   OH217314   3.172   7.748   0.301
 5786TIP3    H117315   3.089   7.742   0.348
 5786TIP3    H217316   3.185   7.842   0.286
 5787TIP3   OH217317   3.832   0.823   1.906
 5787TIP3    H117318   3.840   0.909   1.947
 5787TIP3    H217319   3.739   0.800   1.918
 5788TIP3   OH217320   0.932   4.034   0.546
 5788TIP3    H117321   1.001   4.066   0.488
 5788TIP3    H217322   0.856   4.025   0.488
 5789TIP3   OH217323   0.759   0.249   5.183
 5789TIP3    H117324   0.670   0.246   5.216
 5789TIP3    H217325   0.756   0.201   5.100
 5790TIP3   OH217326   3.719   2.174   4.790
 5790TIP3    H117327   3.758   2.120   4.721
 5790TIP3    H217328   3.766   2.258   4.784
 5791TIP3   OH217329   1.141   4.551   5.635
 5791TIP3    H117330   1.237   4.544   5.640
 5791TIP3    H217331   1.116   4.495   5.562
 5792TIP3   OH217332   0.265   1.699   3.603
 5792TIP3    H117333   0.340   1.639   3.606
 5792TIP3    H217334   0.207   1.668   3.673
 5793TIP3   OH217335   8.049   1.767   3.690
 5793TIP3    H117336   8.064   1.820   3.768
 5793TIP3    H217337   8.122   1.788   3.632
 5794TIP3   OH217338   7.809   5.251   1.806
 5794TIP3    H117339   7.827   5.179   1.866
 5794TIP3    H217340   7.850   5.327   1.847
 5795TIP3   OH217341   3.224   6.123   6.026
 5795TIP3    H117342   3.177   6.041   6.040
 5795TIP3    H217343   3.268   6.140   6.109
 5796TIP3   OH217344   0.750   7.657   6.199
 5796TIP3    H117345   0.784   7.745   6.212
 5796TIP3    H217346   0.750   7.644   6.105
 5797TIP3   OH217347   2.900   2.018   3.936
 5797TIP3    H117348   2.814   2.027   3.978
 5797TIP3    H217349   2.898   1.932   3.895
 5798TIP3   OH217350   0.455   0.987   3.172
 5798TIP3    H117351   0.548   0.979   3.191
 5798TIP3    H217352   0.450   1.053   3.103
 5799TIP3   OH217353   7.827   7.304   4.179
 5799TIP3    H117354   7.890   7.333   4.113
 5799TIP3    H217355   7.768   7.245   4.132
 5800TIP3   OH217356   4.248   1.380   5.659
 5800TIP3    H117357   4.175   1.416   5.609
 5800TIP3    H217358   4.262   1.444   5.729
 5801TIP3   OH217359   3.209   3.639   4.077
 5801TIP3    H117360   3.159   3.567   4.117
 5801TIP3    H217361   3.207   3.708   4.143
 5802TIP3   OH217362   2.653   6.232   1.284
 5802TIP3    H117363   2.665   6.327   1.283
 5802TIP3    H217364   2.559   6.220   1.300
 5803TIP3   OH217365   7.170   4.518   3.631
 5803TIP3    H117366   7.108   4.590   3.623
 5803TIP3    H217367   7.251   4.550   3.592
 5804TIP3   OH217368   2.127   2.512   6.113
 5804TIP3    H117369   2.039   2.483   6.088
 5804TIP3    H217370   2.186   2.457   6.063
 5805TIP3   OH217371   7.814   1.366   0.828
 5805TIP3    H117372   7.894   1.320   0.853
 5805TIP3    H217373   7.842   1.457   0.817
 5806TIP3   OH217374   6.429   0.498   6.736
 5806TIP3    H117375   6.345   0.538   6.713
 5806TIP3    H217376   6.447   0.439   6.663
 5807TIP3   OH217377   6.248   5.788   1.884
 5807TIP3    H117378   6.284   5.791   1.796
 5807TIP3    H217379   6.182   5.858   1.885
 5808TIP3   OH217380   5.833   7.032   5.144
 5808TIP3    H117381   5.866   7.121   5.135
 5808TIP3    H217382   5.738   7.042   5.148
 5809TIP3   OH217383   5.269   7.054   6.543
 5809TIP3    H117384   5.275   7.147   6.565
 5809TIP3    H217385   5.353   7.034   6.500
 5810TIP3   OH217386   2.349   2.408   3.700
 5810TIP3    H117387   2.363   2.357   3.780
 5810TIP3    H217388   2.415   2.478   3.705
 5811TIP3   OH217389   3.096   3.913   4.574
 5811TIP3    H117390   3.088   3.895   4.668
 5811TIP3    H217391   3.015   3.880   4.536
 5812TIP3   OH217392   5.446   5.325   2.019
 5812TIP3    H117393   5.385   5.251   2.018
 5812TIP3    H217394   5.400   5.394   2.066
 5813TIP3   OH217395   5.232   7.494   4.776
 5813TIP3    H117396   5.177   7.416   4.773
 5813TIP3    H217397   5.270   7.494   4.863
 5814TIP3   OH217398   2.006   4.595   1.444
 5814TIP3    H117399   2.085   4.624   1.490
 5814TIP3    H217400   2.032   4.512   1.403
 5815TIP3   OH217401   7.675   5.982   6.352
 5815TIP3    H117402   7.673   5.989   6.448
 5815TIP3    H217403   7.638   6.065   6.321
 5816TIP3   OH217404   7.360   3.989   4.995
 5816TIP3    H117405   7.348   4.069   4.942
 5816TIP3    H217406   7.390   4.021   5.080
 5817TIP3   OH217407   2.309   4.543   0.573
 5817TIP3    H117408   2.290   4.577   0.485
 5817TIP3    H217409   2.399   4.513   0.568
 5818TIP3   OH217410   3.979   3.013   6.062
 5818TIP3    H117411   4.026   2.938   6.099
 5818TIP3    H217412   3.888   2.999   6.087
 5819TIP3   OH217413   7.781   4.095   2.886
 5819TIP3    H117414   7.723   4.162   2.922
 5819TIP3    H217415   7.869   4.128   2.902
 5820TIP3   OH217416   4.407   6.281   0.924
 5820TIP3    H117417   4.416   6.294   0.830
 5820TIP3    H217418   4.476   6.335   0.962
 5821TIP3   OH217419   5.094   6.991   3.476
 5821TIP3    H117420   5.116   6.984   3.569
 5821TIP3    H217421   5.002   6.963   3.471
 5822TIP3   OH217422   7.140   7.631   1.703
 5822TIP3    H117423   7.091   7.691   1.647
 5822TIP3    H217424   7.104   7.645   1.791
 5823TIP3   OH217425   0.648   1.951   0.372
 5823TIP3    H117426   0.689   2.008   0.307
 5823TIP3    H217427   0.654   2.000   0.454
 5824TIP3   OH217428   3.216   6.338   1.075
 5824TIP3    H117429   3.162   6.335   0.996
 5824TIP3    H217430   3.167   6.288   1.139
 5825TIP3   OH217431   1.158   5.291   2.787
 5825TIP3    H117432   1.221   5.346   2.740
 5825TIP3    H217433   1.167   5.204   2.747
 5826TIP3   OH217434   2.732   5.586   0.629
 5826TIP3    H117435   2.786   5.541   0.563
 5826TIP3    H217436   2.791   5.600   0.703
 5827TIP3   OH217437   7.763   4.979   3.777
 5827TIP3    H117438   7.773   4.997   3.870
 5827TIP3    H217439   7.789   5.060   3.733
 5828TIP3   OH217440   6.975   1.257   2.992
 5828TIP3    H117441   7.000   1.178   3.040
 5828TIP3    H217442   6.958   1.227   2.903
 5829TIP3   OH217443   4.764   5.592   5.410
 5829TIP3    H117444   4.819   5.550   5.344
 5829TIP3    H217445   4.813   5.670   5.436
 5830TIP3   OH217446   1.969   3.513   4.790
 5830TIP3    H117447   1.981   3.560   4.873
 5830TIP3    H217448   2.016   3.565   4.726
 5831TIP3   OH217449   6.715   6.354   3.919
 5831TIP3    H117450   6.761   6.437   3.930
 5831TIP3    H217451   6.681   6.334   4.006
 5832TIP3   OH217452   5.117   3.759   4.621
 5832TIP3    H117453   5.208   3.729   4.628
 5832TIP3    H217454   5.073   3.718   4.695
 5833TIP3   OH217455   2.552   1.456   1.070
 5833TIP3    H117456   2.590   1.498   0.993
 5833TIP3    H217457   2.563   1.362   1.054
 5834TIP3   OH217458   1.944   0.678   3.113
 5834TIP3    H117459   2.038   0.694   3.113
 5834TIP3    H217460   1.931   0.610   3.179
 5835TIP3   OH217461   3.655   1.752   0.529
 5835TIP3    H117462   3.665   1.846   0.545
 5835TIP3    H217463   3.726   1.730   0.468
 5836TIP3   OH217464   3.618   1.726   2.548
 5836TIP3    H117465   3.639   1.733   2.642
 5836TIP3    H217466   3.528   1.757   2.542
 5837TIP3   OH217467   6.856   4.410   5.620
 5837TIP3    H117468   6.939   4.381   5.584
 5837TIP3    H217469   6.879   4.456   5.701
 5838TIP3   OH217470   3.880   0.101   5.615
 5838TIP3    H117471   3.805   0.125   5.561
 5838TIP3    H217472   3.933   0.180   5.621
 5839TIP3   OH217473   2.496   6.863   5.952
 5839TIP3    H117474   2.498   6.778   5.995
 5839TIP3    H217475   2.459   6.922   6.018
 5840TIP3   OH217476   4.074   7.348   2.268
 5840TIP3    H117477   4.121   7.426   2.237
 5840TIP3    H217478   4.055   7.298   2.188
 5841TIP3   OH217479   5.660   6.157   4.348
 5841TIP3    H117480   5.642   6.063   4.359
 5841TIP3    H217481   5.590   6.188   4.292
 5842TIP3   OH217482   7.431   6.550   5.634
 5842TIP3    H117483   7.502   6.612   5.647
 5842TIP3    H217484   7.475   6.465   5.626
 5843TIP3   OH217485   0.110   3.154   6.573
 5843TIP3    H117486   0.084   3.077   6.522
 5843TIP3    H217487   0.193   3.129   6.614
 5844TIP3   OH217488   2.862   7.266   6.752
 5844TIP3    H117489   2.870   7.284   6.846
 5844TIP3    H217490   2.947   7.288   6.715
 5845TIP3   OH217491   0.456   0.139   2.167
 5845TIP3    H117492   0.383   0.077   2.165
 5845TIP3    H217493   0.443   0.188   2.248
 5846TIP3   OH217494   3.933   2.838   2.193
 5846TIP3    H117495   3.849   2.864   2.232
 5846TIP3    H217496   3.935   2.743   2.202
 5847TIP3   OH217497   1.868   6.942   1.100
 5847TIP3    H117498   1.781   6.980   1.110
 5847TIP3    H217499   1.891   6.956   1.008
 5848TIP3   OH217500   6.983   6.367   6.096
 5848TIP3    H117501   6.899   6.400   6.066
 5848TIP3    H217502   6.974   6.272   6.095
 5849TIP3   OH217503   0.352   1.095   3.393
 5849TIP3    H117504   0.304   1.160   3.342
 5849TIP3    H217505   0.401   1.045   3.327
 5850TIP3   OH217506   2.168   5.757   4.260
 5850TIP3    H117507   2.099   5.715   4.209
 5850TIP3    H217508   2.214   5.814   4.198
 5851TIP3   OH217509   4.578   3.583   3.404
 5851TIP3    H117510   4.537   3.513   3.455
 5851TIP3    H217511   4.580   3.549   3.315
 5852TIP3   OH217512   3.012   5.308   3.787
 5852TIP3    H117513   2.971   5.279   3.869
 5852TIP3    H217514   2.981   5.246   3.721
 5853TIP3   OH217515   7.587   6.965   2.965
 5853TIP3    H117516   7.553   6.888   3.010
 5853TIP3    H217517   7.532   6.973   2.886
 5854TIP3   OH217518   7.555   4.216   5.238
 5854TIP3    H117519   7.488   4.149   5.246
 5854TIP3    H217520   7.556   4.260   5.324
 5855TIP3   OH217521   7.052   2.219   3.292
 5855TIP3    H117522   7.049   2.264   3.377
 5855TIP3    H217523   7.091   2.283   3.232
 5856TIP3   OH217524   4.844   3.661   6.382
 5856TIP3    H117525   4.865   3.755   6.380
 5856TIP3    H217526   4.799   3.645   6.298
 5857TIP3   OH217527   4.981   1.630   2.465
 5857TIP3    H117528   4.944   1.717   2.482
 5857TIP3    H217529   4.905   1.572   2.463
 5858TIP3   OH217530   5.635   6.717   5.026
 5858TIP3    H117531   5.564   6.658   5.053
 5858TIP3    H217532   5.590   6.789   4.983
 5859TIP3   OH217533   6.550   4.151   3.251
 5859TIP3    H117534   6.603   4.077   3.280
 5859TIP3    H217535   6.571   4.161   3.158
 5860TIP3   OH217536   2.462   5.288   1.937
 5860TIP3    H117537   2.406   5.229   1.988
 5860TIP3    H217538   2.512   5.230   1.880
 5861TIP3   OH217539   4.746   6.500   0.180
 5861TIP3    H117540   4.817   6.436   0.188
 5861TIP3    H217541   4.672   6.448   0.149
 5862TIP3   OH217542   3.741   7.635   1.952
 5862TIP3    H117543   3.746   7.730   1.959
 5862TIP3    H217544   3.710   7.605   2.038
 5863TIP3   OH217545   7.041   6.225   2.305
 5863TIP3    H117546   7.125   6.264   2.328
 5863TIP3    H217547   7.048   6.134   2.334
 5864TIP3   OH217548   7.500   2.863   5.811
 5864TIP3    H117549   7.453   2.941   5.842
 5864TIP3    H217550   7.438   2.818   5.754
 5865TIP3   OH217551   6.621   0.604   0.138
 5865TIP3    H117552   6.556   0.624   0.205
 5865TIP3    H217553   6.687   0.550   0.183
 5866TIP3   OH217554   7.892   4.627   0.938
 5866TIP3    H117555   7.957   4.557   0.930
 5866TIP3    H217556   7.888   4.667   0.851
 5867TIP3   OH217557   5.183   7.182   5.078
 5867TIP3    H117558   5.276   7.200   5.068
 5867TIP3    H217559   5.179   7.105   5.135
 5868TIP3   OH217560   5.251   6.760   1.118
 5868TIP3    H117561   5.268   6.787   1.208
 5868TIP3    H217562   5.169   6.711   1.122
 5869TIP3   OH217563   6.443   0.351   6.490
 5869TIP3    H117564   6.482   0.415   6.430
 5869TIP3    H217565   6.350   0.347   6.465
 5870TIP3   OH217566   6.279   6.702   5.135
 5870TIP3    H117567   6.214   6.754   5.183
 5870TIP3    H217568   6.341   6.766   5.103
 5871TIP3   OH217569   7.682   5.109   3.345
 5871TIP3    H117570   7.696   5.184   3.288
 5871TIP3    H217571   7.718   5.135   3.430
 5872TIP3   OH217572   3.760   3.342   4.923
 5872TIP3    H117573   3.807   3.417   4.959
 5872TIP3    H217574   3.784   3.269   4.980
 5873TIP3   OH217575   0.834   3.375   3.797
 5873TIP3    H117576   0.814   3.440   3.865
 5873TIP3    H217577   0.923   3.396   3.770
 5874TIP3   OH217578   7.600   0.233   1.684
 5874TIP3    H117579   7.657   0.162   1.712
 5874TIP3    H217580   7.524   0.190   1.645
 5875TIP3   OH217581   7.522   3.673   3.473
 5875TIP3    H117582   7.484   3.758   3.452
 5875TIP3    H217583   7.470   3.610   3.424
 5876TIP3   OH217584   1.445   5.312   4.667
 5876TIP3    H117585   1.409   5.254   4.601
 5876TIP3    H217586   1.463   5.255   4.742
 5877TIP3   OH217587   3.047   6.582   5.222
 5877TIP3    H117588   3.103   6.601   5.147
 5877TIP3    H217589   2.987   6.657   5.226
 5878TIP3   OH217590   1.457   3.625   5.007
 5878TIP3    H117591   1.524   3.689   4.985
 5878TIP3    H217592   1.376   3.676   5.014
 5879TIP3   OH217593   3.770   0.556   1.272
 5879TIP3    H117594   3.834   0.563   1.342
 5879TIP3    H217595   3.712   0.631   1.284
 5880TIP3   OH217596   0.266   4.348   2.933
 5880TIP3    H117597   0.295   4.432   2.970
 5880TIP3    H217598   0.322   4.336   2.857
 5881TIP3   OH217599   3.172   3.666   5.687
 5881TIP3    H117600   3.182   3.580   5.728
 5881TIP3    H217601   3.080   3.688   5.701
 5882TIP3   OH217602   4.787   1.381   5.102
 5882TIP3    H117603   4.847   1.417   5.036
 5882TIP3    H217604   4.844   1.361   5.177
 5883TIP3   OH217605   6.477   5.784   2.716
 5883TIP3    H117606   6.532   5.728   2.662
 5883TIP3    H217607   6.388   5.754   2.699
 5884TIP3   OH217608   3.501   1.161   2.960
 5884TIP3    H117609   3.487   1.171   3.055
 5884TIP3    H217610   3.548   1.241   2.935
 5885TIP3   OH217611   2.075   7.755   0.926
 5885TIP3    H117612   2.032   7.682   0.971
 5885TIP3    H217613   2.123   7.801   0.995
 5886TIP3   OH217614   2.292   5.246   3.282
 5886TIP3    H117615   2.230   5.311   3.312
 5886TIP3    H217616   2.306   5.189   3.357
 5887TIP3   OH217617   2.389   2.017   2.769
 5887TIP3    H117618   2.419   1.971   2.848
 5887TIP3    H217619   2.350   2.097   2.802
 5888TIP3   OH217620   5.087   0.717   4.086
 5888TIP3    H117621   5.100   0.640   4.032
 5888TIP3    H217622   5.005   0.756   4.054
 5889TIP3   OH217623   4.262   6.786   4.035
 5889TIP3    H117624   4.285   6.731   4.111
 5889TIP3    H217625   4.220   6.863   4.074
 5890TIP3   OH217626   2.468   5.765   5.689
 5890TIP3    H117627   2.513   5.780   5.606
 5890TIP3    H217628   2.471   5.670   5.700
 5891TIP3   OH217629   3.305   4.551   4.643
 5891TIP3    H117630   3.256   4.481   4.600
 5891TIP3    H217631   3.308   4.526   4.735
 5892TIP3   OH217632   3.272   3.513   5.276
 5892TIP3    H117633   3.227   3.537   5.357
 5892TIP3    H217634   3.263   3.418   5.271
 5893TIP3   OH217635   5.408   0.550   2.530
 5893TIP3    H117636   5.380   0.600   2.607
 5893TIP3    H217637   5.389   0.459   2.553
 5894TIP3   OH217638   2.912   3.704   3.365
 5894TIP3    H117639   2.923   3.632   3.428
 5894TIP3    H217640   2.995   3.708   3.318
 5895TIP3   OH217641   3.809   0.332   1.124
 5895TIP3    H117642   3.777   0.411   1.168
 5895TIP3    H217643   3.787   0.344   1.032
 5896TIP3   OH217644   3.602   5.168   3.853
 5896TIP3    H117645   3.538   5.183   3.922
 5896TIP3    H217646   3.685   5.153   3.899
 5897TIP3   OH217647   1.438   4.395   1.331
 5897TIP3    H117648   1.484   4.328   1.383
 5897TIP3    H217649   1.496   4.471   1.335
 5898TIP3   OH217650   0.795   4.941   5.792
 5898TIP3    H117651   0.782   5.027   5.753
 5898TIP3    H217652   0.854   4.896   5.733
 5899TIP3   OH217653   8.003   0.106   3.328
 5899TIP3    H117654   8.033   0.164   3.398
 5899TIP3    H217655   8.039   0.145   3.248
 5900TIP3   OH217656   5.156   4.780   2.069
 5900TIP3    H117657   5.179   4.767   1.977
 5900TIP3    H217658   5.239   4.796   2.113
 5901TIP3   OH217659   6.280   2.728   5.280
 5901TIP3    H117660   6.371   2.757   5.277
 5901TIP3    H217661   6.240   2.783   5.348
 5902TIP3   OH217662   5.083   1.451   6.043
 5902TIP3    H117663   5.000   1.482   6.007
 5902TIP3    H217664   5.109   1.519   6.105
 5903TIP3   OH217665   7.857   5.443   2.933
 5903TIP3    H117666   7.940   5.475   2.898
 5903TIP3    H217667   7.862   5.348   2.924
 5904TIP3   OH217668   7.441   7.686   2.172
 5904TIP3    H117669   7.398   7.605   2.199
 5904TIP3    H217670   7.528   7.680   2.212
 5905TIP3   OH217671   5.965   0.555   5.925
 5905TIP3    H117672   5.946   0.465   5.949
 5905TIP3    H217673   6.011   0.549   5.841
 5906TIP3   OH217674   4.103   2.305   2.980
 5906TIP3    H117675   4.063   2.236   3.034
 5906TIP3    H217676   4.042   2.317   2.908
 5907TIP3   OH217677   1.154   1.752   1.385
 5907TIP3    H117678   1.094   1.769   1.312
 5907TIP3    H217679   1.190   1.839   1.407
 5908TIP3   OH217680   6.205   1.118   5.863
 5908TIP3    H117681   6.249   1.181   5.920
 5908TIP3    H217682   6.134   1.083   5.916
 5909TIP3   OH217683   5.247   0.887   2.649
 5909TIP3    H117684   5.218   0.960   2.705
 5909TIP3    H217685   5.342   0.899   2.641
 5910TIP3   OH217686   8.142   3.485   3.992
 5910TIP3    H117687   8.074   3.426   3.958
 5910TIP3    H217688   8.171   3.535   3.916
 5911TIP3   OH217689   5.626   5.743   0.646
 5911TIP3    H117690   5.662   5.750   0.558
 5911TIP3    H217691   5.549   5.799   0.646
 5912TIP3   OH217692   6.483   0.124   1.825
 5912TIP3    H117693   6.447   0.156   1.907
 5912TIP3    H217694   6.407   0.112   1.768
 5913TIP3   OH217695   1.074   6.469   4.199
 5913TIP3    H117696   1.072   6.441   4.107
 5913TIP3    H217697   1.096   6.562   4.196
 5914TIP3   OH217698   1.650   4.069   0.751
 5914TIP3    H117699   1.564   4.039   0.719
 5914TIP3    H217700   1.638   4.079   0.846
 5915TIP3   OH217701   2.441   1.142   4.775
 5915TIP3    H117702   2.423   1.097   4.692
 5915TIP3    H217703   2.398   1.227   4.766
 5916TIP3   OH217704   1.305   0.828   2.211
 5916TIP3    H117705   1.293   0.737   2.239
 5916TIP3    H217706   1.378   0.825   2.150
 5917TIP3   OH217707   5.698   3.687   2.428
 5917TIP3    H117708   5.718   3.650   2.342
 5917TIP3    H217709   5.612   3.652   2.450
 5918TIP3   OH217710   0.281   3.156   5.182
 5918TIP3    H117711   0.239   3.074   5.208
 5918TIP3    H217712   0.233   3.224   5.230
 5919TIP3   OH217713   3.157   1.729   3.627
 5919TIP3    H117714   3.178   1.636   3.624
 5919TIP3    H217715   3.235   1.770   3.666
 5920TIP3   OH217716   2.301   3.549   1.913
 5920TIP3    H117717   2.231   3.544   1.847
 5920TIP3    H217718   2.255   3.570   1.994
 5921TIP3   OH217719   2.581   5.187   2.547
 5921TIP3    H117720   2.662   5.232   2.525
 5921TIP3    H217721   2.512   5.238   2.504
 5922TIP3   OH217722   1.340   2.276   5.883
 5922TIP3    H117723   1.388   2.249   5.961
 5922TIP3    H217724   1.248   2.274   5.910
 5923TIP3   OH217725   4.209   0.970   1.520
 5923TIP3    H117726   4.228   0.964   1.613
 5923TIP3    H217727   4.286   1.015   1.484
 5924TIP3   OH217728   1.998   7.701   5.658
 5924TIP3    H117729   1.982   7.606   5.663
 5924TIP3    H217730   2.023   7.726   5.747
 5925TIP3   OH217731   4.333   4.477   1.806
 5925TIP3    H117732   4.308   4.510   1.893
 5925TIP3    H217733   4.326   4.553   1.749
 5926TIP3   OH217734   3.460   7.533   0.035
 5926TIP3    H117735   3.434   7.620   0.064
 5926TIP3    H217736   3.536   7.511   0.089
 5927TIP3   OH217737   2.746   3.438   2.255
 5927TIP3    H117738   2.739   3.501   2.327
 5927TIP3    H217739   2.808   3.372   2.286
 5928TIP3   OH217740   1.307   0.238   5.272
 5928TIP3    H117741   1.346   0.231   5.185
 5928TIP3    H217742   1.369   0.196   5.331
 5929TIP3   OH217743   1.039   2.722   4.025
 5929TIP3    H117744   1.085   2.639   4.035
 5929TIP3    H217745   1.017   2.727   3.932
 5930TIP3   OH217746   1.328   4.608   4.315
 5930TIP3    H117747   1.413   4.564   4.322
 5930TIP3    H217748   1.265   4.542   4.344
 5931TIP3   OH217749   8.060   4.812   3.488
 5931TIP3    H117750   8.009   4.755   3.431
 5931TIP3    H217751   8.150   4.803   3.456
 5932TIP3   OH217752   1.727   6.312   0.581
 5932TIP3    H117753   1.786   6.239   0.564
 5932TIP3    H217754   1.690   6.295   0.667
 5933TIP3   OH217755   0.663   6.559   6.392
 5933TIP3    H117756   0.710   6.599   6.466
 5933TIP3    H217757   0.581   6.529   6.430
 5934TIP3   OH217758   8.246   3.080   0.884
 5934TIP3    H117759   8.326   3.036   0.856
 5934TIP3    H217760   8.261   3.172   0.864
 5935TIP3   OH217761   7.564   6.197   0.724
 5935TIP3    H117762   7.581   6.255   0.798
 5935TIP3    H217763   7.557   6.256   0.648
 5936TIP3   OH217764   7.468   5.638   5.803
 5936TIP3    H117765   7.479   5.728   5.773
 5936TIP3    H217766   7.389   5.641   5.858
 5937TIP3   OH217767   0.683   6.779   5.432
 5937TIP3    H117768   0.690   6.874   5.437
 5937TIP3    H217769   0.707   6.748   5.520
 5938TIP3   OH217770   6.476   5.136   1.187
 5938TIP3    H117771   6.507   5.060   1.138
 5938TIP3    H217772   6.543   5.151   1.253
 5939TIP3   OH217773   7.663   0.464   5.230
 5939TIP3    H117774   7.696   0.532   5.172
 5939TIP3    H217775   7.741   0.417   5.259
 5940TIP3   OH217776   3.124   2.281   0.742
 5940TIP3    H117777   3.181   2.270   0.818
 5940TIP3    H217778   3.177   2.331   0.679
 5941TIP3   OH217779   5.930   0.408   5.604
 5941TIP3    H117780   5.851   0.425   5.655
 5941TIP3    H217781   5.993   0.473   5.635
 5942TIP3   OH217782   3.893   4.997   3.124
 5942TIP3    H117783   3.988   4.996   3.110
 5942TIP3    H217784   3.880   5.069   3.186
 5943TIP3   OH217785   5.828   1.991   0.052
 5943TIP3    H117786   5.906   2.037   0.083
 5943TIP3    H217787   5.756   2.030   0.102
 5944TIP3   OH217788   3.286   4.912   4.337
 5944TIP3    H117789   3.368   4.957   4.360
 5944TIP3    H217790   3.315   4.829   4.299
 5945TIP3   OH217791   6.968   2.594   0.700
 5945TIP3    H117792   6.940   2.596   0.608
 5945TIP3    H217793   6.889   2.574   0.749
 5946TIP3   OH217794   4.485   6.163   1.631
 5946TIP3    H117795   4.393   6.185   1.645
 5946TIP3    H217796   4.493   6.072   1.660
 5947TIP3   OH217797   7.425   1.800   1.650
 5947TIP3    H117798   7.416   1.835   1.561
 5947TIP3    H217799   7.406   1.707   1.641
 5948TIP3   OH217800   3.519   1.321   4.610
 5948TIP3    H117801   3.558   1.385   4.550
 5948TIP3    H217802   3.449   1.280   4.559
 5949TIP3   OH217803   0.441   5.023   1.680
 5949TIP3    H117804   0.358   4.978   1.662
 5949TIP3    H217805   0.494   5.008   1.602
 5950TIP3   OH217806   0.306   0.044   3.189
 5950TIP3    H117807   0.367   0.117   3.202
 5950TIP3    H217808   0.220   0.083   3.204
 5951TIP3   OH217809   3.874   4.568   2.807
 5951TIP3    H117810   3.875   4.578   2.903
 5951TIP3    H217811   3.799   4.620   2.779
 5952TIP3   OH217812   0.428   6.519   1.710
 5952TIP3    H117813   0.484   6.587   1.673
 5952TIP3    H217814   0.343   6.532   1.668
 5953TIP3   OH217815   7.955   3.032   3.511
 5953TIP3    H117816   8.019   3.071   3.452
 5953TIP3    H217817   7.992   3.045   3.599
 5954TIP3   OH217818   6.433   3.866   5.412
 5954TIP3    H117819   6.393   3.814   5.481
 5954TIP3    H217820   6.443   3.805   5.338
 5955TIP3   OH217821   0.765   6.771   4.948
 5955TIP3    H117822   0.743   6.747   5.038
 5955TIP3    H217823   0.845   6.722   4.929
 5956TIP3   OH217824   3.138   6.951   4.429
 5956TIP3    H117825   3.047   6.930   4.449
 5956TIP3    H217826   3.133   7.029   4.373
 5957TIP3   OH217827   6.053   2.482   1.274
 5957TIP3    H117828   6.091   2.565   1.303
 5957TIP3    H217829   5.982   2.465   1.336
 5958TIP3   OH217830   6.732   5.527   1.174
 5958TIP3    H117831   6.733   5.479   1.092
 5958TIP3    H217832   6.722   5.619   1.148
 5959TIP3   OH217833   1.334   0.559   2.017
 5959TIP3    H117834   1.261   0.620   2.003
 5959TIP3    H217835   1.334   0.543   2.111
 5960TIP3   OH217836   4.163   6.987   2.200
 5960TIP3    H117837   4.106   6.935   2.142
 5960TIP3    H217838   4.228   6.924   2.231
 5961TIP3   OH217839   5.403   6.578   3.045
 5961TIP3    H117840   5.313   6.559   3.072
 5961TIP3    H217841   5.412   6.673   3.059
 5962TIP3   OH217842   2.519   4.818   5.421
 5962TIP3    H117843   2.532   4.724   5.410
 5962TIP3    H217844   2.532   4.832   5.515
 5963TIP3   OH217845   1.382   0.525   5.846
 5963TIP3    H117846   1.345   0.472   5.916
 5963TIP3    H217847   1.473   0.539   5.872
 5964TIP3   OH217848   5.192   2.544   0.919
 5964TIP3    H117849   5.229   2.611   0.862
 5964TIP3    H217850   5.101   2.536   0.891
 5965TIP3   OH217851   1.819   6.577   2.396
 5965TIP3    H117852   1.875   6.540   2.328
 5965TIP3    H217853   1.831   6.518   2.471
 5966TIP3   OH217854   3.895   2.075   3.465
 5966TIP3    H117855   3.826   2.013   3.488
 5966TIP3    H217856   3.906   2.128   3.544
 5967TIP3   OH217857   5.280   0.371   0.811
 5967TIP3    H117858   5.205   0.318   0.836
 5967TIP3    H217859   5.283   0.365   0.716
 5968TIP3   OH217860   2.843   2.548   5.133
 5968TIP3    H117861   2.762   2.576   5.089
 5968TIP3    H217862   2.889   2.496   5.067
 5969TIP3   OH217863   1.721   2.165   2.123
 5969TIP3    H117864   1.641   2.121   2.155
 5969TIP3    H217865   1.691   2.249   2.089
 5970TIP3   OH217866   2.451   2.994   1.223
 5970TIP3    H117867   2.472   2.902   1.205
 5970TIP3    H217868   2.356   2.997   1.222
 5971TIP3   OH217869   0.033   3.821   3.201
 5971TIP3    H117870   0.074   3.841   3.285
 5971TIP3    H217871  -0.044   3.878   3.197
 5972TIP3   OH217872   6.989   5.144   2.037
 5972TIP3    H117873   7.049   5.074   2.062
 5972TIP3    H217874   6.902   5.106   2.050
 5973TIP3   OH217875   0.392   4.522   6.156
 5973TIP3    H117876   0.369   4.558   6.241
 5973TIP3    H217877   0.453   4.450   6.175
 5974TIP3   OH217878   4.393   1.927   4.498
 5974TIP3    H117879   4.352   1.841   4.488
 5974TIP3    H217880   4.485   1.908   4.517
 5975TIP3   OH217881   7.094   4.579   1.447
 5975TIP3    H117882   7.015   4.582   1.394
 5975TIP3    H217883   7.150   4.648   1.412
 5976TIP3   OH217884   6.060   4.649   1.505
 5976TIP3    H117885   6.106   4.644   1.421
 5976TIP3    H217886   6.112   4.709   1.558
 5977TIP3   OH217887   2.945   1.269   3.693
 5977TIP3    H117888   2.998   1.191   3.678
 5977TIP3    H217889   2.914   1.260   3.783
 5978TIP3   OH217890   6.232   0.189   2.751
 5978TIP3    H117891   6.210   0.279   2.727
 5978TIP3    H217892   6.276   0.153   2.673
 5979TIP3   OH217893   2.296   6.299   0.347
 5979TIP3    H117894   2.278   6.314   0.255
 5979TIP3    H217895   2.214   6.321   0.392
 5980TIP3   OH217896   0.896   2.646   3.189
 5980TIP3    H117897   0.911   2.578   3.123
 5980TIP3    H217898   0.858   2.719   3.140
 5981TIP3   OH217899   2.468   7.048   6.722
 5981TIP3    H117900   2.493   7.120   6.780
 5981TIP3    H217901   2.409   7.089   6.658
 5982TIP3   OH217902   3.897   5.809   1.957
 5982TIP3    H117903   3.953   5.752   1.905
 5982TIP3    H217904   3.947   5.891   1.964
 5983TIP3   OH217905   2.692   1.735   5.344
 5983TIP3    H117906   2.708   1.652   5.299
 5983TIP3    H217907   2.597   1.740   5.353
 5984TIP3   OH217908   5.255   7.004   4.624
 5984TIP3    H117909   5.216   7.058   4.693
 5984TIP3    H217910   5.341   7.043   4.609
 5985TIP3   OH217911   5.064   0.398   5.597
 5985TIP3    H117912   4.997   0.416   5.532
 5985TIP3    H217913   5.092   0.308   5.578
 5986TIP3   OH217914   8.028   0.165   4.557
 5986TIP3    H117915   7.963   0.192   4.492
 5986TIP3    H217916   8.023   0.070   4.558
 5987TIP3   OH217917   6.429   0.759   0.348
 5987TIP3    H117918   6.436   0.692   0.416
 5987TIP3    H217919   6.373   0.827   0.386
 5988TIP3   OH217920   0.824   2.756   3.721
 5988TIP3    H117921   0.798   2.848   3.721
 5988TIP3    H217922   0.826   2.732   3.629
 5989TIP3   OH217923   5.506   5.456   0.122
 5989TIP3    H117924   5.568   5.389   0.150
 5989TIP3    H217925   5.447   5.411   0.062
 5990TIP3   OH217926   7.238   3.559   3.715
 5990TIP3    H117927   7.212   3.566   3.623
 5990TIP3    H217928   7.176   3.614   3.761
 5991TIP3   OH217929   1.508   1.967   0.717
 5991TIP3    H117930   1.547   1.911   0.784
 5991TIP3    H217931   1.567   2.042   0.710
 5992TIP3   OH217932   6.534   2.391   0.893
 5992TIP3    H117933   6.574   2.327   0.952
 5992TIP3    H217934   6.542   2.475   0.939
 5993TIP3   OH217935   0.430   1.326   3.096
 5993TIP3    H117936   0.386   1.327   3.181
 5993TIP3    H217937   0.358   1.329   3.032
 5994TIP3   OH217938   2.904   1.869   0.824
 5994TIP3    H117939   2.927   1.777   0.810
 5994TIP3    H217940   2.905   1.880   0.919
 5995TIP3   OH217941   3.927   2.292   5.485
 5995TIP3    H117942   4.020   2.313   5.500
 5995TIP3    H217943   3.881   2.374   5.502
 5996TIP3   OH217944   7.253   4.115   4.042
 5996TIP3    H117945   7.325   4.159   4.088
 5996TIP3    H217946   7.174   4.149   4.084
 5997TIP3   OH217947   3.125   1.614   3.299
 5997TIP3    H117948   3.201   1.643   3.249
 5997TIP3    H217949   3.152   1.531   3.337
 5998TIP3   OH217950   5.265   5.222   4.497
 5998TIP3    H117951   5.249   5.145   4.443
 5998TIP3    H217952   5.199   5.215   4.567
 5999TIP3   OH217953   6.791   7.766   2.456
 5999TIP3    H117954   6.767   7.685   2.412
 5999TIP3    H217955   6.726   7.830   2.428
 6000TIP3   OH217956   2.013   1.988   3.247
 6000TIP3    H117957   1.970   1.955   3.168
 6000TIP3    H217958   2.107   1.979   3.229
 6001TIP3   OH217959   3.207   7.654   1.387
 6001TIP3    H117960   3.202   7.714   1.313
 6001TIP3    H217961   3.124   7.605   1.383
 6002TIP3   OH217962   0.297   7.662   6.403
 6002TIP3    H117963   0.283   7.584   6.349
 6002TIP3    H217964   0.391   7.662   6.420
 6003TIP3   OH217965   1.343   3.317   0.880
 6003TIP3    H117966   1.385   3.324   0.794
 6003TIP3    H217967   1.400   3.258   0.930
 6004TIP3   OH217968   0.293   2.318   5.269
 6004TIP3    H117969   0.198   2.311   5.269
 6004TIP3    H217970   0.313   2.386   5.204
 6005TIP3   OH217971   0.457   3.504   5.277
 6005TIP3    H117972   0.450   3.562   5.201
 6005TIP3    H217973   0.467   3.563   5.352
 6006TIP3   OH217974   4.412   1.044   4.402
 6006TIP3    H117975   4.412   1.109   4.331
 6006TIP3    H217976   4.447   0.965   4.361
 6007TIP3   OH217977   7.511   0.038   2.090
 6007TIP3    H117978   7.504   0.094   2.167
 6007TIP3    H217979   7.514  -0.051   2.125
 6008TIP3   OH217980   1.528   5.338   5.891
 6008TIP3    H117981   1.599   5.381   5.845
 6008TIP3    H217982   1.464   5.407   5.907
 6009TIP3   OH217983   1.899   0.748   5.595
 6009TIP3    H117984   1.835   0.800   5.643
 6009TIP3    H217985   1.865   0.745   5.505
 6010TIP3   OH217986   1.804   3.507   1.430
 6010TIP3    H117987   1.737   3.528   1.365
 6010TIP3    H217988   1.791   3.414   1.449
 6011TIP3   OH217989   7.020   6.972   3.300
 6011TIP3    H117990   7.105   6.948   3.336
 6011TIP3    H217991   6.994   7.050   3.349
 6012TIP3   OH217992   4.663   0.353   3.050
 6012TIP3    H117993   4.576   0.368   3.087
 6012TIP3    H217994   4.718   0.332   3.126
 6013TIP3   OH217995   6.635   7.552   2.335
 6013TIP3    H117996   6.592   7.475   2.372
 6013TIP3    H217997   6.587   7.569   2.254
 6014TIP3   OH217998   8.028   1.111   3.811
 6014TIP3    H117999   8.107   1.098   3.758
 6014TIP3    H218000   8.033   1.043   3.878
 6015TIP3   OH218001   0.663   1.602   3.762
 6015TIP3    H118002   0.575   1.579   3.730
 6015TIP3    H218003   0.709   1.632   3.684
 6016TIP3   OH218004   1.870   6.732   1.839
 6016TIP3    H118005   1.790   6.783   1.852
 6016TIP3    H218006   1.862   6.695   1.751
 6017TIP3   OH218007   7.922   0.610   0.763
 6017TIP3    H118008   8.016   0.600   0.751
 6017TIP3    H218009   7.910   0.701   0.791
 6018TIP3   OH218010   7.273   3.776   0.148
 6018TIP3    H118011   7.325   3.853   0.174
 6018TIP3    H218012   7.191   3.786   0.196
 6019TIP3   OH218013   1.133   0.224   2.573
 6019TIP3    H118014   1.110   0.213   2.481
 6019TIP3    H218015   1.079   0.160   2.619
 6020TIP3   OH218016   4.349   5.101   3.242
 6020TIP3    H118017   4.308   5.101   3.156
 6020TIP3    H218018   4.443   5.112   3.224
 6021TIP3   OH218019   0.710   2.750   5.305
 6021TIP3    H118020   0.782   2.709   5.257
 6021TIP3    H218021   0.692   2.689   5.377
 6022TIP3   OH218022   4.211   6.990   5.888
 6022TIP3    H118023   4.283   7.002   5.826
 6022TIP3    H218024   4.205   7.074   5.934
 6023TIP3   OH218025   6.132   5.768   0.052
 6023TIP3    H118026   6.065   5.833   0.070
 6023TIP3    H218027   6.197   5.779   0.122
 6024TIP3   OH218028   4.320   1.937   2.159
 6024TIP3    H118029   4.259   1.943   2.086
 6024TIP3    H218030   4.400   1.900   2.121
 6025TIP3   OH218031   0.179   3.447   4.987
 6025TIP3    H118032   0.092   3.412   4.968
 6025TIP3    H218033   0.239   3.374   4.970
 6026TIP3   OH218034   4.561   3.697   0.922
 6026TIP3    H118035   4.530   3.781   0.888
 6026TIP3    H218036   4.655   3.711   0.936
 6027TIP3   OH218037   5.160   3.360   4.139
 6027TIP3    H118038   5.113   3.409   4.207
 6027TIP3    H218039   5.226   3.310   4.187
 6028TIP3   OH218040   0.446   7.349   6.366
 6028TIP3    H118041   0.371   7.382   6.317
 6028TIP3    H218042   0.506   7.424   6.370
 6029TIP3   OH218043   4.451   2.161   0.052
 6029TIP3    H118044   4.490   2.160  -0.036
 6029TIP3    H218045   4.487   2.239   0.093
 6030TIP3   OH218046   0.798   3.509   1.583
 6030TIP3    H118047   0.708   3.477   1.591
 6030TIP3    H218048   0.837   3.454   1.515
 6031TIP3   OH218049   3.679   2.816   1.297
 6031TIP3    H118050   3.610   2.859   1.347
 6031TIP3    H218051   3.711   2.748   1.356
 6032TIP3   OH218052   3.862   4.610   5.357
 6032TIP3    H118053   3.906   4.631   5.274
 6032TIP3    H218054   3.770   4.602   5.333
 6033TIP3   OH218055   0.977   0.678   4.278
 6033TIP3    H118056   0.941   0.766   4.290
 6033TIP3    H218057   0.911   0.633   4.226
 6034TIP3   OH218058   3.986   2.025   5.349
 6034TIP3    H118059   4.069   1.981   5.370
 6034TIP3    H218060   4.010   2.116   5.334
 6035TIP3   OH218061   3.965   2.572   3.789
 6035TIP3    H118062   4.017   2.495   3.812
 6035TIP3    H218063   3.953   2.618   3.872
 6036TIP3   OH218064   7.306   3.783   1.709
 6036TIP3    H118065   7.349   3.826   1.784
 6036TIP3    H218066   7.213   3.803   1.719
 6037TIP3   OH218067   6.780   1.867   3.803
 6037TIP3    H118068   6.799   1.934   3.737
 6037TIP3    H218069   6.685   1.871   3.815
 6038TIP3   OH218070   0.276   5.461   1.401
 6038TIP3    H118071   0.262   5.488   1.492
 6038TIP3    H218072   0.188   5.456   1.364
 6039TIP3   OH218073   7.019   4.431   3.377
 6039TIP3    H118074   7.066   4.471   3.449
 6039TIP3    H218075   6.971   4.358   3.417
 6040TIP3   OH218076   4.251   3.246   3.746
 6040TIP3    H118077   4.284   3.334   3.762
 6040TIP3    H218078   4.262   3.200   3.830
 6041TIP3   OH218079   5.514   4.815   1.296
 6041TIP3    H118080   5.500   4.774   1.381
 6041TIP3    H218081   5.533   4.907   1.316
 6042TIP3   OH218082   3.353   2.767   3.526
 6042TIP3    H118083   3.275   2.822   3.523
 6042TIP3    H218084   3.323   2.681   3.496
 6043TIP3   OH218085   5.434   2.189   0.730
 6043TIP3    H118086   5.500   2.178   0.799
 6043TIP3    H218087   5.439   2.107   0.680
 6044TIP3   OH218088   5.444   5.482   0.411
 6044TIP3    H118089   5.453   5.463   0.318
 6044TIP3    H218090   5.525   5.450   0.450
 6045TIP3   OH218091   5.435   6.207   5.413
 6045TIP3    H118092   5.485   6.244   5.486
 6045TIP3    H218093   5.352   6.255   5.415
 6046TIP3   OH218094   4.909   0.781   4.777
 6046TIP3    H118095   5.001   0.805   4.768
 6046TIP3    H218096   4.884   0.748   4.690
 6047TIP3   OH218097   0.865   1.649   2.068
 6047TIP3    H118098   0.870   1.553   2.071
 6047TIP3    H218099   0.819   1.668   1.986
 6048TIP3   OH218100   2.577   5.762   2.468
 6048TIP3    H118101   2.584   5.677   2.425
 6048TIP3    H218102   2.503   5.752   2.529
 6049TIP3   OH218103   2.313   3.717   1.612
 6049TIP3    H118104   2.304   3.715   1.516
 6049TIP3    H218105   2.355   3.801   1.630
 6050TIP3   OH218106   6.301   5.414   5.670
 6050TIP3    H118107   6.304   5.497   5.624
 6050TIP3    H218108   6.385   5.373   5.651
 6051TIP3   OH218109   4.612   0.190   4.361
 6051TIP3    H118110   4.608   0.102   4.398
 6051TIP3    H218111   4.664   0.240   4.424
 6052TIP3   OH218112   2.038   1.021   3.252
 6052TIP3    H118113   1.957   1.010   3.203
 6052TIP3    H218114   2.053   0.936   3.293
 6053TIP3   OH218115   6.664   4.959   1.115
 6053TIP3    H118116   6.699   4.872   1.097
 6053TIP3    H218117   6.741   5.015   1.119
 6054TIP3   OH218118   3.135   7.466   3.221
 6054TIP3    H118119   3.218   7.453   3.268
 6054TIP3    H218120   3.149   7.546   3.170
 6055TIP3   OH218121   6.352   3.317   2.703
 6055TIP3    H118122   6.345   3.267   2.785
 6055TIP3    H218123   6.367   3.250   2.636
 6056TIP3   OH218124   4.419   3.684   1.549
 6056TIP3    H118125   4.444   3.740   1.476
 6056TIP3    H218126   4.460   3.724   1.625
 6057TIP3   OH218127   3.022   5.076   0.090
 6057TIP3    H118128   3.058   5.094   0.003
 6057TIP3    H218129   2.933   5.112   0.086
 6058TIP3   OH218130   3.299   1.681   2.420
 6058TIP3    H118131   3.318   1.760   2.471
 6058TIP3    H218132   3.205   1.667   2.431
 6059TIP3   OH218133   4.190   0.263   0.296
 6059TIP3    H118134   4.242   0.217   0.363
 6059TIP3    H218135   4.233   0.239   0.213
 6060TIP3   OH218136   1.085   0.374   5.095
 6060TIP3    H118137   1.172   0.351   5.129
 6060TIP3    H218138   1.027   0.305   5.127
 6061TIP3   OH218139   3.115   3.949   1.300
 6061TIP3    H118140   3.153   3.968   1.386
 6061TIP3    H218141   3.027   3.916   1.319
 6062TIP3   OH218142   5.351   4.582   4.228
 6062TIP3    H118143   5.324   4.584   4.137
 6062TIP3    H218144   5.388   4.494   4.240
 6063TIP3   OH218145   4.734   1.963   3.241
 6063TIP3    H118146   4.677   1.886   3.243
 6063TIP3    H218147   4.818   1.932   3.275
 6064TIP3   OH218148   3.515   5.865   0.553
 6064TIP3    H118149   3.561   5.893   0.474
 6064TIP3    H218150   3.578   5.880   0.624
 6065TIP3   OH218151   2.039   1.731   1.565
 6065TIP3    H118152   1.974   1.717   1.497
 6065TIP3    H218153   2.009   1.808   1.612
 6066TIP3   OH218154   3.116   4.427   4.490
 6066TIP3    H118155   3.113   4.336   4.519
 6066TIP3    H218156   3.083   4.425   4.400
 6067TIP3   OH218157   5.767   4.220   1.094
 6067TIP3    H118158   5.689   4.165   1.097
 6067TIP3    H218159   5.837   4.160   1.070
 6068TIP3   OH218160   3.772   4.311   6.511
 6068TIP3    H118161   3.726   4.227   6.510
 6068TIP3    H218162   3.816   4.313   6.596
 6069TIP3   OH218163   0.664   2.744   0.755
 6069TIP3    H118164   0.612   2.674   0.716
 6069TIP3    H218165   0.697   2.706   0.837
 6070TIP3   OH218166   2.505   3.490   5.797
 6070TIP3    H118167   2.516   3.570   5.746
 6070TIP3    H218168   2.534   3.420   5.738
 6071TIP3   OH218169   1.434   3.046   2.289
 6071TIP3    H118170   1.388   2.975   2.244
 6071TIP3    H218171   1.365   3.108   2.313
 6072TIP3   OH218172   6.154   2.103   2.162
 6072TIP3    H118173   6.149   2.062   2.076
 6072TIP3    H218174   6.244   2.135   2.168
 6073TIP3   OH218175   5.654   4.415   4.558
 6073TIP3    H118176   5.737   4.461   4.573
 6073TIP3    H218177   5.667   4.368   4.475
 6074TIP3   OH218178   0.871   4.636   6.056
 6074TIP3    H118179   0.784   4.674   6.067
 6074TIP3    H218180   0.902   4.670   5.972
 6075TIP3   OH218181   4.118   0.317   2.512
 6075TIP3    H118182   4.142   0.410   2.514
 6075TIP3    H218183   4.182   0.278   2.452
 6076TIP3   OH218184   1.561   3.671   0.876
 6076TIP3    H118185   1.473   3.693   0.905
 6076TIP3    H218186   1.614   3.677   0.956
 6077TIP3   OH218187   7.334   3.942   2.778
 6077TIP3    H118188   7.321   4.030   2.815
 6077TIP3    H218189   7.333   3.957   2.683
 6078TIP3   OH218190   7.005   5.301   0.945
 6078TIP3    H118191   6.983   5.274   1.034
 6078TIP3    H218192   7.097   5.325   0.950
 6079TIP3   OH218193   6.755   4.820   5.198
 6079TIP3    H118194   6.663   4.793   5.202
 6079TIP3    H218195   6.795   4.760   5.134
 6080TIP3   OH218196   0.207   6.575   2.714
 6080TIP3    H118197   0.220   6.661   2.753
 6080TIP3    H218198   0.294   6.548   2.685
 6081TIP3   OH218199   0.499   5.767   1.731
 6081TIP3    H118200   0.453   5.817   1.799
 6081TIP3    H218201   0.524   5.685   1.775
 6082TIP3   OH218202   2.279   2.800   0.517
 6082TIP3    H118203   2.279   2.742   0.593
 6082TIP3    H218204   2.271   2.740   0.442
 6083TIP3   OH218205   7.944   2.618   3.328
 6083TIP3    H118206   7.877   2.663   3.380
 6083TIP3    H218207   8.023   2.622   3.383
 6084TIP3   OH218208   2.367   7.483   0.132
 6084TIP3    H118209   2.454   7.463   0.166
 6084TIP3    H218210   2.379   7.490   0.037
 6085TIP3   OH218211   5.586   0.193   6.183
 6085TIP3    H118212   5.680   0.186   6.200
 6085TIP3    H218213   5.567   0.122   6.123
 6086TIP3   OH218214   2.996   3.287   4.702
 6086TIP3    H118215   3.018   3.339   4.779
 6086TIP3    H218216   2.985   3.351   4.631
 6087TIP3   OH218217   2.279   5.978   2.642
 6087TIP3    H118218   2.229   6.018   2.713
 6087TIP3    H218219   2.220   5.913   2.604
 6088TIP3   OH218220   5.373   4.357   3.415
 6088TIP3    H118221   5.331   4.396   3.492
 6088TIP3    H218222   5.462   4.337   3.443
 6089TIP3   OH218223   2.965   7.252   3.065
 6089TIP3    H118224   3.045   7.305   3.071
 6089TIP3    H218225   2.939   7.237   3.156
 6090TIP3   OH218226   5.602   2.037   5.874
 6090TIP3    H118227   5.671   2.006   5.932
 6090TIP3    H218228   5.639   2.026   5.786
 6091TIP3   OH218229   8.276   5.914   3.643
 6091TIP3    H118230   8.289   5.934   3.550
 6091TIP3    H218231   8.277   5.818   3.647
 6092TIP3   OH218232   2.224   6.732   2.845
 6092TIP3    H118233   2.210   6.637   2.844
 6092TIP3    H218234   2.308   6.743   2.888
 6093TIP3   OH218235   3.474   7.478   2.315
 6093TIP3    H118236   3.488   7.444   2.227
 6093TIP3    H218237   3.515   7.565   2.315
 6094TIP3   OH218238   1.243   0.255   6.301
 6094TIP3    H118239   1.314   0.263   6.365
 6094TIP3    H218240   1.254   0.166   6.265
 6095TIP3   OH218241   0.693   5.277   3.156
 6095TIP3    H118242   0.713   5.323   3.074
 6095TIP3    H218243   0.778   5.243   3.186
 6096TIP3   OH218244   6.660   7.083   6.016
 6096TIP3    H118245   6.675   7.174   6.043
 6096TIP3    H218246   6.747   7.049   5.997
 6097TIP3   OH218247   7.695   0.794   3.692
 6097TIP3    H118248   7.744   0.766   3.769
 6097TIP3    H218249   7.760   0.796   3.621
 6098TIP3   OH218250   2.640   0.583   5.831
 6098TIP3    H118251   2.660   0.669   5.793
 6098TIP3    H218252   2.666   0.520   5.764
 6099TIP3   OH218253   5.178   0.985   3.366
 6099TIP3    H118254   5.091   1.011   3.337
 6099TIP3    H218255   5.221   1.067   3.391
 6100TIP3   OH218256   1.528   3.751   6.590
 6100TIP3    H118257   1.619   3.765   6.565
 6100TIP3    H218258   1.483   3.728   6.509
 6101TIP3   OH218259   1.316   2.988   1.579
 6101TIP3    H118260   1.245   3.051   1.591
 6101TIP3    H218261   1.396   3.038   1.598
 6102TIP3   OH218262   6.197   4.805   1.699
 6102TIP3    H118263   6.189   4.833   1.790
 6102TIP3    H218264   6.158   4.877   1.649
 6103TIP3   OH218265   5.657   5.256   1.309
 6103TIP3    H118266   5.750   5.241   1.329
 6103TIP3    H218267   5.646   5.351   1.319
 6104TIP3   OH218268   2.253   1.212   4.139
 6104TIP3    H118269   2.209   1.264   4.071
 6104TIP3    H218270   2.183   1.191   4.201
 6105TIP3   OH218271   2.464   4.079   1.469
 6105TIP3    H118272   2.472   4.035   1.554
 6105TIP3    H218273   2.407   4.154   1.487
 6106TIP3   OH218274   7.799   3.794   2.954
 6106TIP3    H118275   7.720   3.777   3.005
 6106TIP3    H218276   7.780   3.874   2.906
 6107TIP3   OH218277   6.074   6.404   2.179
 6107TIP3    H118278   6.073   6.436   2.089
 6107TIP3    H218279   6.137   6.462   2.223
 6108TIP3   OH218280   7.573   7.234   2.212
 6108TIP3    H118281   7.523   7.160   2.177
 6108TIP3    H218282   7.610   7.202   2.294
 6109TIP3   OH218283   3.072   7.152   2.121
 6109TIP3    H118284   3.033   7.083   2.174
 6109TIP3    H218285   3.028   7.144   2.036
 6110TIP3   OH218286   5.343   2.409   5.057
 6110TIP3    H118287   5.296   2.475   5.005
 6110TIP3    H218288   5.303   2.326   5.033
 6111TIP3   OH218289   7.615   4.986   1.621
 6111TIP3    H118290   7.638   5.078   1.614
 6111TIP3    H218291   7.522   4.982   1.602
 6112TIP3   OH218292   1.909   0.851   0.449
 6112TIP3    H118293   1.816   0.831   0.459
 6112TIP3    H218294   1.947   0.835   0.536
 6113TIP3   OH218295   1.969   2.739   3.861
 6113TIP3    H118296   1.928   2.664   3.817
 6113TIP3    H218297   2.062   2.718   3.861
 6114TIP3   OH218298   2.952   0.408   3.439
 6114TIP3    H118299   2.885   0.448   3.495
 6114TIP3    H218300   3.035   0.442   3.472
 6115TIP3   OH218301   2.592   4.886   4.952
 6115TIP3    H118302   2.558   4.864   4.866
 6115TIP3    H218303   2.671   4.833   4.961
 6116TIP3   OH218304   5.184   1.158   5.931
 6116TIP3    H118305   5.196   1.252   5.922
 6116TIP3    H218306   5.184   1.142   6.025
 6117TIP3   OH218307   7.780   4.233   3.278
 6117TIP3    H118308   7.833   4.250   3.356
 6117TIP3    H218309   7.743   4.146   3.293
 6118TIP3   OH218310   7.239   1.915   4.280
 6118TIP3    H118311   7.248   1.892   4.373
 6118TIP3    H218312   7.274   1.840   4.233
 6119TIP3   OH218313   4.778   4.818   1.472
 6119TIP3    H118314   4.782   4.883   1.542
 6119TIP3    H218315   4.857   4.765   1.484
 6120TIP3   OH218316   3.161   0.059   3.928
 6120TIP3    H118317   3.194   0.140   3.890
 6120TIP3    H218318   3.109   0.019   3.859
 6121TIP3   OH218319   7.216   3.117   4.992
 6121TIP3    H118320   7.192   3.052   5.059
 6121TIP3    H218321   7.146   3.110   4.927
 6122TIP3   OH218322   1.513   3.741   3.536
 6122TIP3    H118323   1.501   3.795   3.457
 6122TIP3    H218324   1.554   3.661   3.504
 6123TIP3   OH218325   5.011   7.265   5.693
 6123TIP3    H118326   5.094   7.313   5.704
 6123TIP3    H218327   5.013   7.236   5.602
 6124TIP3   OH218328   7.453   2.677   6.523
 6124TIP3    H118329   7.516   2.742   6.554
 6124TIP3    H218330   7.438   2.701   6.431
 6125TIP3   OH218331   4.418   3.737   4.037
 6125TIP3    H118332   4.480   3.790   3.987
 6125TIP3    H218333   4.466   3.656   4.057
 6126TIP3   OH218334   8.086   5.298   6.366
 6126TIP3    H118335   8.062   5.308   6.459
 6126TIP3    H218336   8.175   5.264   6.368
 6127TIP3   OH218337   5.804   3.056   2.247
 6127TIP3    H118338   5.787   3.026   2.337
 6127TIP3    H218339   5.717   3.077   2.213
 6128TIP3   OH218340   2.067   0.948   0.031
 6128TIP3    H118341   1.983   0.992   0.048
 6128TIP3    H218342   2.051   0.896  -0.048
 6129TIP3   OH218343   1.566   3.198   0.954
 6129TIP3    H118344   1.599   3.263   0.892
 6129TIP3    H218345   1.634   3.130   0.955
 6130TIP3   OH218346   7.594   6.949   2.616
 6130TIP3    H118347   7.525   6.931   2.678
 6130TIP3    H218348   7.612   6.864   2.575
 6131TIP3   OH218349   5.632   4.148   0.686
 6131TIP3    H118350   5.582   4.142   0.767
 6131TIP3    H218351   5.565   4.149   0.617
 6132TIP3   OH218352   1.761   2.595   3.170
 6132TIP3    H118353   1.687   2.538   3.192
 6132TIP3    H218354   1.759   2.664   3.236
 6133TIP3   OH218355   1.932   7.342   4.244
 6133TIP3    H118356   1.917   7.283   4.319
 6133TIP3    H218357   2.027   7.346   4.236
 6134TIP3   OH218358   3.345   4.247   4.166
 6134TIP3    H118359   3.400   4.296   4.226
 6134TIP3    H218360   3.256   4.277   4.185
 6135TIP3   OH218361   2.881   0.776   4.801
 6135TIP3    H118362   2.853   0.742   4.886
 6135TIP3    H218363   2.966   0.734   4.786
 6136TIP3   OH218364   0.273   0.841   5.867
 6136TIP3    H118365   0.239   0.924   5.835
 6136TIP3    H218366   0.350   0.824   5.814
 6137TIP3   OH218367   2.678   1.123   3.376
 6137TIP3    H118368   2.760   1.074   3.370
 6137TIP3    H218369   2.631   1.082   3.449
 6138TIP3   OH218370   7.758   4.075   0.016
 6138TIP3    H118371   7.670   4.059  -0.018
 6138TIP3    H218372   7.763   4.170   0.027
 6139TIP3   OH218373   1.807   3.502   2.848
 6139TIP3    H118374   1.822   3.457   2.931
 6139TIP3    H218375   1.714   3.492   2.831
 6140TIP3   OH218376   0.058   4.084   4.727
 6140TIP3    H118377  -0.021   4.031   4.719
 6140TIP3    H218378   0.108   4.065   4.647
 6141TIP3   OH218379   6.667   1.299   6.616
 6141TIP3    H118380   6.598   1.268   6.557
 6141TIP3    H218381   6.630   1.291   6.703
 6142TIP3   OH218382   2.351   5.317   4.678
 6142TIP3    H118383   2.419   5.268   4.631
 6142TIP3    H218384   2.375   5.409   4.666
 6143TIP3   OH218385   2.881   6.239   4.601
 6143TIP3    H118386   2.910   6.327   4.578
 6143TIP3    H218387   2.785   6.244   4.601
 6144TIP3   OH218388   5.988   6.321   1.863
 6144TIP3    H118389   6.003   6.415   1.868
 6144TIP3    H218390   5.958   6.306   1.774
 6145TIP3   OH218391   5.858   0.896   0.718
 6145TIP3    H118392   5.919   0.832   0.755
 6145TIP3    H218393   5.885   0.906   0.627
 6146TIP3   OH218394   5.754   5.667   4.744
 6146TIP3    H118395   5.692   5.697   4.811
 6146TIP3    H218396   5.705   5.674   4.662
 6147TIP3   OH218397   2.250   6.748   4.985
 6147TIP3    H118398   2.213   6.737   5.072
 6147TIP3    H218399   2.285   6.837   4.985
 6148TIP3   OH218400   4.031   3.378   2.245
 6148TIP3    H118401   4.103   3.371   2.183
 6148TIP3    H218402   4.054   3.453   2.300
 6149TIP3   OH218403   6.646   2.071   3.033
 6149TIP3    H118404   6.646   2.055   2.939
 6149TIP3    H218405   6.637   2.165   3.042
 6150TIP3   OH218406   8.281   4.898   1.486
 6150TIP3    H118407   8.266   4.899   1.392
 6150TIP3    H218408   8.212   4.842   1.522
 6151TIP3   OH218409   1.326   2.947   4.884
 6151TIP3    H118410   1.359   2.882   4.946
 6151TIP3    H218411   1.362   2.920   4.799
 6152TIP3   OH218412   0.518   5.311   1.379
 6152TIP3    H118413   0.489   5.236   1.431
 6152TIP3    H218414   0.438   5.345   1.338
 6153TIP3   OH218415   2.301   5.636   1.878
 6153TIP3    H118416   2.281   5.589   1.796
 6153TIP3    H218417   2.339   5.569   1.935
 6154TIP3   OH218418   3.436   0.324   1.031
 6154TIP3    H118419   3.506   0.297   0.971
 6154TIP3    H218420   3.400   0.404   0.992
 6155TIP3   OH218421   0.061   7.157   5.983
 6155TIP3    H118422   0.109   7.106   5.918
 6155TIP3    H218423   0.083   7.248   5.962
 6156TIP3   OH218424   5.377   1.785   5.810
 6156TIP3    H118425   5.329   1.830   5.879
 6156TIP3    H218426   5.308   1.751   5.752
 6157TIP3   OH218427   1.215   0.857   4.952
 6157TIP3    H118428   1.166   0.775   4.951
 6157TIP3    H218429   1.279   0.846   5.023
 6158TIP3   OH218430   5.448   7.407   6.074
 6158TIP3    H118431   5.517   7.407   6.009
 6158TIP3    H218432   5.434   7.500   6.094
 6159TIP3   OH218433   6.750   2.779   0.224
 6159TIP3    H118434   6.720   2.850   0.281
 6159TIP3    H218435   6.700   2.702   0.254
 6160TIP3   OH218436   0.665   2.740   2.842
 6160TIP3    H118437   0.597   2.709   2.902
 6160TIP3    H218438   0.688   2.664   2.789
 6161TIP3   OH218439   6.728   2.199   3.750
 6161TIP3    H118440   6.633   2.185   3.746
 6161TIP3    H218441   6.764   2.127   3.698
 6162TIP3   OH218442   3.957   4.467   2.336
 6162TIP3    H118443   3.942   4.376   2.359
 6162TIP3    H218444   3.889   4.515   2.383
 6163TIP3   OH218445   6.739   3.859   6.227
 6163TIP3    H118446   6.831   3.875   6.248
 6163TIP3    H218447   6.691   3.925   6.277
 6164TIP3   OH218448   3.578   2.132   1.225
 6164TIP3    H118449   3.640   2.060   1.209
 6164TIP3    H218450   3.623   2.188   1.289
 6165TIP3   OH218451   0.198   4.006   3.792
 6165TIP3    H118452   0.178   3.991   3.884
 6165TIP3    H218453   0.285   4.046   3.792
 6166TIP3   OH218454   3.117   0.126   4.376
 6166TIP3    H118455   3.168   0.197   4.416
 6166TIP3    H218456   3.067   0.170   4.307
 6167TIP3   OH218457   6.630   6.563   0.880
 6167TIP3    H118458   6.602   6.654   0.884
 6167TIP3    H218459   6.613   6.528   0.967
 6168TIP3   OH218460   2.278   0.765   6.399
 6168TIP3    H118461   2.368   0.790   6.421
 6168TIP3    H218462   2.247   0.835   6.342
 6169TIP3   OH218463   6.762   2.674   3.006
 6169TIP3    H118464   6.713   2.681   3.087
 6169TIP3    H218465   6.703   2.709   2.939
 6170TIP3   OH218466   4.444   3.855   0.470
 6170TIP3    H118467   4.533   3.828   0.444
 6170TIP3    H218468   4.426   3.933   0.418
 6171TIP3   OH218469   2.074   4.726   4.030
 6171TIP3    H118470   2.041   4.730   3.940
 6171TIP3    H218471   2.008   4.674   4.077
 6172TIP3   OH218472   3.564   4.707   5.758
 6172TIP3    H118473   3.609   4.634   5.800
 6172TIP3    H218474   3.585   4.783   5.812
 6173TIP3   OH218475   5.670   6.170   1.161
 6173TIP3    H118476   5.742   6.232   1.153
 6173TIP3    H218477   5.709   6.085   1.140
 6174TIP3   OH218478   3.597   1.598   6.355
 6174TIP3    H118479   3.516   1.583   6.404
 6174TIP3    H218480   3.569   1.605   6.264
 6175TIP3   OH218481   3.474   4.472   3.219
 6175TIP3    H118482   3.410   4.542   3.207
 6175TIP3    H218483   3.526   4.499   3.295
 6176TIP3   OH218484   0.410   2.880   5.215
 6176TIP3    H118485   0.326   2.889   5.260
 6176TIP3    H218486   0.456   2.962   5.231
 6177TIP3   OH218487   5.010   4.015   2.298
 6177TIP3    H118488   5.033   3.933   2.253
 6177TIP3    H218489   4.948   3.988   2.366
 6178TIP3   OH218490   7.859   7.776   6.260
 6178TIP3    H118491   7.902   7.739   6.182
 6178TIP3    H218492   7.915   7.851   6.283
 6179TIP3   OH218493   3.248   1.585   2.708
 6179TIP3    H118494   3.219   1.592   2.799
 6179TIP3    H218495   3.178   1.627   2.658
 6180TIP3   OH218496   2.113   1.715   6.594
 6180TIP3    H118497   2.059   1.655   6.645
 6180TIP3    H218498   2.198   1.672   6.589
 6181TIP3   OH218499   0.640   2.576   1.838
 6181TIP3    H118500   0.721   2.535   1.868
 6181TIP3    H218501   0.656   2.670   1.845
 6182TIP3   OH218502   1.227   3.917   0.346
 6182TIP3    H118503   1.285   3.908   0.271
 6182TIP3    H218504   1.157   3.974   0.315
 6183TIP3   OH218505   3.254   3.288   0.683
 6183TIP3    H118506   3.192   3.245   0.624
 6183TIP3    H218507   3.216   3.374   0.699
 6184TIP3   OH218508   5.440   4.006   3.549
 6184TIP3    H118509   5.358   3.986   3.504
 6184TIP3    H218510   5.457   3.928   3.602
 6185TIP3   OH218511   8.240   6.297   0.140
 6185TIP3    H118512   8.199   6.370   0.187
 6185TIP3    H218513   8.325   6.332   0.112
 6186TIP3   OH218514   4.984   1.355   5.680
 6186TIP3    H118515   4.941   1.417   5.621
 6186TIP3    H218516   5.024   1.409   5.747
 6187TIP3   OH218517   5.845   2.277   5.773
 6187TIP3    H118518   5.866   2.368   5.752
 6187TIP3    H218519   5.766   2.259   5.722
 6188TIP3   OH218520   0.866   1.255  -0.003
 6188TIP3    H118521   0.957   1.256   0.027
 6188TIP3    H218522   0.818   1.213   0.067
 6189TIP3   OH218523   5.682   7.607   4.051
 6189TIP3    H118524   5.738   7.614   3.973
 6189TIP3    H218525   5.607   7.663   4.031
 6190TIP3   OH218526   4.690   0.196   3.453
 6190TIP3    H118527   4.722   0.195   3.363
 6190TIP3    H218528   4.708   0.108   3.486
 6191TIP3   OH218529   1.727   0.860   4.671
 6191TIP3    H118530   1.667   0.819   4.608
 6191TIP3    H218531   1.812   0.856   4.629
 6192TIP3   OH218532   1.460   1.488   1.010
 6192TIP3    H118533   1.476   1.395   0.992
 6192TIP3    H218534   1.365   1.497   1.002
 6193TIP3   OH218535   0.696   6.944   0.312
 6193TIP3    H118536   0.777   6.934   0.363
 6193TIP3    H218537   0.717   6.903   0.228
 6194TIP3   OH218538   5.477   4.220   4.041
 6194TIP3    H118539   5.504   4.171   4.119
 6194TIP3    H218540   5.389   4.189   4.022
 6195TIP3   OH218541   5.380   2.570   3.795
 6195TIP3    H118542   5.464   2.584   3.839
 6195TIP3    H218543   5.350   2.658   3.774
 6196TIP3   OH218544   2.449   7.288   2.366
 6196TIP3    H118545   2.517   7.229   2.397
 6196TIP3    H218546   2.449   7.277   2.271
 6197TIP3   OH218547   7.230   0.795   2.830
 6197TIP3    H118548   7.163   0.812   2.763
 6197TIP3    H218549   7.202   0.713   2.871
 6198TIP3   OH218550   3.937   0.715   0.772
 6198TIP3    H118551   3.974   0.802   0.785
 6198TIP3    H218552   3.914   0.686   0.861
 6199TIP3   OH218553   3.981   4.097   5.177
 6199TIP3    H118554   4.009   4.061   5.093
 6199TIP3    H218555   3.918   4.165   5.153
 6200TIP3   OH218556   2.020   1.174   6.577
 6200TIP3    H118557   1.998   1.244   6.516
 6200TIP3    H218558   1.936   1.141   6.607
 6201TIP3   OH218559   5.704   2.201   4.295
 6201TIP3    H118560   5.742   2.135   4.353
 6201TIP3    H218561   5.777   2.229   4.239
 6202TIP3   OH218562   6.737   5.005   5.747
 6202TIP3    H118563   6.684   5.062   5.803
 6202TIP3    H218564   6.675   4.973   5.681
 6203TIP3   OH218565   2.198   1.970   2.561
 6203TIP3    H118566   2.257   1.992   2.634
 6203TIP3    H218567   2.243   2.003   2.483
 6204TIP3   OH218568   5.499   7.146   1.695
 6204TIP3    H118569   5.483   7.220   1.636
 6204TIP3    H218570   5.524   7.187   1.778
 6205TIP3   OH218571   5.966   2.760   1.585
 6205TIP3    H118572   5.971   2.824   1.657
 6205TIP3    H218573   5.887   2.710   1.604
 6206TIP3   OH218574   1.142   2.490   3.283
 6206TIP3    H118575   1.127   2.435   3.359
 6206TIP3    H218576   1.055   2.520   3.257
 6207TIP3   OH218577   3.311   3.810   5.231
 6207TIP3    H118578   3.295   3.725   5.273
 6207TIP3    H218579   3.367   3.857   5.293
 6208TIP3   OH218580   1.906   4.584   4.223
 6208TIP3    H118581   1.823   4.582   4.176
 6208TIP3    H218582   1.889   4.639   4.299
 6209TIP3   OH218583   5.312   2.344   0.554
 6209TIP3    H118584   5.349   2.288   0.623
 6209TIP3    H218585   5.219   2.347   0.573
 6210TIP3   OH218586   7.252   5.321   4.787
 6210TIP3    H118587   7.224   5.246   4.839
 6210TIP3    H218588   7.335   5.293   4.748
 6211TIP3   OH218589   8.107   7.429   4.646
 6211TIP3    H118590   8.104   7.524   4.637
 6211TIP3    H218591   8.162   7.399   4.573
 6212TIP3   OH218592   7.576   3.940   3.667
 6212TIP3    H118593   7.623   4.000   3.725
 6212TIP3    H218594   7.496   3.917   3.714
 6213TIP3   OH218595   1.140   1.626   1.615
 6213TIP3    H118596   1.126   1.669   1.531
 6213TIP3    H218597   1.213   1.673   1.655
 6214TIP3   OH218598   5.354   3.055   0.462
 6214TIP3    H118599   5.420   3.097   0.407
 6214TIP3    H218600   5.403   2.994   0.518
 6215TIP3   OH218601   3.661   5.734   5.231
 6215TIP3    H118602   3.620   5.818   5.246
 6215TIP3    H218603   3.641   5.713   5.140
 6216TIP3   OH218604   0.445   7.675   4.091
 6216TIP3    H118605   0.445   7.753   4.036
 6216TIP3    H218606   0.494   7.610   4.041
 6217TIP3   OH218607   5.550   6.408   5.555
 6217TIP3    H118608   5.524   6.479   5.613
 6217TIP3    H218609   5.592   6.452   5.481
 6218TIP3   OH218610   5.574   7.769   6.143
 6218TIP3    H118611   5.604   7.741   6.230
 6218TIP3    H218612   5.611   7.857   6.132
 6219TIP3   OH218613   1.809   5.844   5.367
 6219TIP3    H118614   1.858   5.914   5.410
 6219TIP3    H218615   1.718   5.856   5.396
 6220TIP3   OH218616   0.987   0.853   0.218
 6220TIP3    H118617   1.023   0.772   0.253
 6220TIP3    H218618   1.044   0.922   0.252
 6221TIP3   OH218619   2.425   1.965   1.990
 6221TIP3    H118620   2.350   1.948   1.933
 6221TIP3    H218621   2.407   2.052   2.027
 6222TIP3   OH218622   3.979   1.024   2.180
 6222TIP3    H118623   3.895   1.069   2.167
 6222TIP3    H218624   3.973   0.988   2.268
 6223TIP3   OH218625   1.617   1.653   2.463
 6223TIP3    H118626   1.619   1.643   2.558
 6223TIP3    H218627   1.645   1.567   2.429
 6224TIP3   OH218628   6.051   4.202   4.154
 6224TIP3    H118629   6.141   4.233   4.146
 6224TIP3    H218630   5.998   4.281   4.144
 6225TIP3   OH218631   3.701   2.082   2.759
 6225TIP3    H118632   3.742   2.034   2.830
 6225TIP3    H218633   3.678   2.167   2.796
 6226TIP3   OH218634   7.342   0.956   1.201
 6226TIP3    H118635   7.413   0.926   1.258
 6226TIP3    H218636   7.264   0.914   1.236
 6227TIP3   OH218637   7.982   4.220   0.662
 6227TIP3    H118638   7.909   4.207   0.722
 6227TIP3    H218639   8.059   4.189   0.709
 6228TIP3   OH218640   2.431   6.618   6.091
 6228TIP3    H118641   2.428   6.591   6.000
 6228TIP3    H218642   2.365   6.687   6.098
 6229TIP3   OH218643   0.420   6.637   2.109
 6229TIP3    H118644   0.352   6.590   2.157
 6229TIP3    H218645   0.375   6.673   2.033
 6230TIP3   OH218646   7.246   7.015   2.883
 6230TIP3    H118647   7.303   6.961   2.938
 6230TIP3    H218648   7.225   6.960   2.808
 6231TIP3   OH218649   2.965   5.464   5.740
 6231TIP3    H118650   3.022   5.507   5.677
 6231TIP3    H218651   2.909   5.534   5.774
 6232TIP3   OH218652   2.749   5.989   6.593
 6232TIP3    H118653   2.829   6.039   6.576
 6232TIP3    H218654   2.764   5.947   6.678
 6233TIP3   OH218655   6.194   0.619   6.670
 6233TIP3    H118656   6.161   0.692   6.617
 6233TIP3    H218657   6.142   0.623   6.751
 6234TIP3   OH218658   8.052   5.614   3.377
 6234TIP3    H118659   8.076   5.529   3.416
 6234TIP3    H218660   8.135   5.659   3.366
 6235TIP3   OH218661   0.357   6.399   1.031
 6235TIP3    H118662   0.394   6.326   0.982
 6235TIP3    H218663   0.393   6.391   1.119
 6236TIP3   OH218664   7.695   2.778   5.325
 6236TIP3    H118665   7.630   2.825   5.377
 6236TIP3    H218666   7.709   2.833   5.249
 6237TIP3   OH218667   8.025   7.109   2.700
 6237TIP3    H118668   7.999   7.131   2.611
 6237TIP3    H218669   7.950   7.059   2.735
 6238TIP3   OH218670   6.827   0.332   3.499
 6238TIP3    H118671   6.787   0.353   3.583
 6238TIP3    H218672   6.773   0.377   3.434
 6239TIP3   OH218673   5.174   6.144   4.722
 6239TIP3    H118674   5.239   6.100   4.777
 6239TIP3    H218675   5.110   6.077   4.702
 6240TIP3   OH218676   5.207   6.035   3.165
 6240TIP3    H118677   5.227   6.061   3.074
 6240TIP3    H218678   5.112   6.026   3.167
 6241TIP3   OH218679   7.380   7.301   1.491
 6241TIP3    H118680   7.462   7.281   1.446
 6241TIP3    H218681   7.338   7.368   1.437
 6242TIP3   OH218682   7.231   4.529   6.166
 6242TIP3    H118683   7.311   4.518   6.114
 6242TIP3    H218684   7.241   4.468   6.239
 6243TIP3   OH218685   0.083   1.143   1.164
 6243TIP3    H118686   0.061   1.184   1.248
 6243TIP3    H218687   0.024   1.068   1.158
 6244TIP3   OH218688   2.840   3.809   5.265
 6244TIP3    H118689   2.802   3.786   5.180
 6244TIP3    H218690   2.764   3.827   5.321
 6245TIP3   OH218691   6.131   6.231   6.455
 6245TIP3    H118692   6.209   6.175   6.451
 6245TIP3    H218693   6.140   6.279   6.537
 6246TIP3   OH218694   4.178   0.521   3.163
 6246TIP3    H118695   4.231   0.600   3.175
 6246TIP3    H218696   4.169   0.512   3.068
 6247TIP3   OH218697   5.597   1.629   3.164
 6247TIP3    H118698   5.537   1.648   3.091
 6247TIP3    H218699   5.579   1.697   3.228
 6248TIP3   OH218700   5.141   6.386   6.407
 6248TIP3    H118701   5.125   6.475   6.377
 6248TIP3    H218702   5.201   6.395   6.481
 6249TIP3   OH218703   3.871   6.118   4.349
 6249TIP3    H118704   3.803   6.181   4.328
 6249TIP3    H218705   3.861   6.102   4.443
 6250TIP3   OH218706   0.564   0.729   5.457
 6250TIP3    H118707   0.649   0.690   5.435
 6250TIP3    H218708   0.585   0.815   5.492
 6251TIP3   OH218709   6.795   7.720   0.889
 6251TIP3    H118710   6.770   7.628   0.877
 6251TIP3    H218711   6.730   7.769   0.839
 6252TIP3   OH218712   1.226   3.717   4.421
 6252TIP3    H118713   1.269   3.793   4.383
 6252TIP3    H218714   1.253   3.717   4.513
 6253TIP3   OH218715   8.027   1.668   6.557
 6253TIP3    H118716   7.988   1.754   6.567
 6253TIP3    H218717   8.109   1.684   6.510
 6254TIP3   OH218718   2.591   5.271   5.838
 6254TIP3    H118719   2.674   5.238   5.873
 6254TIP3    H218720   2.602   5.267   5.743
 6255TIP3   OH218721   7.504   2.342   6.742
 6255TIP3    H118722   7.413   2.330   6.768
 6255TIP3    H218723   7.546   2.379   6.819
 6256TIP3   OH218724   7.787   0.117   2.883
 6256TIP3    H118725   7.818   0.034   2.920
 6256TIP3    H218726   7.783   0.177   2.958
 6257TIP3   OH218727   6.011   2.354   1.047
 6257TIP3    H118728   6.016   2.405   1.128
 6257TIP3    H218729   6.099   2.319   1.034
 6258TIP3   OH218730   7.771   3.686   1.183
 6258TIP3    H118731   7.719   3.685   1.263
 6258TIP3    H218732   7.834   3.757   1.196
 6259TIP3   OH218733   4.041   0.711   1.736
 6259TIP3    H118734   3.975   0.757   1.788
 6259TIP3    H218735   4.125   0.741   1.772
 6260TIP3   OH218736   3.907   6.456   3.026
 6260TIP3    H118737   3.913   6.549   3.049
 6260TIP3    H218738   3.883   6.456   2.934
 6261TIP3   OH218739   3.155   2.570   5.362
 6261TIP3    H118740   3.138   2.637   5.296
 6261TIP3    H218741   3.124   2.610   5.444
 6262TIP3   OH218742   6.841   4.905   6.752
 6262TIP3    H118743   6.934   4.919   6.736
 6262TIP3    H218744   6.836   4.819   6.794
 6263TIP3   OH218745   5.187   7.426   6.263
 6263TIP3    H118746   5.259   7.490   6.263
 6263TIP3    H218747   5.113   7.473   6.301
 6264TIP3   OH218748   3.632   0.155   5.507
 6264TIP3    H118749   3.577   0.101   5.564
 6264TIP3    H218750   3.601   0.245   5.522
 6265TIP3   OH218751   6.587   4.591   2.741
 6265TIP3    H118752   6.543   4.668   2.706
 6265TIP3    H218753   6.569   4.522   2.677
 6266TIP3   OH218754   7.396   4.985   4.139
 6266TIP3    H118755   7.316   5.015   4.096
 6266TIP3    H218756   7.399   4.891   4.121
 6267TIP3   OH218757   0.041   1.345   4.135
 6267TIP3    H118758   0.088   1.270   4.171
 6267TIP3    H218759  -0.051   1.317   4.135
 6268TIP3   OH218760   0.188   2.646   0.186
 6268TIP3    H118761   0.144   2.682   0.109
 6268TIP3    H218762   0.194   2.720   0.246
 6269TIP3   OH218763   5.305   2.484   6.438
 6269TIP3    H118764   5.235   2.514   6.495
 6269TIP3    H218765   5.385   2.516   6.479
 6270TIP3   OH218766   7.308   0.554   0.641
 6270TIP3    H118767   7.291   0.648   0.648
 6270TIP3    H218768   7.314   0.524   0.732
 6271TIP3   OH218769   7.826   5.647   0.479
 6271TIP3    H118770   7.776   5.725   0.506
 6271TIP3    H218771   7.912   5.659   0.519
 6272TIP3   OH218772   7.070   1.608   4.199
 6272TIP3    H118773   7.142   1.639   4.144
 6272TIP3    H218774   6.993   1.654   4.166
 6273TIP3   OH218775   5.262   2.590   4.870
 6273TIP3    H118776   5.332   2.651   4.846
 6273TIP3    H218777   5.205   2.588   4.793
 6274TIP3   OH218778   1.080   0.843   6.698
 6274TIP3    H118779   1.016   0.793   6.749
 6274TIP3    H218780   1.048   0.934   6.704
 6275TIP3   OH218781   2.898   4.483   2.564
 6275TIP3    H118782   2.937   4.472   2.651
 6275TIP3    H218783   2.815   4.528   2.581
 6276TIP3   OH218784   4.820   5.153   6.205
 6276TIP3    H118785   4.814   5.085   6.137
 6276TIP3    H218786   4.800   5.234   6.160
 6277TIP3   OH218787   5.377   3.739   3.653
 6277TIP3    H118788   5.290   3.755   3.688
 6277TIP3    H218789   5.364   3.675   3.583
 6278TIP3   OH218790   5.895   3.505   3.989
 6278TIP3    H118791   5.959   3.443   4.024
 6278TIP3    H218792   5.811   3.460   3.997
 6279TIP3   OH218793   1.781   0.903   5.999
 6279TIP3    H118794   1.781   0.996   6.022
 6279TIP3    H218795   1.822   0.859   6.074
 6280TIP3   OH218796   7.887   7.793   6.688
 6280TIP3    H118797   7.800   7.814   6.655
 6280TIP3    H218798   7.871   7.738   6.765
 6281TIP3   OH218799   5.529   5.810   1.433
 6281TIP3    H118800   5.580   5.890   1.447
 6281TIP3    H218801   5.489   5.823   1.346
 6282TIP3   OH218802   0.949   7.386   0.338
 6282TIP3    H118803   0.933   7.408   0.429
 6282TIP3    H218804   0.893   7.309   0.322
 6283TIP3   OH218805   7.291   5.277   1.635
 6283TIP3    H118806   7.357   5.249   1.699
 6283TIP3    H218807   7.208   5.270   1.682
 6284TIP3   OH218808   0.727   1.369   6.029
 6284TIP3    H118809   0.700   1.397   5.942
 6284TIP3    H218810   0.665   1.300   6.053
 6285TIP3   OH218811   5.173   5.602   2.811
 6285TIP3    H118812   5.218   5.638   2.735
 6285TIP3    H218813   5.200   5.510   2.814
 6286TIP3   OH218814   0.248   1.776   5.757
 6286TIP3    H118815   0.227   1.866   5.734
 6286TIP3    H218816   0.332   1.759   5.715
 6287TIP3   OH218817   7.498   5.166   5.721
 6287TIP3    H118818   7.563   5.105   5.756
 6287TIP3    H218819   7.417   5.143   5.767
 6288TIP3   OH218820   6.120   6.385   1.161
 6288TIP3    H118821   6.186   6.453   1.174
 6288TIP3    H218822   6.165   6.317   1.112
 6289TIP3   OH218823   5.562   2.213   0.994
 6289TIP3    H118824   5.507   2.266   1.052
 6289TIP3    H218825   5.644   2.262   0.986
 6290TIP3   OH218826   0.531   1.509   4.596
 6290TIP3    H118827   0.603   1.448   4.613
 6290TIP3    H218828   0.467   1.457   4.549
 6291TIP3   OH218829   5.548   5.297   4.435
 6291TIP3    H118830   5.539   5.379   4.387
 6291TIP3    H218831   5.458   5.268   4.450
 6292TIP3   OH218832   5.576   1.417   0.322
 6292TIP3    H118833   5.591   1.323   0.329
 6292TIP3    H218834   5.495   1.424   0.271
 6293TIP3   OH218835   2.139   6.473   2.321
 6293TIP3    H118836   2.136   6.410   2.393
 6293TIP3    H218837   2.216   6.527   2.339
 6294TIP3   OH218838   4.561   3.006   3.351
 6294TIP3    H118839   4.600   3.064   3.416
 6294TIP3    H218840   4.614   2.926   3.356
 6295TIP3   OH218841   0.285   3.129   2.278
 6295TIP3    H118842   0.214   3.150   2.339
 6295TIP3    H218843   0.362   3.115   2.333
 6296TIP3   OH218844   0.871   5.130   0.439
 6296TIP3    H118845   0.818   5.210   0.434
 6296TIP3    H218846   0.942   5.144   0.377
 6297TIP3   OH218847   5.553   7.647   2.263
 6297TIP3    H118848   5.618   7.713   2.237
 6297TIP3    H218849   5.476   7.698   2.289
 6298TIP3   OH218850   4.125   4.743   1.057
 6298TIP3    H118851   4.075   4.662   1.058
 6298TIP3    H218852   4.093   4.792   1.133
 6299TIP3   OH218853   6.089   1.384   1.831
 6299TIP3    H118854   6.019   1.318   1.829
 6299TIP3    H218855   6.146   1.359   1.757
 6300TIP3   OH218856   7.970   2.010   4.628
 6300TIP3    H118857   7.952   1.940   4.691
 6300TIP3    H218858   7.954   2.091   4.677
 6301TIP3   OH218859   8.218   5.321   0.558
 6301TIP3    H118860   8.131   5.360   0.547
 6301TIP3    H218861   8.201   5.227   0.560
 6302TIP3   OH218862   2.104   4.658   1.888
 6302TIP3    H118863   2.162   4.627   1.958
 6302TIP3    H218864   2.017   4.657   1.927
 6303TIP3   OH218865   4.063   6.859   1.263
 6303TIP3    H118866   4.133   6.912   1.299
 6303TIP3    H218867   4.016   6.917   1.203
 6304TIP3   OH218868   2.805   3.753   1.492
 6304TIP3    H118869   2.782   3.823   1.431
 6304TIP3    H218870   2.723   3.707   1.508
 6305TIP3   OH218871   7.360   6.074   6.600
 6305TIP3    H118872   7.312   6.081   6.518
 6305TIP3    H218873   7.414   6.153   6.602
 6306TIP3   OH218874   5.961   2.350   3.936
 6306TIP3    H118875   5.939   2.443   3.941
 6306TIP3    H218876   5.959   2.329   3.842
 6307TIP3   OH218877   4.755   7.280   3.041
 6307TIP3    H118878   4.705   7.349   3.083
 6307TIP3    H218879   4.821   7.255   3.106
 6308TIP3   OH218880   1.400   0.342   4.330
 6308TIP3    H118881   1.323   0.399   4.323
 6308TIP3    H218882   1.372   0.260   4.290
 6309TIP3   OH218883   3.549   5.991   0.267
 6309TIP3    H118884   3.522   6.082   0.253
 6309TIP3    H218885   3.617   5.975   0.201
 6310TIP3   OH218886   0.674   5.743   0.921
 6310TIP3    H118887   0.730   5.818   0.898
 6310TIP3    H218888   0.715   5.706   0.999
 6311TIP3   OH218889   1.892   3.657   4.506
 6311TIP3    H118890   1.888   3.674   4.412
 6311TIP3    H218891   1.958   3.717   4.538
 6312TIP3   OH218892   4.880   1.850   4.679
 6312TIP3    H118893   4.888   1.755   4.671
 6312TIP3    H218894   4.945   1.885   4.619
 6313TIP3   OH218895   3.129   0.742   3.595
 6313TIP3    H118896   3.167   0.698   3.671
 6313TIP3    H218897   3.179   0.709   3.521
 6314TIP3   OH218898   6.072   1.348   1.054
 6314TIP3    H118899   6.125   1.416   1.097
 6314TIP3    H218900   6.042   1.293   1.126
 6315TIP3   OH218901   2.567   4.681   4.409
 6315TIP3    H118902   2.585   4.723   4.325
 6315TIP3    H218903   2.604   4.593   4.401
 6316TIP3   OH218904   6.491   4.755   4.952
 6316TIP3    H118905   6.552   4.697   4.907
 6316TIP3    H218906   6.509   4.742   5.045
 6317TIP3   OH218907   0.434   4.972   4.241
 6317TIP3    H118908   0.448   5.058   4.281
 6317TIP3    H218909   0.496   4.915   4.286
 6318TIP3   OH218910   6.286   7.503   1.311
 6318TIP3    H118911   6.230   7.447   1.364
 6318TIP3    H218912   6.363   7.520   1.367
 6319TIP3   OH218913   4.180   2.833   6.131
 6319TIP3    H118914   4.121   2.792   6.068
 6319TIP3    H218915   4.264   2.787   6.119
 6320TIP3   OH218916   0.938   3.742   2.000
 6320TIP3    H118917   0.872   3.721   1.934
 6320TIP3    H218918   0.982   3.820   1.967
 6321TIP3   OH218919   2.830   5.055   3.153
 6321TIP3    H118920   2.789   5.140   3.171
 6321TIP3    H218921   2.765   5.009   3.100
 6322TIP3   OH218922   6.292   3.846   6.455
 6322TIP3    H118923   6.283   3.917   6.391
 6322TIP3    H218924   6.251   3.770   6.413
 6323TIP3   OH218925   6.111   2.453   1.616
 6323TIP3    H118926   6.146   2.381   1.669
 6323TIP3    H218927   6.050   2.411   1.555
 6324TIP3   OH218928   1.445   2.207   6.134
 6324TIP3    H118929   1.412   2.126   6.174
 6324TIP3    H218930   1.520   2.231   6.188
 6325TIP3   OH218931   0.057   2.670   6.735
 6325TIP3    H118932   0.126   2.726   6.770
 6325TIP3    H218933  -0.005   2.730   6.694
 6326TIP3   OH218934   1.182   1.289   5.730
 6326TIP3    H118935   1.194   1.382   5.751
 6326TIP3    H218936   1.182   1.286   5.635
 6327TIP3   OH218937   5.734   5.824   5.694
 6327TIP3    H118938   5.667   5.760   5.671
 6327TIP3    H218939   5.699   5.867   5.773
 6328TIP3   OH218940   2.747   7.666   5.106
 6328TIP3    H118941   2.749   7.617   5.024
 6328TIP3    H218942   2.812   7.735   5.094
 6329TIP3   OH218943   3.714   6.607   1.980
 6329TIP3    H118944   3.742   6.698   1.972
 6329TIP3    H218945   3.630   6.603   1.934
 6330TIP3   OH218946   5.598   7.300   4.308
 6330TIP3    H118947   5.559   7.213   4.296
 6330TIP3    H218948   5.640   7.296   4.394
 6331TIP3   OH218949   2.577   2.649   5.096
 6331TIP3    H118950   2.525   2.702   5.036
 6331TIP3    H218951   2.544   2.672   5.183
 6332TIP3   OH218952   2.409   2.432   0.205
 6332TIP3    H118953   2.496   2.470   0.218
 6332TIP3    H218954   2.411   2.350   0.255
 6333TIP3   OH218955   7.865   5.837   4.913
 6333TIP3    H118956   7.948   5.873   4.944
 6333TIP3    H218957   7.838   5.777   4.982
 6334TIP3   OH218958   6.402   7.152   3.840
 6334TIP3    H118959   6.350   7.146   3.921
 6334TIP3    H218960   6.393   7.243   3.813
 6335TIP3   OH218961   3.731   6.142   6.279
 6335TIP3    H118962   3.794   6.207   6.248
 6335TIP3    H218963   3.690   6.108   6.200
 6336TIP3   OH218964   0.329   1.275   3.599
 6336TIP3    H118965   0.333   1.201   3.539
 6336TIP3    H218966   0.255   1.327   3.569
 6337TIP3   OH218967   3.540   3.885   2.485
 6337TIP3    H118968   3.547   3.959   2.546
 6337TIP3    H218969   3.489   3.919   2.412
 6338TIP3   OH218970   3.002   2.562   0.859
 6338TIP3    H118971   3.022   2.487   0.914
 6338TIP3    H218972   2.917   2.542   0.820
 6339TIP3   OH218973   0.624   1.016   2.628
 6339TIP3    H118974   0.652   1.042   2.716
 6339TIP3    H218975   0.699   1.036   2.572
 6340TIP3   OH218976   0.086   2.475   1.048
 6340TIP3    H118977   0.016   2.516   1.099
 6340TIP3    H218978   0.152   2.544   1.038
 6341TIP3   OH218979   4.500   2.676   3.431
 6341TIP3    H118980   4.577   2.695   3.378
 6341TIP3    H218981   4.531   2.618   3.500
 6342TIP3   OH218982   2.343   3.812   2.344
 6342TIP3    H118983   2.437   3.794   2.345
 6342TIP3    H218984   2.336   3.906   2.357
 6343TIP3   OH218985   5.722   5.283   5.053
 6343TIP3    H118986   5.670   5.322   5.124
 6343TIP3    H218987   5.713   5.345   4.981
 6344TIP3   OH218988   6.196   4.857   3.970
 6344TIP3    H118989   6.167   4.789   4.031
 6344TIP3    H218990   6.268   4.901   4.017
 6345TIP3   OH218991   3.954   7.547   3.383
 6345TIP3    H118992   3.926   7.531   3.473
 6345TIP3    H218993   3.873   7.561   3.334
 6346TIP3   OH218994   4.394   4.725   1.306
 6346TIP3    H118995   4.389   4.791   1.236
 6346TIP3    H218996   4.374   4.774   1.386
 6347TIP3   OH218997   7.333   7.135   6.586
 6347TIP3    H118998   7.367   7.135   6.675
 6347TIP3    H218999   7.411   7.139   6.530
 6348TIP3   OH219000   2.102   0.384   4.160
 6348TIP3    H119001   2.141   0.304   4.126
 6348TIP3    H219002   2.176   0.432   4.198
 6349TIP3   OH219003   0.014   0.970   2.383
 6349TIP3    H119004   0.063   0.979   2.301
 6349TIP3    H219005  -0.077   0.985   2.359
 6350TIP3   OH219006   6.376   5.066   6.596
 6350TIP3    H119007   6.367   5.148   6.547
 6350TIP3    H219008   6.466   5.038   6.580
 6351TIP3   OH219009   2.877   4.982   5.918
 6351TIP3    H119010   2.848   4.967   6.008
 6351TIP3    H219011   2.852   5.072   5.899
 6352TIP3   OH219012   0.905   7.104   6.009
 6352TIP3    H119013   0.847   7.138   5.941
 6352TIP3    H219014   0.860   7.125   6.091
 6353TIP3   OH219015   1.437   5.484   4.949
 6353TIP3    H119016   1.486   5.527   4.880
 6353TIP3    H219017   1.504   5.455   5.012
 6354TIP3   OH219018   2.343   5.168   1.391
 6354TIP3    H119019   2.304   5.245   1.433
 6354TIP3    H219020   2.411   5.203   1.334
 6355TIP3   OH219021   5.376   5.243   1.274
 6355TIP3    H119022   5.469   5.229   1.293
 6355TIP3    H219023   5.374   5.320   1.218
 6356TIP3   OH219024   4.834   2.399   4.347
 6356TIP3    H119025   4.750   2.412   4.391
 6356TIP3    H219026   4.888   2.474   4.374
 6357TIP3   OH219027   0.659   0.733   6.387
 6357TIP3    H119028   0.600   0.657   6.385
 6357TIP3    H219029   0.745   0.697   6.366
 6358TIP3   OH219030   7.506   6.156   4.958
 6358TIP3    H119031   7.436   6.213   4.928
 6358TIP3    H219032   7.472   6.068   4.946
 6359TIP3   OH219033   4.290   6.092   4.779
 6359TIP3    H119034   4.370   6.109   4.830
 6359TIP3    H219035   4.239   6.172   4.787
 6360TIP3   OH219036   5.397   5.036   4.812
 6360TIP3    H119037   5.325   5.099   4.801
 6360TIP3    H219038   5.464   5.066   4.751
 6361TIP3   OH219039   7.410   6.446   4.646
 6361TIP3    H119040   7.489   6.500   4.635
 6361TIP3    H219041   7.439   6.357   4.624
 6362TIP3   OH219042   2.755   7.382   0.988
 6362TIP3    H119043   2.744   7.320   0.915
 6362TIP3    H219044   2.733   7.331   1.066
 6363TIP3   OH219045   4.982   4.997   4.236
 6363TIP3    H119046   4.906   4.945   4.211
 6363TIP3    H219047   4.955   5.044   4.315
 6364TIP3   OH219048   8.196   0.096   0.112
 6364TIP3    H119049   8.201   0.172   0.169
 6364TIP3    H219050   8.133   0.122   0.044
 6365TIP3   OH219051   7.098   3.419   0.655
 6365TIP3    H119052   7.098   3.507   0.618
 6365TIP3    H219053   7.115   3.361   0.581
 6366TIP3   OH219054   1.131   2.459   3.955
 6366TIP3    H119055   1.099   2.474   3.866
 6366TIP3    H219056   1.085   2.381   3.985
 6367TIP3   OH219057   5.426   3.808   2.513
 6367TIP3    H119058   5.449   3.834   2.603
 6367TIP3    H219059   5.385   3.722   2.523
 6368TIP3   OH219060   5.366   7.564   1.117
 6368TIP3    H119061   5.459   7.563   1.094
 6368TIP3    H219062   5.362   7.613   1.199
 6369TIP3   OH219063   8.161   5.461   2.914
 6369TIP3    H119064   8.208   5.396   2.966
 6369TIP3    H219065   8.172   5.543   2.963
 6370TIP3   OH219066   7.829   5.206   3.587
 6370TIP3    H119067   7.915   5.165   3.586
 6370TIP3    H219068   7.838   5.281   3.646
 6371TIP3   OH219069   3.006   5.048   6.757
 6371TIP3    H119070   3.062   5.098   6.698
 6371TIP3    H219071   3.009   5.096   6.840
 6372TIP3   OH219072   0.048   6.890   3.867
 6372TIP3    H119073   0.026   6.893   3.774
 6372TIP3    H219074  -0.035   6.869   3.910
 6373TIP3   OH219075   0.483   4.339   4.792
 6373TIP3    H119076   0.544   4.399   4.836
 6373TIP3    H219077   0.424   4.397   4.744
 6374TIP3   OH219078   3.418   2.886   3.257
 6374TIP3    H119079   3.430   2.860   3.349
 6374TIP3    H219080   3.358   2.961   3.261
 6375TIP3   OH219081   4.785   2.243   3.184
 6375TIP3    H119082   4.880   2.243   3.170
 6375TIP3    H219083   4.768   2.162   3.232
 6376TIP3   OH219084   0.280   1.280   0.214
 6376TIP3    H119085   0.349   1.256   0.275
 6376TIP3    H219086   0.270   1.375   0.224
 6377TIP3   OH219087   3.520   6.773   4.024
 6377TIP3    H119088   3.587   6.784   4.092
 6377TIP3    H219089   3.569   6.740   3.948
 6378TIP3   OH219090   3.640   1.864   6.147
 6378TIP3    H119091   3.700   1.938   6.134
 6378TIP3    H219092   3.660   1.804   6.075
 6379TIP3   OH219093   4.999   2.227   2.066
 6379TIP3    H119094   4.928   2.166   2.047
 6379TIP3    H219095   5.041   2.242   1.981
 6380TIP3   OH219096   7.093   1.165   3.407
 6380TIP3    H119097   7.178   1.139   3.443
 6380TIP3    H219098   7.103   1.258   3.386
 6381TIP3   OH219099   7.498   6.169   0.078
 6381TIP3    H119100   7.448   6.090   0.057
 6381TIP3    H219101   7.460   6.237   0.022
 6382TIP3   OH219102   0.561   2.969   3.316
 6382TIP3    H119103   0.498   2.915   3.365
 6382TIP3    H219104   0.641   2.965   3.367
 6383TIP3   OH219105   1.311   2.987   0.794
 6383TIP3    H119106   1.269   3.053   0.738
 6383TIP3    H219107   1.399   2.976   0.756
 6384TIP3   OH219108   2.217   7.414   0.345
 6384TIP3    H119109   2.257   7.471   0.412
 6384TIP3    H219110   2.274   7.424   0.269
 6385TIP3   OH219111   0.549   6.061   1.916
 6385TIP3    H119112   0.508   6.148   1.917
 6385TIP3    H219113   0.477   5.999   1.913
 6386TIP3   OH219114   1.262   5.255   2.221
 6386TIP3    H119115   1.280   5.200   2.297
 6386TIP3    H219116   1.221   5.334   2.257
 6387TIP3   OH219117   3.403   0.683   4.482
 6387TIP3    H119118   3.360   0.767   4.466
 6387TIP3    H219119   3.464   0.673   4.408
 6388TIP3   OH219120   5.300   3.551   3.449
 6388TIP3    H119121   5.360   3.519   3.382
 6388TIP3    H219122   5.243   3.612   3.402
 6389TIP3   OH219123   3.675   7.372   2.543
 6389TIP3    H119124   3.599   7.315   2.535
 6389TIP3    H219125   3.670   7.428   2.465
 6390TIP3   OH219126   8.026   4.209   2.947
 6390TIP3    H119127   8.112   4.171   2.959
 6390TIP3    H219128   8.042   4.292   2.901
 6391TIP3   OH219129   4.435   5.727   6.148
 6391TIP3    H119130   4.343   5.733   6.125
 6391TIP3    H219131   4.474   5.670   6.081
 6392TIP3   OH219132   3.495   5.707   0.259
 6392TIP3    H119133   3.565   5.671   0.314
 6392TIP3    H219134   3.508   5.802   0.262
 6393TIP3   OH219135   4.556   7.026   4.468
 6393TIP3    H119136   4.632   6.975   4.494
 6393TIP3    H219137   4.577   7.116   4.495
 6394TIP3   OH219138   4.147   0.068   3.170
 6394TIP3    H119139   4.112   0.012   3.239
 6394TIP3    H219140   4.214   0.014   3.128
 6395TIP3   OH219141   0.893   5.982   0.497
 6395TIP3    H119142   0.980   5.947   0.513
 6395TIP3    H219143   0.902   6.076   0.507
 6396TIP3   OH219144   5.508   2.773   1.708
 6396TIP3    H119145   5.525   2.679   1.718
 6396TIP3    H219146   5.419   2.777   1.672
 6397TIP3   OH219147   5.804   0.702   1.666
 6397TIP3    H119148   5.851   0.621   1.684
 6397TIP3    H219149   5.866   0.756   1.618
 6398TIP3   OH219150   6.354   1.593   4.817
 6398TIP3    H119151   6.417   1.656   4.782
 6398TIP3    H219152   6.282   1.647   4.849
 6399TIP3   OH219153   6.818   5.128   0.875
 6399TIP3    H119154   6.854   5.091   0.794
 6399TIP3    H219155   6.887   5.186   0.908
 6400TIP3   OH219156   4.108   6.518   1.872
 6400TIP3    H119157   4.195   6.520   1.911
 6400TIP3    H219158   4.119   6.555   1.785
 6401TIP3   OH219159   4.425   6.653   0.894
 6401TIP3    H119160   4.454   6.701   0.817
 6401TIP3    H219161   4.462   6.702   0.968
 6402TIP3   OH219162   5.465   3.799   3.281
 6402TIP3    H119163   5.423   3.875   3.323
 6402TIP3    H219164   5.549   3.789   3.326
 6403TIP3   OH219165   6.880   0.684   2.854
 6403TIP3    H119166   6.911   0.608   2.902
 6403TIP3    H219167   6.912   0.671   2.765
 6404TIP3   OH219168   6.711   6.175   5.788
 6404TIP3    H119169   6.682   6.092   5.827
 6404TIP3    H219170   6.697   6.240   5.857
 6405TIP3   OH219171   3.205   6.912   5.959
 6405TIP3    H119172   3.191   6.817   5.959
 6405TIP3    H219173   3.183   6.939   6.049
 6406TIP3   OH219174   2.528   1.936   5.673
 6406TIP3    H119175   2.547   1.923   5.580
 6406TIP3    H219176   2.555   2.026   5.691
 6407TIP3   OH219177   1.904   1.124   2.664
 6407TIP3    H119178   1.860   1.157   2.585
 6407TIP3    H219179   1.835   1.081   2.714
 6408TIP3   OH219180   6.635   4.132   0.217
 6408TIP3    H119181   6.558   4.183   0.192
 6408TIP3    H219182   6.626   4.050   0.169
 6409TIP3   OH219183   7.189   4.346   3.866
 6409TIP3    H119184   7.219   4.259   3.838
 6409TIP3    H219185   7.146   4.382   3.788
 6410TIP3   OH219186   8.177   5.159   2.027
 6410TIP3    H119187   8.099   5.118   2.065
 6410TIP3    H219188   8.250   5.124   2.078
 6411TIP3   OH219189   4.453   1.825   5.300
 6411TIP3    H119190   4.530   1.820   5.243
 6411TIP3    H219191   4.481   1.877   5.375
 6412TIP3   OH219192   4.297   4.488   1.219
 6412TIP3    H119193   4.354   4.435   1.275
 6412TIP3    H219194   4.308   4.578   1.252
 6413TIP3   OH219195   5.029   3.444   3.569
 6413TIP3    H119196   5.032   3.454   3.474
 6413TIP3    H219197   4.950   3.490   3.596
 6414TIP3   OH219198   5.691   2.013   5.609
 6414TIP3    H119199   5.744   1.955   5.554
 6414TIP3    H219200   5.684   2.094   5.558
 6415TIP3   OH219201   5.166   6.020   5.699
 6415TIP3    H119202   5.207   5.940   5.733
 6415TIP3    H219203   5.232   6.057   5.640
 6416TIP3   OH219204   6.251   3.225   1.234
 6416TIP3    H119205   6.186   3.269   1.179
 6416TIP3    H219206   6.214   3.139   1.252
 6417TIP3   OH219207   2.778   3.339   3.702
 6417TIP3    H119208   2.825   3.340   3.786
 6417TIP3    H219209   2.818   3.408   3.651
 6418TIP3   OH219210   5.416   4.008   1.474
 6418TIP3    H119211   5.436   4.047   1.559
 6418TIP3    H219212   5.454   3.920   1.478
 6419TIP3   OH219213   6.732   0.227   2.369
 6419TIP3    H119214   6.765   0.306   2.411
 6419TIP3    H219215   6.702   0.172   2.441
 6420TIP3   OH219216   6.432   6.413   4.378
 6420TIP3    H119217   6.506   6.354   4.390
 6420TIP3    H219218   6.366   6.359   4.333
 6421TIP3   OH219219   8.116  -0.034   5.849
 6421TIP3    H119220   8.069   0.048   5.833
 6421TIP3    H219221   8.067  -0.076   5.920
 6422TIP3   OH219222   2.069   7.710   6.661
 6422TIP3    H119223   2.042   7.779   6.721
 6422TIP3    H219224   2.116   7.755   6.591
 6423TIP3   OH219225   3.975   4.314   5.795
 6423TIP3    H119226   3.933   4.389   5.754
 6423TIP3    H219227   4.060   4.347   5.824
 6424TIP3   OH219228   3.293   0.924   5.887
 6424TIP3    H119229   3.220   0.862   5.896
 6424TIP3    H219230   3.368   0.869   5.863
 6425TIP3   OH219231   8.115   0.586   1.910
 6425TIP3    H119232   8.144   0.652   1.847
 6425TIP3    H219233   8.149   0.504   1.875
 6426TIP3   OH219234   6.227   5.610   2.710
 6426TIP3    H119235   6.212   5.572   2.797
 6426TIP3    H219236   6.149   5.584   2.659
 6427TIP3   OH219237   0.461   7.624   3.744
 6427TIP3    H119238   0.518   7.698   3.724
 6427TIP3    H219239   0.467   7.568   3.667
 6428TIP3   OH219240   6.669   3.678   3.844
 6428TIP3    H119241   6.691   3.771   3.833
 6428TIP3    H219242   6.602   3.662   3.778
 6429TIP3   OH219243   1.942   4.732   0.459
 6429TIP3    H119244   1.965   4.779   0.379
 6429TIP3    H219245   2.013   4.752   0.520
 6430TIP3   OH219246   6.995   3.400   1.670
 6430TIP3    H119247   6.955   3.347   1.600
 6430TIP3    H219248   7.009   3.486   1.630
 6431TIP3   OH219249   7.705   3.069   4.304
 6431TIP3    H119250   7.792   3.109   4.295
 6431TIP3    H219251   7.651   3.115   4.239
 6432TIP3   OH219252   1.499   4.816   2.976
 6432TIP3    H119253   1.460   4.872   2.908
 6432TIP3    H219254   1.530   4.878   3.042
 6433TIP3   OH219255   7.906   3.678   6.639
 6433TIP3    H119256   7.870   3.602   6.592
 6433TIP3    H219257   7.979   3.707   6.584
 6434TIP3   OH219258   0.503   0.544   3.132
 6434TIP3    H119259   0.597   0.541   3.117
 6434TIP3    H219260   0.464   0.556   3.045
 6435TIP3   OH219261   4.211   7.153   3.457
 6435TIP3    H119262   4.262   7.156   3.537
 6435TIP3    H219263   4.269   7.190   3.390
 6436TIP3   OH219264   6.334   7.734   6.131
 6436TIP3    H119265   6.368   7.674   6.064
 6436TIP3    H219266   6.367   7.697   6.214
 6437TIP3   OH219267   6.153   5.735   4.834
 6437TIP3    H119268   6.114   5.723   4.748
 6437TIP3    H219269   6.078   5.738   4.894
 6438TIP3   OH219270   4.676   2.591   3.094
 6438TIP3    H119271   4.718   2.597   3.180
 6438TIP3    H219272   4.660   2.498   3.081
 6439TIP3   OH219273   4.464   4.882   4.051
 6439TIP3    H119274   4.422   4.882   4.137
 6439TIP3    H219275   4.394   4.907   3.990
 6440TIP3   OH219276   1.103   4.519   2.379
 6440TIP3    H119277   1.092   4.508   2.285
 6440TIP3    H219278   1.157   4.444   2.406
 6441TIP3   OH219279   3.185   5.034   5.271
 6441TIP3    H119280   3.275   5.055   5.297
 6441TIP3    H219281   3.145   4.996   5.349
 6442TIP3   OH219282   7.580   0.288   4.197
 6442TIP3    H119283   7.564   0.366   4.250
 6442TIP3    H219284   7.592   0.321   4.109
 6443TIP3   OH219285   4.094   5.944   6.412
 6443TIP3    H119286   4.153   6.020   6.406
 6443TIP3    H219287   4.079   5.919   6.321
 6444TIP3   OH219288   2.861   3.036   1.278
 6444TIP3    H119289   2.854   2.944   1.252
 6444TIP3    H219290   2.791   3.047   1.342
 6445TIP3   OH219291   5.600   1.264   3.384
 6445TIP3    H119292   5.551   1.330   3.432
 6445TIP3    H219293   5.688   1.268   3.421
 6446TIP3   OH219294   8.167   6.960   1.210
 6446TIP3    H119295   8.247   6.953   1.263
 6446TIP3    H219296   8.100   6.915   1.262
 6447TIP3   OH219297   4.810   4.293   3.096
 6447TIP3    H119298   4.792   4.363   3.159
 6447TIP3    H219299   4.842   4.339   3.019
 6448TIP3   OH219300   5.665   3.278   1.398
 6448TIP3    H119301   5.661   3.331   1.319
 6448TIP3    H219302   5.614   3.326   1.463
 6449TIP3   OH219303   6.419   2.635   1.547
 6449TIP3    H119304   6.445   2.682   1.468
 6449TIP3    H219305   6.491   2.649   1.608
 6450TIP3   OH219306   3.323   6.077   3.287
 6450TIP3    H119307   3.361   6.155   3.245
 6450TIP3    H219308   3.375   6.065   3.366
 6451TIP3   OH219309   5.826   5.764   0.414
 6451TIP3    H119310   5.840   5.723   0.329
 6451TIP3    H219311   5.898   5.733   0.468
 6452TIP3   OH219312   2.854   4.328   0.353
 6452TIP3    H119313   2.923   4.272   0.315
 6452TIP3    H219314   2.840   4.396   0.289
 6453TIP3   OH219315   6.969   3.284   5.541
 6453TIP3    H119316   6.917   3.308   5.618
 6453TIP3    H219317   7.016   3.364   5.518
 6454TIP3   OH219318   4.172   4.913   6.527
 6454TIP3    H119319   4.201   4.822   6.524
 6454TIP3    H219320   4.095   4.911   6.584
 6455TIP3   OH219321   6.541   5.691   5.987
 6455TIP3    H119322   6.477   5.633   6.028
 6455TIP3    H219323   6.532   5.675   5.893
 6456TIP3   OH219324   6.034   1.298   3.349
 6456TIP3    H119325   6.060   1.372   3.404
 6456TIP3    H219326   5.975   1.335   3.284
 6457TIP3   OH219327   7.639   6.702   2.502
 6457TIP3    H119328   7.585   6.623   2.507
 6457TIP3    H219329   7.716   6.682   2.556
 6458TIP3   OH219330   0.900   2.227   2.558
 6458TIP3    H119331   0.967   2.295   2.567
 6458TIP3    H219332   0.900   2.207   2.464
 6459TIP3   OH219333   4.011   4.087   4.298
 6459TIP3    H119334   3.941   4.065   4.359
 6459TIP3    H219335   3.966   4.128   4.224
 6460TIP3   OH219336   7.698   6.079   4.162
 6460TIP3    H119337   7.789   6.051   4.173
 6460TIP3    H219338   7.688   6.091   4.068
 6461TIP3   OH219339   6.214   7.122   5.941
 6461TIP3    H119340   6.133   7.170   5.921
 6461TIP3    H219341   6.212   7.046   5.883
 6462TIP3   OH219342   5.430   3.896   5.747
 6462TIP3    H119343   5.524   3.900   5.765
 6462TIP3    H219344   5.393   3.848   5.821
 6463TIP3   OH219345   7.562   1.518   3.190
 6463TIP3    H119346   7.630   1.501   3.125
 6463TIP3    H219347   7.546   1.612   3.184
 6464TIP3   OH219348   4.298   5.311   4.774
 6464TIP3    H119349   4.224   5.310   4.712
 6464TIP3    H219350   4.376   5.315   4.718
 6465TIP3   OH219351   5.179   5.523   1.826
 6465TIP3    H119352   5.092   5.500   1.859
 6465TIP3    H219353   5.161   5.584   1.754
 6466TIP3   OH219354   3.627   6.830   3.154
 6466TIP3    H119355   3.698   6.880   3.195
 6466TIP3    H219356   3.557   6.831   3.218
 6467TIP3   OH219357   7.967   0.811   1.114
 6467TIP3    H119358   7.943   0.835   1.025
 6467TIP3    H219359   8.056   0.775   1.106
 6468TIP3   OH219360   3.769   2.494   6.064
 6468TIP3    H119361   3.750   2.403   6.040
 6468TIP3    H219362   3.712   2.512   6.139
 6469TIP3   OH219363   1.803   7.231   1.406
 6469TIP3    H119364   1.714   7.255   1.378
 6469TIP3    H219365   1.790   7.185   1.489
 6470TIP3   OH219366   4.705   4.846   3.210
 6470TIP3    H119367   4.774   4.786   3.184
 6470TIP3    H219368   4.645   4.794   3.263
 6471TIP3   OH219369   4.681   6.749   2.146
 6471TIP3    H119370   4.714   6.673   2.194
 6471TIP3    H219371   4.753   6.813   2.152
 6472TIP3   OH219372   4.069   3.763   4.792
 6472TIP3    H119373   4.100   3.816   4.865
 6472TIP3    H219374   4.148   3.726   4.754
 6473TIP3   OH219375   6.983   2.110   5.616
 6473TIP3    H119376   7.005   2.188   5.564
 6473TIP3    H219377   6.954   2.146   5.701
 6474TIP3   OH219378   5.665   3.561   4.706
 6474TIP3    H119379   5.746   3.610   4.693
 6474TIP3    H219380   5.620   3.607   4.777
 6475TIP3   OH219381   3.424   1.267   4.214
 6475TIP3    H119382   3.439   1.328   4.142
 6475TIP3    H219383   3.509   1.227   4.229
 6476TIP3   OH219384   5.787   3.885   0.671
 6476TIP3    H119385   5.717   3.833   0.712
 6476TIP3    H219386   5.865   3.831   0.680
 6477TIP3   OH219387   7.395   0.101   3.647
 6477TIP3    H119388   7.335   0.172   3.624
 6477TIP3    H219389   7.388   0.093   3.742
 6478TIP3   OH219390   4.280   1.596   2.152
 6478TIP3    H119391   4.370   1.613   2.125
 6478TIP3    H219392   4.266   1.504   2.130
 6479TIP3   OH219393   4.347   2.524   4.592
 6479TIP3    H119394   4.307   2.454   4.643
 6479TIP3    H219395   4.297   2.602   4.616
 6480TIP3   OH219396   1.116   6.274   4.388
 6480TIP3    H119397   1.030   6.233   4.394
 6480TIP3    H219398   1.108   6.337   4.316
 6481TIP3   OH219399   5.694   7.685   3.044
 6481TIP3    H119400   5.773   7.731   3.070
 6481TIP3    H219401   5.642   7.750   2.998
 6482TIP3   OH219402   2.632   1.665   6.166
 6482TIP3    H119403   2.701   1.598   6.166
 6482TIP3    H219404   2.680   1.748   6.166
 6483TIP3   OH219405   3.493   2.647   3.736
 6483TIP3    H119406   3.446   2.564   3.745
 6483TIP3    H219407   3.435   2.701   3.681
 6484TIP3   OH219408   3.104   2.017   5.494
 6484TIP3    H119409   3.028   1.965   5.523
 6484TIP3    H219410   3.074   2.107   5.496
 6485TIP3   OH219411   0.898   1.310   0.325
 6485TIP3    H119412   0.953   1.240   0.292
 6485TIP3    H219413   0.937   1.391   0.291
 6486TIP3   OH219414   1.394   1.233   5.302
 6486TIP3    H119415   1.370   1.321   5.330
 6486TIP3    H219416   1.312   1.193   5.274
 6487TIP3   OH219417   3.048   3.656   5.391
 6487TIP3    H119418   2.967   3.689   5.350
 6487TIP3    H219419   3.042   3.686   5.482
 6488TIP3   OH219420   0.906   2.166   2.286
 6488TIP3    H119421   0.865   2.080   2.279
 6488TIP3    H219422   0.847   2.225   2.240
 6489TIP3   OH219423   2.969   4.835   2.554
 6489TIP3    H119424   2.903   4.900   2.530
 6489TIP3    H219425   3.031   4.883   2.609
 6490TIP3   OH219426   0.875   1.752   3.247
 6490TIP3    H119427   0.885   1.663   3.213
 6490TIP3    H219428   0.962   1.778   3.275
 6491TIP3   OH219429   3.919   5.911   5.448
 6491TIP3    H119430   3.884   6.000   5.452
 6491TIP3    H219431   3.992   5.916   5.386
 6492TIP3   OH219432   6.785   2.338   0.089
 6492TIP3    H119433   6.720   2.409   0.080
 6492TIP3    H219434   6.790   2.300   0.001
 6493TIP3   OH219435   3.465   1.460   0.839
 6493TIP3    H119436   3.491   1.368   0.846
 6493TIP3    H219437   3.526   1.498   0.776
 6494TIP3   OH219438   0.673   5.556   2.115
 6494TIP3    H119439   0.729   5.483   2.143
 6494TIP3    H219440   0.734   5.628   2.103
 6495TIP3   OH219441   5.273   3.281   6.155
 6495TIP3    H119442   5.329   3.295   6.079
 6495TIP3    H219443   5.212   3.355   6.154
 6496TIP3   OH219444   1.847   6.663   3.025
 6496TIP3    H119445   1.772   6.683   2.970
 6496TIP3    H219446   1.847   6.568   3.033
 6497TIP3   OH219447   3.340   5.833   1.908
 6497TIP3    H119448   3.312   5.823   1.999
 6497TIP3    H219449   3.262   5.813   1.856
 6498TIP3   OH219450   5.435   6.559   2.758
 6498TIP3    H119451   5.454   6.577   2.850
 6498TIP3    H219452   5.367   6.492   2.760
 6499TIP3   OH219453   0.163   0.685   4.846
 6499TIP3    H119454   0.183   0.602   4.890
 6499TIP3    H219455   0.246   0.733   4.847
 6500TIP3   OH219456   2.512   4.112   6.137
 6500TIP3    H119457   2.569   4.036   6.135
 6500TIP3    H219458   2.493   4.126   6.230
 6501TIP3   OH219459   4.673   5.038   4.718
 6501TIP3    H119460   4.682   4.943   4.704
 6501TIP3    H219461   4.662   5.074   4.630
 6502TIP3   OH219462   7.367   4.023   5.269
 6502TIP3    H119463   7.297   4.073   5.312
 6502TIP3    H219464   7.381   3.948   5.327
 6503TIP3   OH219465   6.965   0.926   1.026
 6503TIP3    H119466   7.009   0.843   1.007
 6503TIP3    H219467   7.036   0.990   1.034
 6504TIP3   OH219468   1.597   3.819   2.292
 6504TIP3    H119469   1.621   3.758   2.222
 6504TIP3    H219470   1.510   3.851   2.266
 6505TIP3   OH219471   2.432   5.833   1.349
 6505TIP3    H119472   2.412   5.773   1.422
 6505TIP3    H219473   2.356   5.891   1.345
 6506TIP3   OH219474   3.725   5.242   2.499
 6506TIP3    H119475   3.708   5.265   2.591
 6506TIP3    H219476   3.802   5.185   2.502
 6507TIP3   OH219477   0.054   6.762   2.880
 6507TIP3    H119478   0.063   6.765   2.785
 6507TIP3    H219479  -0.030   6.805   2.898
 6508TIP3   OH219480   5.308   5.877   0.546
 6508TIP3    H119481   5.354   5.909   0.469
 6508TIP3    H219482   5.291   5.785   0.528
 6509TIP3   OH219483   2.456   2.057   3.501
 6509TIP3    H119484   2.430   1.966   3.513
 6509TIP3    H219485   2.450   2.096   3.588
 6510TIP3   OH219486   4.066   4.449   3.955
 6510TIP3    H119487   4.123   4.414   3.886
 6510TIP3    H219488   4.027   4.527   3.916
 6511TIP3   OH219489   3.149   7.488   4.697
 6511TIP3    H119490   3.176   7.572   4.660
 6511TIP3    H219491   3.183   7.423   4.636
 6512TIP3   OH219492   3.022   1.001   6.464
 6512TIP3    H119493   2.927   0.985   6.461
 6512TIP3    H219494   3.055   0.963   6.382
 6513TIP3   OH219495   8.103   3.423   6.517
 6513TIP3    H119496   8.156   3.358   6.471
 6513TIP3    H219497   8.167   3.485   6.553
 6514TIP3   OH219498   4.562   1.883   1.375
 6514TIP3    H119499   4.542   1.966   1.418
 6514TIP3    H219500   4.629   1.905   1.310
 6515TIP3   OH219501   8.253   0.337   6.273
 6515TIP3    H119502   8.196   0.413   6.258
 6515TIP3    H219503   8.200   0.263   6.244
 6516TIP3   OH219504   5.906   2.547   5.957
 6516TIP3    H119505   5.816   2.577   5.956
 6516TIP3    H219506   5.907   2.475   6.020
 6517TIP3   OH219507   1.800   1.794   1.416
 6517TIP3    H119508   1.736   1.724   1.402
 6517TIP3    H219509   1.763   1.869   1.370
 6518TIP3   OH219510   4.449   0.164   1.396
 6518TIP3    H119511   4.405   0.129   1.473
 6518TIP3    H219512   4.378   0.191   1.338
 6519TIP3   OH219513   8.008   3.635   2.187
 6519TIP3    H119514   8.046   3.549   2.202
 6519TIP3    H219515   8.039   3.688   2.261
 6520TIP3   OH219516   0.391   0.666   1.432
 6520TIP3    H119517   0.364   0.691   1.521
 6520TIP3    H219518   0.471   0.615   1.444
 6521TIP3   OH219519   2.600   6.865   4.110
 6521TIP3    H119520   2.557   6.856   4.025
 6521TIP3    H219521   2.547   6.929   4.157
 6522TIP3   OH219522   1.389   4.280   0.537
 6522TIP3    H119523   1.466   4.311   0.586
 6522TIP3    H219524   1.412   4.191   0.511
 6523TIP3   OH219525   8.176   7.642   6.768
 6523TIP3    H119526   8.171   7.599   6.682
 6523TIP3    H219527   8.256   7.609   6.807
 6524TIP3   OH219528   5.110   3.169   4.627
 6524TIP3    H119529   5.019   3.197   4.640
 6524TIP3    H219530   5.155   3.248   4.596
 6525TIP3   OH219531   2.129   2.598   3.481
 6525TIP3    H119532   2.199   2.589   3.417
 6525TIP3    H219533   2.068   2.527   3.461
 6526TIP3   OH219534   8.136   3.628   1.852
 6526TIP3    H119535   8.128   3.648   1.945
 6526TIP3    H219536   8.194   3.552   1.848
 6527TIP3   OH219537   2.198   6.757   6.063
 6527TIP3    H119538   2.121   6.732   6.113
 6527TIP3    H219539   2.222   6.844   6.096
 6528TIP3   OH219540   4.495   6.274   4.794
 6528TIP3    H119541   4.406   6.309   4.795
 6528TIP3    H219542   4.546   6.336   4.845
 6529TIP3   OH219543   1.822   7.136   3.454
 6529TIP3    H119544   1.745   7.102   3.500
 6529TIP3    H219545   1.796   7.224   3.425
 6530TIP3   OH219546   7.896   4.787   3.982
 6530TIP3    H119547   7.991   4.791   3.995
 6530TIP3    H219548   7.859   4.810   4.067
 6531TIP3   OH219549   3.631   7.316   2.825
 6531TIP3    H119550   3.679   7.327   2.743
 6531TIP3    H219551   3.606   7.223   2.825
 6532TIP3   OH219552   0.058   6.739   6.553
 6532TIP3    H119553   0.069   6.644   6.563
 6532TIP3    H219554  -0.015   6.748   6.491
 6533TIP3   OH219555   0.996   5.217   1.394
 6533TIP3    H119556   1.027   5.130   1.371
 6533TIP3    H219557   1.022   5.229   1.486
 6534TIP3   OH219558   7.938   4.008   1.899
 6534TIP3    H119559   7.877   3.960   1.955
 6534TIP3    H219560   8.008   4.036   1.959
 6535TIP3   OH219561   1.061   2.736   0.913
 6535TIP3    H119562   1.021   2.799   0.973
 6535TIP3    H219563   1.080   2.660   0.968
 6536TIP3   OH219564   2.554   7.358   4.711
 6536TIP3    H119565   2.487   7.302   4.750
 6536TIP3    H219566   2.542   7.349   4.617
 6537TIP3   OH219567   5.463   6.049   6.280
 6537TIP3    H119568   5.420   5.993   6.345
 6537TIP3    H219569   5.552   6.058   6.313
 6538TIP3   OH219570   7.363   1.130   1.964
 6538TIP3    H119571   7.302   1.107   2.035
 6538TIP3    H219572   7.315   1.195   1.912
 6539TIP3   OH219573   0.696   4.239   5.568
 6539TIP3    H119574   0.714   4.192   5.649
 6539TIP3    H219575   0.601   4.253   5.569
 6540TIP3   OH219576   4.592   1.809   1.849
 6540TIP3    H119577   4.547   1.755   1.784
 6540TIP3    H219578   4.599   1.895   1.808
 6541TIP3   OH219579   0.552   5.979   4.736
 6541TIP3    H119580   0.487   6.028   4.686
 6541TIP3    H219581   0.605   6.046   4.778
 6542TIP3   OH219582   8.105   0.832   3.275
 6542TIP3    H119583   8.151   0.796   3.199
 6542TIP3    H219584   8.023   0.865   3.240
 6543TIP3   OH219585   6.043   2.610   0.880
 6543TIP3    H119586   6.121   2.601   0.825
 6543TIP3    H219587   6.033   2.524   0.920
 6544TIP3   OH219588   4.456   6.796   1.117
 6544TIP3    H119589   4.396   6.870   1.111
 6544TIP3    H219590   4.542   6.832   1.095
 6545TIP3   OH219591   4.483   3.514   1.134
 6545TIP3    H119592   4.493   3.588   1.074
 6545TIP3    H219593   4.390   3.492   1.130
 6546TIP3   OH219594   4.468   6.464   1.610
 6546TIP3    H119595   4.436   6.400   1.546
 6546TIP3    H219596   4.562   6.470   1.593
 6547TIP3   OH219597   3.330   5.114   4.656
 6547TIP3    H119598   3.392   5.172   4.699
 6547TIP3    H219599   3.384   5.053   4.607
 6548TIP3   OH219600   2.317   5.982   1.904
 6548TIP3    H119601   2.257   5.999   1.831
 6548TIP3    H219602   2.335   6.069   1.942
 6549TIP3   OH219603   1.992   2.110   5.516
 6549TIP3    H119604   1.923   2.048   5.496
 6549TIP3    H219605   2.066   2.056   5.543
 6550TIP3   OH219606   6.150   2.970   1.239
 6550TIP3    H119607   6.070   2.953   1.288
 6550TIP3    H219608   6.152   2.902   1.171
 6551TIP3   OH219609   1.277   6.102   3.987
 6551TIP3    H119610   1.313   6.156   4.057
 6551TIP3    H219611   1.349   6.045   3.961
 6552TIP3   OH219612   3.018   5.957   2.231
 6552TIP3    H119613   2.982   5.930   2.315
 6552TIP3    H219614   3.004   6.052   2.228
 6553TIP3   OH219615   6.220   4.615   3.829
 6553TIP3    H119616   6.291   4.615   3.765
 6553TIP3    H219617   6.208   4.708   3.852
 6554TIP3   OH219618   6.984   6.278   4.633
 6554TIP3    H119619   7.049   6.347   4.620
 6554TIP3    H219620   7.036   6.198   4.645
 6555TIP3   OH219621   1.764   3.542   2.410
 6555TIP3    H119622   1.793   3.627   2.378
 6555TIP3    H219623   1.833   3.515   2.471
 6556TIP3   OH219624   3.927   5.065   4.954
 6556TIP3    H119625   4.009   5.026   4.926
 6556TIP3    H219626   3.926   5.053   5.049
 6557TIP3   OH219627   4.779   1.764   5.603
 6557TIP3    H119628   4.867   1.730   5.615
 6557TIP3    H219629   4.786   1.820   5.525
 6558TIP3   OH219630   1.910   2.398   3.463
 6558TIP3    H119631   1.935   2.328   3.523
 6558TIP3    H219632   1.911   2.358   3.376
 6559TIP3   OH219633   1.969   0.649   2.187
 6559TIP3    H119634   1.999   0.595   2.260
 6559TIP3    H219635   2.048   0.693   2.156
 6560TIP3   OH219636   0.090   2.723   1.563
 6560TIP3    H119637   0.135   2.652   1.518
 6560TIP3    H219638   0.077   2.790   1.496
 6561TIP3   OH219639   2.053   3.151   3.485
 6561TIP3    H119640   2.123   3.124   3.425
 6561TIP3    H219641   2.033   3.072   3.535
 6562TIP3   OH219642   4.443   7.400   5.058
 6562TIP3    H119643   4.397   7.445   4.988
 6562TIP3    H219644   4.535   7.416   5.041
 6563TIP3   OH219645   6.404   0.488   4.172
 6563TIP3    H119646   6.354   0.514   4.094
 6563TIP3    H219647   6.396   0.562   4.232
 6564TIP3   OH219648   4.723   0.753   0.228
 6564TIP3    H119649   4.779   0.677   0.247
 6564TIP3    H219650   4.725   0.805   0.308
 6565TIP3   OH219651   2.213   1.975   5.598
 6565TIP3    H119652   2.264   1.960   5.518
 6565TIP3    H219653   2.225   1.895   5.650
 6566TIP3   OH219654   5.866   7.483   6.380
 6566TIP3    H119655   5.951   7.464   6.342
 6566TIP3    H219656   5.857   7.579   6.372
 6567TIP3   OH219657   3.791   5.916   2.841
 6567TIP3    H119658   3.884   5.893   2.844
 6567TIP3    H219659   3.775   5.942   2.750
 6568TIP3   OH219660   4.418   4.144   3.831
 6568TIP3    H119661   4.331   4.183   3.827
 6568TIP3    H219662   4.447   4.141   3.739
 6569TIP3   OH219663   4.108   2.865   6.565
 6569TIP3    H119664   4.167   2.818   6.507
 6569TIP3    H219665   4.047   2.910   6.506
 6570TIP3   OH219666   5.757   5.648   4.445
 6570TIP3    H119667   5.697   5.657   4.370
 6570TIP3    H219668   5.821   5.583   4.417
 6571TIP3   OH219669   6.948   0.092   5.154
 6571TIP3    H119670   6.853   0.100   5.145
 6571TIP3    H219671   6.983   0.151   5.087
 6572TIP3   OH219672   7.783   1.460   5.690
 6572TIP3    H119673   7.767   1.554   5.688
 6572TIP3    H219674   7.856   1.449   5.752
 6573TIP3   OH219675   7.445   3.840   4.406
 6573TIP3    H119676   7.500   3.809   4.335
 6573TIP3    H219677   7.368   3.784   4.404
 6574TIP3   OH219678   1.446   0.042   5.452
 6574TIP3    H119679   1.417  -0.048   5.437
 6574TIP3    H219680   1.539   0.034   5.475
 6575TIP3   OH219681   2.167   5.718   1.226
 6575TIP3    H119682   2.242   5.776   1.211
 6575TIP3    H219683   2.180   5.646   1.164
 6576TIP3   OH219684   3.605   4.517   5.280
 6576TIP3    H119685   3.512   4.530   5.260
 6576TIP3    H219686   3.608   4.431   5.323
 6577TIP3   OH219687   6.257   2.571   2.219
 6577TIP3    H119688   6.259   2.662   2.246
 6577TIP3    H219689   6.166   2.553   2.199
 6578TIP3   OH219690   7.979   0.488   2.125
 6578TIP3    H119691   8.024   0.521   2.047
 6578TIP3    H219692   8.000   0.552   2.193
 6579TIP3   OH219693   2.015   7.509   1.040
 6579TIP3    H119694   2.004   7.414   1.049
 6579TIP3    H219695   2.039   7.538   1.128
 6580TIP3   OH219696   4.268   3.242   1.207
 6580TIP3    H119697   4.233   3.161   1.171
 6580TIP3    H219698   4.244   3.309   1.143
 6581TIP3   OH219699   5.902   6.505   2.505
 6581TIP3    H119700   5.841   6.441   2.468
 6581TIP3    H219701   5.849   6.555   2.566
 6582TIP3   OH219702   8.211   3.691   5.945
 6582TIP3    H119703   8.146   3.633   5.985
 6582TIP3    H219704   8.166   3.732   5.871
 6583TIP3   OH219705   4.314   0.187   5.490
 6583TIP3    H119706   4.378   0.120   5.468
 6583TIP3    H219707   4.357   0.242   5.555
 6584TIP3   OH219708   2.848   3.333   1.977
 6584TIP3    H119709   2.805   3.394   2.035
 6584TIP3    H219710   2.796   3.334   1.897
 6585TIP3   OH219711   4.913   6.560   5.618
 6585TIP3    H119712   4.999   6.560   5.660
 6585TIP3    H219713   4.861   6.500   5.672
 6586TIP3   OH219714   1.180   4.990   1.745
 6586TIP3    H119715   1.265   4.965   1.781
 6586TIP3    H219716   1.190   5.081   1.719
 6587TIP3   OH219717   1.651   3.794   0.626
 6587TIP3    H119718   1.592   3.739   0.678
 6587TIP3    H219719   1.671   3.868   0.683
 6588TIP3   OH219720   3.045   5.722   3.195
 6588TIP3    H119721   3.119   5.664   3.175
 6588TIP3    H219722   3.009   5.686   3.276
 6589TIP3   OH219723   2.435   3.006   0.379
 6589TIP3    H119724   2.529   2.991   0.394
 6589TIP3    H219725   2.391   2.935   0.425
 6590TIP3   OH219726   6.529   1.014   5.594
 6590TIP3    H119727   6.530   0.970   5.679
 6590TIP3    H219728   6.470   1.088   5.605
 6591TIP3   OH219729   5.459   6.908   1.837
 6591TIP3    H119730   5.492   6.981   1.785
 6591TIP3    H219731   5.492   6.829   1.794
 6592TIP3   OH219732   7.900   5.005   4.910
 6592TIP3    H119733   7.820   5.055   4.923
 6592TIP3    H219734   7.928   4.982   4.999
 6593TIP3   OH219735   8.135   3.909   0.306
 6593TIP3    H119736   8.078   3.886   0.380
 6593TIP3    H219737   8.198   3.971   0.343
 6594TIP3   OH219738   1.843   7.056   1.619
 6594TIP3    H119739   1.771   7.057   1.681
 6594TIP3    H219740   1.922   7.052   1.673
 6595TIP3   OH219741   0.473   4.591   1.117
 6595TIP3    H119742   0.531   4.521   1.088
 6595TIP3    H219743   0.440   4.630   1.036
 6596TIP3   OH219744   2.510   1.323   1.995
 6596TIP3    H119745   2.519   1.363   2.082
 6596TIP3    H219746   2.446   1.378   1.950
 6597TIP3   OH219747   4.741   0.176   6.707
 6597TIP3    H119748   4.730   0.200   6.615
 6597TIP3    H219749   4.655   0.146   6.735
 6598TIP3   OH219750   0.479   2.574   5.186
 6598TIP3    H119751   0.537   2.553   5.112
 6598TIP3    H219752   0.525   2.644   5.233
 6599TIP3   OH219753   1.460   7.719   4.902
 6599TIP3    H119754   1.456   7.814   4.914
 6599TIP3    H219755   1.448   7.705   4.808
 6600TIP3   OH219756   4.967   2.876   5.706
 6600TIP3    H119757   4.880   2.864   5.667
 6600TIP3    H219758   4.970   2.968   5.730
 6601TIP3   OH219759   0.332   1.135   6.542
 6601TIP3    H119760   0.377   1.219   6.539
 6601TIP3    H219761   0.395   1.075   6.581
 6602TIP3   OH219762   2.564   5.210   3.518
 6602TIP3    H119763   2.472   5.193   3.535
 6602TIP3    H219764   2.610   5.175   3.594
 6603TIP3   OH219765   4.997   3.451   4.370
 6603TIP3    H119766   5.084   3.453   4.409
 6603TIP3    H219767   4.939   3.485   4.438
 6604TIP3   OH219768   5.466   2.059   5.331
 6604TIP3    H119769   5.557   2.084   5.321
 6604TIP3    H219770   5.421   2.103   5.259
 6605TIP3   OH219771   5.975   4.501   4.415
 6605TIP3    H119772   5.961   4.467   4.327
 6605TIP3    H219773   5.948   4.593   4.410
 6606TIP3   OH219774   7.621   6.427   0.880
 6606TIP3    H119775   7.552   6.483   0.917
 6606TIP3    H219776   7.703   6.466   0.910
 6607TIP3   OH219777   4.113   1.387   3.513
 6607TIP3    H119778   4.087   1.420   3.599
 6607TIP3    H219779   4.042   1.328   3.487
 6608TIP3   OH219780   5.836   4.952   2.490
 6608TIP3    H119781   5.899   4.887   2.520
 6608TIP3    H219782   5.829   4.937   2.396
 6609TIP3   OH219783   1.196   3.672   1.029
 6609TIP3    H119784   1.253   3.673   1.106
 6609TIP3    H219785   1.114   3.710   1.059
 6610TIP3   OH219786   0.675   6.484   1.434
 6610TIP3    H119787   0.669   6.485   1.530
 6610TIP3    H219788   0.747   6.543   1.414
 6611TIP3   OH219789   4.570   0.521   3.657
 6611TIP3    H119790   4.519   0.476   3.725
 6611TIP3    H219791   4.636   0.458   3.631
 6612TIP3   OH219792   5.844   3.242   2.032
 6612TIP3    H119793   5.938   3.247   2.016
 6612TIP3    H219794   5.830   3.155   2.069
 6613TIP3   OH219795   2.718   2.102   2.004
 6613TIP3    H119796   2.705   2.078   2.096
 6613TIP3    H219797   2.692   2.024   1.955
 6614TIP3   OH219798   5.864   2.116   6.768
 6614TIP3    H119799   5.793   2.180   6.761
 6614TIP3    H219800   5.819   2.032   6.781
 6615TIP3   OH219801   8.179   3.817   2.743
 6615TIP3    H119802   8.118   3.810   2.816
 6615TIP3    H219803   8.263   3.787   2.779
 6616TIP3   OH219804   3.160   5.608   5.964
 6616TIP3    H119805   3.091   5.542   5.962
 6616TIP3    H219806   3.241   5.557   5.966
 6617TIP3   OH219807   2.206   6.329   5.275
 6617TIP3    H119808   2.284   6.315   5.329
 6617TIP3    H219809   2.133   6.315   5.336
 6618TIP3   OH219810   1.515   7.649   5.572
 6618TIP3    H119811   1.422   7.643   5.547
 6618TIP3    H219812   1.529   7.573   5.628
 6619TIP3   OH219813   0.614   3.892   4.023
 6619TIP3    H119814   0.697   3.924   4.059
 6619TIP3    H219815   0.547   3.944   4.068
 6620TIP3   OH219816   1.195   7.271   5.042
 6620TIP3    H119817   1.277   7.246   5.084
 6620TIP3    H219818   1.140   7.302   5.115
 6621TIP3   OH219819   3.281   3.463   6.115
 6621TIP3    H119820   3.194   3.444   6.149
 6621TIP3    H219821   3.337   3.466   6.192
 6622TIP3   OH219822   3.531   4.527   1.338
 6622TIP3    H119823   3.531   4.592   1.408
 6622TIP3    H219824   3.587   4.456   1.370
 6623TIP3   OH219825   8.171   2.966   5.482
 6623TIP3    H119826   8.110   2.903   5.444
 6623TIP3    H219827   8.194   2.929   5.568
 6624TIP3   OH219828   2.057   5.055   3.126
 6624TIP3    H119829   2.093   5.080   3.041
 6624TIP3    H219830   2.126   5.003   3.167
 6625TIP3   OH219831   2.918   3.938   2.895
 6625TIP3    H119832   2.875   4.001   2.838
 6625TIP3    H219833   2.917   3.978   2.982
 6626TIP3   OH219834   2.068   4.615   0.782
 6626TIP3    H119835   1.973   4.623   0.789
 6626TIP3    H219836   2.102   4.673   0.851
 6627TIP3   OH219837   6.165   3.065   5.182
 6627TIP3    H119838   6.245   3.118   5.175
 6627TIP3    H219839   6.098   3.116   5.137
 6628TIP3   OH219840   7.953   4.198   6.752
 6628TIP3    H119841   7.860   4.178   6.745
 6628TIP3    H219842   7.974   4.247   6.672
 6629TIP3   OH219843   5.661   7.765   6.415
 6629TIP3    H119844   5.722   7.830   6.448
 6629TIP3    H219845   5.611   7.738   6.493
 6630TIP3   OH219846   8.176   2.930   4.849
 6630TIP3    H119847   8.166   2.861   4.783
 6630TIP3    H219848   8.237   2.992   4.810
 6631TIP3   OH219849   0.870   4.393   3.469
 6631TIP3    H119850   0.799   4.441   3.512
 6631TIP3    H219851   0.831   4.309   3.444
 6632TIP3   OH219852   3.981   7.214   5.888
 6632TIP3    H119853   4.005   7.253   5.972
 6632TIP3    H219854   4.004   7.281   5.823
 6633TIP3   OH219855   0.787   6.332   2.143
 6633TIP3    H119856   0.872   6.371   2.122
 6633TIP3    H219857   0.796   6.241   2.117
 6634TIP3   OH219858   3.084   6.525   1.670
 6634TIP3    H119859   3.025   6.500   1.741
 6634TIP3    H219860   3.054   6.473   1.595
 6635TIP3   OH219861   4.055   5.292   3.604
 6635TIP3    H119862   4.023   5.238   3.676
 6635TIP3    H219863   4.090   5.230   3.540
 6636TIP3   OH219864   4.828   5.349   4.667
 6636TIP3    H119865   4.916   5.334   4.702
 6636TIP3    H219866   4.813   5.443   4.680
 6637TIP3   OH219867   4.199   7.450   2.498
 6637TIP3    H119868   4.183   7.391   2.424
 6637TIP3    H219869   4.146   7.527   2.479
 6638TIP3   OH219870   1.727   0.459   2.169
 6638TIP3    H119871   1.792   0.527   2.188
 6638TIP3    H219872   1.774   0.394   2.117
 6639TIP3   OH219873   7.330   1.218   4.671
 6639TIP3    H119874   7.277   1.217   4.591
 6639TIP3    H219875   7.325   1.128   4.704
 6640TIP3   OH219876   5.331   0.153   2.136
 6640TIP3    H119877   5.298   0.088   2.074
 6640TIP3    H219878   5.422   0.166   2.110
 6641TIP3   OH219879   1.537   0.450   1.326
 6641TIP3    H119880   1.509   0.384   1.389
 6641TIP3    H219881   1.476   0.441   1.253
 6642TIP3   OH219882   0.979   0.681   4.737
 6642TIP3    H119883   1.009   0.772   4.733
 6642TIP3    H219884   0.935   0.666   4.653
 6643TIP3   OH219885   1.418   1.109   3.899
 6643TIP3    H119886   1.408   1.186   3.843
 6643TIP3    H219887   1.421   1.144   3.988
 6644TIP3   OH219888   3.740   0.889   3.582
 6644TIP3    H119889   3.820   0.881   3.635
 6644TIP3    H219890   3.753   0.826   3.511
 6645TIP3   OH219891   1.344   0.700   6.165
 6645TIP3    H119892   1.415   0.698   6.101
 6645TIP3    H219893   1.307   0.612   6.162
 6646TIP3   OH219894   0.245   7.086   3.916
 6646TIP3    H119895   0.187   7.010   3.909
 6646TIP3    H219896   0.197   7.157   3.874
 6647TIP3   OH219897   1.199   7.766   6.723
 6647TIP3    H119898   1.167   7.701   6.660
 6647TIP3    H219899   1.210   7.846   6.671
 6648TIP3   OH219900   4.483   0.964   6.765
 6648TIP3    H119901   4.509   0.872   6.769
 6648TIP3    H219902   4.450   0.975   6.676
 6649TIP3   OH219903   3.413   3.036   5.156
 6649TIP3    H119904   3.491   3.079   5.190
 6649TIP3    H219905   3.342   3.098   5.173
 6650TIP3   OH219906   3.609   3.537   2.729
 6650TIP3    H119907   3.578   3.513   2.642
 6650TIP3    H219908   3.651   3.622   2.717
 6651TIP3   OH219909   0.404   2.922   3.959
 6651TIP3    H119910   0.424   2.832   3.982
 6651TIP3    H219911   0.310   2.931   3.975
 6652TIP3   OH219912   6.033   5.619   5.433
 6652TIP3    H119913   6.013   5.537   5.387
 6652TIP3    H219914   5.967   5.625   5.501
 6653TIP3   OH219915   0.488   2.322   2.624
 6653TIP3    H119916   0.403   2.283   2.602
 6653TIP3    H219917   0.478   2.415   2.601
 6654TIP3   OH219918   3.111   2.325   5.273
 6654TIP3    H119919   3.174   2.317   5.202
 6654TIP3    H219920   3.114   2.418   5.298
 6655TIP3   OH219921   6.583   4.329   6.464
 6655TIP3    H119922   6.593   4.314   6.370
 6655TIP3    H219923   6.638   4.262   6.505
 6656TIP3   OH219924   3.904   3.496   3.049
 6656TIP3    H119925   3.910   3.405   3.078
 6656TIP3    H219926   3.897   3.546   3.131
 6657TIP3   OH219927   1.477   3.346   5.152
 6657TIP3    H119928   1.479   3.422   5.094
 6657TIP3    H219929   1.430   3.279   5.103
 6658TIP3   OH219930   1.350   3.315   3.744
 6658TIP3    H119931   1.442   3.292   3.730
 6658TIP3    H219932   1.324   3.356   3.662
 6659TIP3   OH219933   6.336   1.115   0.769
 6659TIP3    H119934   6.253   1.098   0.725
 6659TIP3    H219935   6.319   1.190   0.825
 6660TIP3   OH219936   7.654   5.139   0.376
 6660TIP3    H119937   7.576   5.118   0.426
 6660TIP3    H219938   7.674   5.230   0.398
 6661TIP3   OH219939   7.697   3.100   2.811
 6661TIP3    H119940   7.614   3.113   2.765
 6661TIP3    H219941   7.701   3.007   2.829
 6662TIP3   OH219942   7.537   6.147   3.540
 6662TIP3    H119943   7.450   6.156   3.579
 6662TIP3    H219944   7.521   6.118   3.450
 6663TIP3   OH219945   4.764   6.838   4.525
 6663TIP3    H119946   4.795   6.758   4.484
 6663TIP3    H219947   4.832   6.861   4.589
 6664TIP3   OH219948   7.045   6.724   5.321
 6664TIP3    H119949   6.990   6.803   5.325
 6664TIP3    H219950   7.029   6.679   5.403
 6665TIP3   OH219951   0.910   2.877   6.658
 6665TIP3    H119952   0.952   2.841   6.736
 6665TIP3    H219953   0.843   2.936   6.692
 6666TIP3   OH219954   0.428   6.815   2.345
 6666TIP3    H119955   0.507   6.863   2.369
 6666TIP3    H219956   0.448   6.778   2.258
 6667TIP3   OH219957   6.769   1.510   4.055
 6667TIP3    H119958   6.688   1.504   4.106
 6667TIP3    H219959   6.796   1.602   4.063
 6668TIP3   OH219960   4.544   5.347   4.661
 6668TIP3    H119961   4.535   5.437   4.628
 6668TIP3    H219962   4.639   5.331   4.658
 6669TIP3   OH219963   7.664   2.387   6.518
 6669TIP3    H119964   7.591   2.377   6.579
 6669TIP3    H219965   7.652   2.318   6.453
 6670TIP3   OH219966   3.362   0.163   5.056
 6670TIP3    H119967   3.418   0.155   5.134
 6670TIP3    H219968   3.382   0.085   5.004
 6671TIP3   OH219969   1.018   2.823   4.298
 6671TIP3    H119970   1.015   2.747   4.240
 6671TIP3    H219971   1.105   2.861   4.284
 6672TIP3   OH219972   6.173   5.159   1.917
 6672TIP3    H119973   6.186   5.068   1.945
 6672TIP3    H219974   6.089   5.158   1.870
 6673TIP3   OH219975   3.371   3.524   6.373
 6673TIP3    H119976   3.405   3.464   6.439
 6673TIP3    H219977   3.439   3.590   6.363
 6674TIP3   OH219978   7.274   2.788   2.908
 6674TIP3    H119979   7.349   2.789   2.967
 6674TIP3    H219980   7.286   2.709   2.855
 6675TIP3   OH219981   7.894   5.076   3.151
 6675TIP3    H119982   7.916   5.108   3.064
 6675TIP3    H219983   7.856   5.152   3.196
 6676TIP3   OH219984   7.951   2.242   4.001
 6676TIP3    H119985   7.897   2.320   3.999
 6676TIP3    H219986   7.894   2.173   4.037
 6677TIP3   OH219987   1.902   5.316   6.157
 6677TIP3    H119988   1.864   5.263   6.228
 6677TIP3    H219989   1.829   5.368   6.124
 6678TIP3   OH219990   5.231   5.916   2.194
 6678TIP3    H119991   5.268   5.975   2.128
 6678TIP3    H219992   5.163   5.868   2.148
 6679TIP3   OH219993   5.632   3.905   3.889
 6679TIP3    H119994   5.716   3.912   3.845
 6679TIP3    H219995   5.578   3.975   3.851
 6680TIP3   OH219996   6.304   6.056   4.125
 6680TIP3    H119997   6.395   6.067   4.152
 6680TIP3    H219998   6.260   6.134   4.158
 6681TIP3   OH219999   2.619   3.104   1.417
 6681TIP3    H120000   2.577   3.068   1.495
 6681TIP3    H220001   2.565   3.074   1.345
 6682TIP3   OH220002   1.626   7.173   4.205
 6682TIP3    H120003   1.634   7.078   4.203
 6682TIP3    H220004   1.544   7.191   4.158
 6683TIP3   OH220005   1.911   3.181   5.928
 6683TIP3    H120006   1.971   3.251   5.902
 6683TIP3    H220007   1.968   3.105   5.942
 6684TIP3   OH220008   7.674   1.162   2.832
 6684TIP3    H120009   7.644   1.086   2.882
 6684TIP3    H220010   7.752   1.192   2.878
 6685TIP3   OH220011   7.360   6.303   2.805
 6685TIP3    H120012   7.284   6.260   2.844
 6685TIP3    H220013   7.322   6.370   2.748
 6686TIP3   OH220014   2.922   3.604   2.009
 6686TIP3    H120015   2.945   3.601   1.916
 6686TIP3    H220016   2.984   3.544   2.051
 6687TIP3   OH220017   1.543   3.833   4.369
 6687TIP3    H120018   1.584   3.822   4.455
 6687TIP3    H220019   1.469   3.893   4.385
 6688TIP3   OH220020   0.451   3.908   2.592
 6688TIP3    H120021   0.379   3.928   2.651
 6688TIP3    H220022   0.419   3.933   2.505
 6689TIP3   OH220023   7.351   7.715   3.295
 6689TIP3    H120024   7.387   7.796   3.333
 6689TIP3    H220025   7.341   7.735   3.202
 6690TIP3   OH220026   4.878   7.214   2.485
 6690TIP3    H120027   4.786   7.193   2.500
 6690TIP3    H220028   4.919   7.205   2.571
 6691TIP3   OH220029   6.079   0.479   2.709
 6691TIP3    H120030   6.020   0.467   2.784
 6691TIP3    H220031   6.144   0.541   2.738
 6692TIP3   OH220032   7.683   4.647   2.615
 6692TIP3    H120033   7.748   4.709   2.647
 6692TIP3    H220034   7.633   4.621   2.692
 6693TIP3   OH220035   2.536   1.928   4.540
 6693TIP3    H120036   2.515   2.022   4.543
 6693TIP3    H220037   2.457   1.885   4.570
 6694TIP3   OH220038   1.621   0.856   6.278
 6694TIP3    H120039   1.661   0.794   6.217
 6694TIP3    H220040   1.687   0.871   6.345
 6695TIP3   OH220041   1.272   2.699   2.532
 6695TIP3    H120042   1.270   2.615   2.578
 6695TIP3    H220043   1.333   2.752   2.583
 6696TIP3   OH220044   5.397   5.673   3.156
 6696TIP3    H120045   5.321   5.614   3.159
 6696TIP3    H220046   5.464   5.628   3.207
 6697TIP3   OH220047   5.083   4.140   6.347
 6697TIP3    H120048   5.089   4.151   6.252
 6697TIP3    H220049   5.152   4.076   6.368
 6698TIP3   OH220050   7.158   1.897   4.871
 6698TIP3    H120051   7.213   1.823   4.896
 6698TIP3    H220052   7.085   1.857   4.823
 6699TIP3   OH220053   5.103  -0.007   0.672
 6699TIP3    H120054   5.184   0.005   0.621
 6699TIP3    H220055   5.067   0.082   0.679
 6700TIP3   OH220056   6.511   5.222   5.589
 6700TIP3    H120057   6.603   5.246   5.575
 6700TIP3    H220058   6.510   5.127   5.586
 6701TIP3   OH220059   5.445   5.817   5.483
 6701TIP3    H120060   5.435   5.898   5.534
 6701TIP3    H220061   5.421   5.747   5.544
 6702TIP3   OH220062   7.506   4.233   5.527
 6702TIP3    H120063   7.463   4.149   5.544
 6702TIP3    H220064   7.593   4.224   5.566
 6703TIP3   OH220065   7.982   1.128   4.480
 6703TIP3    H120066   8.045   1.055   4.481
 6703TIP3    H220067   7.965   1.143   4.388
 6704TIP3   OH220068   1.047   5.816   4.148
 6704TIP3    H120069   1.031   5.892   4.204
 6704TIP3    H220070   1.001   5.744   4.191
 6705TIP3   OH220071   4.606   5.582   0.362
 6705TIP3    H120072   4.679   5.620   0.410
 6705TIP3    H220073   4.626   5.601   0.270
 6706TIP3   OH220074   3.748   5.765   3.440
 6706TIP3    H120075   3.834   5.731   3.417
 6706TIP3    H220076   3.704   5.777   3.356
 6707TIP3   OH220077   1.785   0.397   0.547
 6707TIP3    H120078   1.732   0.431   0.474
 6707TIP3    H220079   1.720   0.361   0.609
 6708TIP3   OH220080   1.171   2.651   5.168
 6708TIP3    H120081   1.076   2.642   5.155
 6708TIP3    H220082   1.200   2.564   5.192
 6709TIP3   OH220083   7.948   6.084   0.852
 6709TIP3    H120084   8.021   6.084   0.791
 6709TIP3    H220085   7.870   6.076   0.797
 6710TIP3   OH220086   3.136   2.903   4.400
 6710TIP3    H120087   3.166   2.932   4.486
 6710TIP3    H220088   3.119   2.984   4.352
 6711TIP3   OH220089   4.638   3.522   4.793
 6711TIP3    H120090   4.543   3.513   4.792
 6711TIP3    H220091   4.652   3.617   4.803
 6712TIP3   OH220092   2.238   2.255   5.666
 6712TIP3    H120093   2.203   2.166   5.657
 6712TIP3    H220094   2.327   2.251   5.631
 6713TIP3   OH220095   5.397   0.744   5.092
 6713TIP3    H120096   5.436   0.721   5.008
 6713TIP3    H220097   5.312   0.782   5.071
 6714TIP3   OH220098   2.122   4.410   2.842
 6714TIP3    H120099   2.041   4.419   2.793
 6714TIP3    H220100   2.189   4.447   2.784
 6715TIP3   OH220101   1.407   5.479   1.430
 6715TIP3    H120102   1.367   5.485   1.517
 6715TIP3    H220103   1.332   5.470   1.371
 6716TIP3   OH220104   7.318   3.045   2.215
 6716TIP3    H120105   7.300   3.082   2.302
 6716TIP3    H220106   7.293   2.953   2.223
 6717TIP3   OH220107   0.417   7.643   4.593
 6717TIP3    H120108   0.502   7.632   4.550
 6717TIP3    H220109   0.377   7.556   4.589
 6718TIP3   OH220110   2.086   1.508   0.545
 6718TIP3    H120111   2.106   1.436   0.485
 6718TIP3    H220112   2.056   1.579   0.488
 6719TIP3   OH220113   0.691   7.764   3.230
 6719TIP3    H120114   0.775   7.764   3.185
 6719TIP3    H220115   0.699   7.833   3.296
 6720TIP3   OH220116   5.054   1.382   3.159
 6720TIP3    H120117   5.144   1.375   3.192
 6720TIP3    H220118   5.057   1.456   3.099
 6721TIP3   OH220119   7.842   1.902   0.547
 6721TIP3    H120120   7.816   1.962   0.477
 6721TIP3    H220121   7.872   1.823   0.501
 6722TIP3   OH220122   1.121   0.788   0.797
 6722TIP3    H120123   1.162   0.859   0.847
 6722TIP3    H220124   1.180   0.774   0.723
 6723TIP3   OH220125   2.875   6.136   1.696
 6723TIP3    H120126   2.897   6.166   1.608
 6723TIP3    H220127   2.779   6.130   1.696
 6724TIP3   OH220128   7.255   6.156   3.541
 6724TIP3    H120129   7.209   6.188   3.464
 6724TIP3    H220130   7.248   6.060   3.535
 6725TIP3   OH220131   1.554   4.336   1.935
 6725TIP3    H120132   1.607   4.275   1.885
 6725TIP3    H220133   1.466   4.329   1.898
 6726TIP3   OH220134   0.929   6.709   2.890
 6726TIP3    H120135   0.976   6.723   2.972
 6726TIP3    H220136   0.916   6.614   2.885
 6727TIP3   OH220137   0.767   5.425   3.399
 6727TIP3    H120138   0.706   5.372   3.348
 6727TIP3    H220139   0.780   5.503   3.345
 6728TIP3   OH220140   5.589   3.438   4.486
 6728TIP3    H120141   5.587   3.510   4.423
 6728TIP3    H220142   5.635   3.474   4.562
 6729TIP3   OH220143   5.812   5.937   1.191
 6729TIP3    H120144   5.896   5.925   1.149
 6729TIP3    H220145   5.830   5.928   1.285
 6730TIP3   OH220146   5.174   7.242   3.508
 6730TIP3    H120147   5.152   7.156   3.474
 6730TIP3    H220148   5.100   7.298   3.482
 6731TIP3   OH220149   6.425   6.338   0.546
 6731TIP3    H120150   6.464   6.284   0.477
 6731TIP3    H220151   6.456   6.299   0.628
 6732TIP3   OH220152   3.927   4.188   5.426
 6732TIP3    H120153   3.950   4.154   5.340
 6732TIP3    H220154   3.832   4.203   5.421
 6733TIP3   OH220155   7.902   3.503   0.781
 6733TIP3    H120156   7.851   3.580   0.753
 6733TIP3    H220157   7.890   3.440   0.710
 6734TIP3   OH220158   2.950   5.191   0.351
 6734TIP3    H120159   2.857   5.172   0.336
 6734TIP3    H220160   2.994   5.158   0.272
 6735TIP3   OH220161   1.613   5.661   3.674
 6735TIP3    H120162   1.587   5.569   3.672
 6735TIP3    H220163   1.702   5.660   3.708
 6736TIP3   OH220164   3.295   4.770   0.620
 6736TIP3    H120165   3.232   4.812   0.678
 6736TIP3    H220166   3.321   4.838   0.559
 6737TIP3   OH220167   7.895   6.777   1.675
 6737TIP3    H120168   7.816   6.726   1.689
 6737TIP3    H220169   7.888   6.850   1.736
 6738TIP3   OH220170   1.268   1.900   0.593
 6738TIP3    H120171   1.351   1.929   0.630
 6738TIP3    H220172   1.224   1.981   0.566
 6739TIP3   OH220173   3.407   3.937   5.010
 6739TIP3    H120174   3.333   3.918   4.952
 6739TIP3    H220175   3.379   3.906   5.096
 6740TIP3   OH220176   0.146   3.355   3.863
 6740TIP3    H120177   0.184   3.442   3.850
 6740TIP3    H220178   0.212   3.294   3.831
 6741TIP3   OH220179   4.191   6.380   5.921
 6741TIP3    H120180   4.185   6.400   6.015
 6741TIP3    H220181   4.285   6.383   5.902
 6742TIP3   OH220182   3.732   3.337   1.852
 6742TIP3    H120183   3.652   3.386   1.834
 6742TIP3    H220184   3.801   3.403   1.854
 6743TIP3   OH220185   2.425   4.710   2.688
 6743TIP3    H120186   2.468   4.781   2.640
 6743TIP3    H220187   2.382   4.754   2.762
 6744TIP3   OH220188   6.725   4.526   3.550
 6744TIP3    H120189   6.776   4.445   3.545
 6744TIP3    H220190   6.653   4.513   3.488
 6745TIP3   OH220191   1.781   1.886   2.401
 6745TIP3    H120192   1.867   1.866   2.364
 6745TIP3    H220193   1.746   1.801   2.427
 6746TIP3   OH220194   0.081   3.751   2.904
 6746TIP3    H120195   0.029   3.805   2.964
 6746TIP3    H220196   0.168   3.749   2.944
 6747TIP3   OH220197   4.225   6.350   2.548
 6747TIP3    H120198   4.157   6.313   2.492
 6747TIP3    H220199   4.282   6.398   2.488
 6748TIP3   OH220200   3.730   4.497   1.704
 6748TIP3    H120201   3.751   4.472   1.614
 6748TIP3    H220202   3.814   4.509   1.746
 6749TIP3   OH220203   1.311   3.419   6.099
 6749TIP3    H120204   1.261   3.370   6.164
 6749TIP3    H220205   1.397   3.377   6.099
 6750TIP3   OH220206   4.844   0.131   6.126
 6750TIP3    H120207   4.770   0.185   6.154
 6750TIP3    H220208   4.910   0.194   6.096
 6751TIP3   OH220209   0.438   4.411   5.187
 6751TIP3    H120210   0.372   4.475   5.160
 6751TIP3    H220211   0.398   4.326   5.171
 6752TIP3   OH220212   5.095   4.142   5.226
 6752TIP3    H120213   5.121   4.233   5.243
 6752TIP3    H220214   5.143   4.091   5.291
 6753TIP3   OH220215   7.945   6.583   2.585
 6753TIP3    H120216   8.008   6.530   2.633
 6753TIP3    H220217   7.965   6.674   2.609
 6754TIP3   OH220218   3.613   6.444   5.752
 6754TIP3    H120219   3.554   6.435   5.826
 6754TIP3    H220220   3.700   6.425   5.788
 6755TIP3   OH220221   4.257   7.414   2.003
 6755TIP3    H120222   4.227   7.324   1.989
 6755TIP3    H220223   4.194   7.468   1.955
 6756TIP3   OH220224   3.912   2.417   2.792
 6756TIP3    H120225   3.885   2.349   2.730
 6756TIP3    H220226   3.941   2.489   2.736
 6757TIP3   OH220227   0.337   5.799   2.595
 6757TIP3    H120228   0.393   5.857   2.647
 6757TIP3    H220229   0.388   5.781   2.517
 6758TIP3   OH220230   3.829   2.996   0.176
 6758TIP3    H120231   3.874   3.005   0.092
 6758TIP3    H220232   3.866   2.918   0.216
 6759TIP3   OH220233   1.823   7.458   5.016
 6759TIP3    H120234   1.872   7.497   5.089
 6759TIP3    H220235   1.883   7.392   4.980
 6760TIP3   OH220236   4.952   3.947   5.849
 6760TIP3    H120237   4.930   4.031   5.808
 6760TIP3    H220238   4.868   3.904   5.864
 6761TIP3   OH220239   0.722   4.488   3.752
 6761TIP3    H120240   0.694   4.401   3.780
 6761TIP3    H220241   0.642   4.539   3.748
 6762TIP3   OH220242   6.864   4.050   1.382
 6762TIP3    H120243   6.935   4.097   1.339
 6762TIP3    H220244   6.820   4.002   1.312
 6763TIP3   OH220245   1.350   3.851   2.189
 6763TIP3    H120246   1.301   3.933   2.189
 6763TIP3    H220247   1.284   3.784   2.207
 6764TIP3   OH220248   0.561   3.528   3.323
 6764TIP3    H120249   0.624   3.600   3.316
 6764TIP3    H220250   0.607   3.461   3.373
 6765TIP3   OH220251   1.696   4.832   6.208
 6765TIP3    H120252   1.647   4.884   6.144
 6765TIP3    H220253   1.757   4.780   6.155
 6766TIP3   OH220254   1.853   5.402   0.292
 6766TIP3    H120255   1.861   5.477   0.350
 6766TIP3    H220256   1.923   5.414   0.227
 6767TIP3   OH220257   7.524   7.756   4.377
 6767TIP3    H120258   7.524   7.728   4.468
 6767TIP3    H220259   7.596   7.707   4.337
 6768TIP3   OH220260   1.815   7.303   5.848
 6768TIP3    H120261   1.864   7.251   5.912
 6768TIP3    H220262   1.815   7.391   5.885
 6769TIP3   OH220263   2.439   6.859   2.287
 6769TIP3    H120264   2.343   6.853   2.291
 6769TIP3    H220265   2.466   6.865   2.378
 6770TIP3   OH220266   0.520   3.419   6.055
 6770TIP3    H120267   0.457   3.348   6.053
 6770TIP3    H220268   0.474   3.494   6.016
 6771TIP3   OH220269   1.465   7.237   0.185
 6771TIP3    H120270   1.456   7.145   0.161
 6771TIP3    H220271   1.515   7.236   0.267
 6772TIP3   OH220272   1.991   7.233   2.681
 6772TIP3    H120273   1.972   7.320   2.718
 6772TIP3    H220274   2.066   7.246   2.624
 6773TIP3   OH220275   3.123   4.004   5.607
 6773TIP3    H120276   3.122   3.910   5.586
 6773TIP3    H220277   3.202   4.015   5.660
 6774TIP3   OH220278   2.168   0.311   5.059
 6774TIP3    H120279   2.147   0.308   5.152
 6774TIP3    H220280   2.210   0.397   5.047
 6775TIP3   OH220281   4.505   3.553   2.154
 6775TIP3    H120282   4.473   3.533   2.242
 6775TIP3    H220283   4.443   3.617   2.120
 6776TIP3   OH220284   5.358   0.586   0.374
 6776TIP3    H120285   5.333   0.500   0.340
 6776TIP3    H220286   5.451   0.577   0.396
 6777TIP3   OH220287   2.067   4.349   3.761
 6777TIP3    H120288   1.990   4.360   3.817
 6777TIP3    H220289   2.073   4.255   3.746
 6778TIP3   OH220290   4.293   0.422   3.464
 6778TIP3    H120291   4.327   0.332   3.460
 6778TIP3    H220292   4.273   0.435   3.557
 6779TIP3   OH220293   4.441   2.085   1.550
 6779TIP3    H120294   4.350   2.107   1.571
 6779TIP3    H220295   4.463   2.016   1.612
 6780TIP3   OH220296   1.827   4.262   2.810
 6780TIP3    H120297   1.813   4.313   2.730
 6780TIP3    H220298   1.885   4.191   2.783
 6781TIP3   OH220299   2.650   6.987   4.425
 6781TIP3    H120300   2.619   6.947   4.506
 6781TIP3    H220301   2.573   6.988   4.368
 6782TIP3   OH220302   8.300   2.482   5.107
 6782TIP3    H120303   8.231   2.549   5.104
 6782TIP3    H220304   8.376   2.528   5.142
 6783TIP3   OH220305   8.189   4.830   5.516
 6783TIP3    H120306   8.104   4.854   5.553
 6783TIP3    H220307   8.231   4.914   5.494
 6784TIP3   OH220308   4.607   3.418   1.714
 6784TIP3    H120309   4.570   3.337   1.749
 6784TIP3    H220310   4.611   3.477   1.789
 6785TIP3   OH220311   2.369   3.246   0.719
 6785TIP3    H120312   2.283   3.209   0.698
 6785TIP3    H220313   2.400   3.193   0.793
 6786TIP3   OH220314   3.963   0.463   2.889
 6786TIP3    H120315   3.929   0.509   2.812
 6786TIP3    H220316   3.987   0.376   2.857
 6787TIP3   OH220317   8.220   0.874   0.810
 6787TIP3    H120318   8.253   0.963   0.818
 6787TIP3    H220319   8.235   0.835   0.896
 6788TIP3   OH220320   2.678   6.493   6.172
 6788TIP3    H120321   2.583   6.505   6.174
 6788TIP3    H220322   2.691   6.404   6.204
 6789TIP3   OH220323   0.528   6.855   3.502
 6789TIP3    H120324   0.547   6.866   3.595
 6789TIP3    H220325   0.548   6.763   3.484
 6790TIP3   OH220326   0.252   5.975   6.311
 6790TIP3    H120327   0.283   6.065   6.314
 6790TIP3    H220328   0.329   5.922   6.334
 6791TIP3   OH220329   7.991   3.479   4.871
 6791TIP3    H120330   7.961   3.391   4.893
 6791TIP3    H220331   8.043   3.506   4.946
 6792TIP3   OH220332   3.006   0.572   0.499
 6792TIP3    H120333   3.042   0.648   0.546
 6792TIP3    H220334   3.014   0.500   0.561
 6793TIP3   OH220335   0.652   1.742   4.891
 6793TIP3    H120336   0.726   1.704   4.843
 6793TIP3    H220337   0.583   1.750   4.825
 6794TIP3   OH220338   6.254   4.348   5.100
 6794TIP3    H120339   6.301   4.265   5.089
 6794TIP3    H220340   6.266   4.371   5.192
 6795TIP3   OH220341   0.406   4.288   0.109
 6795TIP3    H120342   0.457   4.367   0.093
 6795TIP3    H220343   0.464   4.216   0.084
 6796TIP3   OH220344   3.176   2.156   2.423
 6796TIP3    H120345   3.100   2.151   2.481
 6796TIP3    H220346   3.245   2.111   2.471
 6797TIP3   OH220347   2.574   0.317   4.687
 6797TIP3    H120348   2.526   0.242   4.724
 6797TIP3    H220349   2.578   0.380   4.759
 6798TIP3   OH220350   7.968   3.418   2.415
 6798TIP3    H120351   8.005   3.349   2.471
 6798TIP3    H220352   7.901   3.374   2.363
 6799TIP3   OH220353   7.397   5.058   0.448
 6799TIP3    H120354   7.361   5.081   0.534
 6799TIP3    H220355   7.358   4.973   0.427
 6800TIP3   OH220356   4.844   7.223   2.098
 6800TIP3    H120357   4.823   7.147   2.152
 6800TIP3    H220358   4.760   7.256   2.068
 6801TIP3   OH220359   4.059   2.390   6.705
 6801TIP3    H120360   4.009   2.357   6.780
 6801TIP3    H220361   4.139   2.426   6.743
 6802TIP3   OH220362   2.298   3.696   5.137
 6802TIP3    H120363   2.242   3.635   5.185
 6802TIP3    H220364   2.271   3.782   5.169
 6803TIP3   OH220365   7.698   4.207   4.786
 6803TIP3    H120366   7.752   4.157   4.846
 6803TIP3    H220367   7.690   4.152   4.708
 6804TIP3   OH220368   3.498   6.996   6.712
 6804TIP3    H120369   3.472   6.905   6.697
 6804TIP3    H220370   3.500   7.004   6.808
 6805TIP3   OH220371   7.942   7.755   4.029
 6805TIP3    H120372   7.940   7.683   3.966
 6805TIP3    H220373   8.027   7.745   4.073
 6806TIP3   OH220374   6.689   3.571   3.180
 6806TIP3    H120375   6.740   3.642   3.140
 6806TIP3    H220376   6.601   3.606   3.187
 6807TIP3   OH220377   1.224   6.944   3.336
 6807TIP3    H120378   1.187   7.012   3.392
 6807TIP3    H220379   1.165   6.869   3.348
 6808TIP3   OH220380   0.418   5.692   0.838
 6808TIP3    H120381   0.502   5.728   0.868
 6808TIP3    H220382   0.393   5.747   0.764
 6809TIP3   OH220383   3.367   0.732   2.994
 6809TIP3    H120384   3.442   0.683   2.959
 6809TIP3    H220385   3.337   0.785   2.920
 6810TIP3   OH220386   8.180   7.004   1.781
 6810TIP3    H120387   8.092   7.030   1.809
 6810TIP3    H220388   8.223   6.978   1.863
 6811TIP3   OH220389   7.175   4.596   4.972
 6811TIP3    H120390   7.083   4.593   4.998
 6811TIP3    H220391   7.174   4.582   4.878
 6812TIP3   OH220392   7.260   6.698   1.479
 6812TIP3    H120393   7.227   6.681   1.391
 6812TIP3    H220394   7.250   6.615   1.526
 6813TIP3   OH220395   1.329   6.848   5.804
 6813TIP3    H120396   1.281   6.885   5.879
 6813TIP3    H220397   1.273   6.867   5.728
 6814TIP3   OH220398   3.536   2.459   6.247
 6814TIP3    H120399   3.551   2.512   6.325
 6814TIP3    H220400   3.574   2.374   6.269
 6815TIP3   OH220401   4.813   6.585   2.743
 6815TIP3    H120402   4.752   6.517   2.772
 6815TIP3    H220403   4.884   6.583   2.807
 6816TIP3   OH220404   4.327   3.662   5.991
 6816TIP3    H120405   4.277   3.591   6.032
 6816TIP3    H220406   4.297   3.741   6.035
 6817TIP3   OH220407   4.157   6.093   6.769
 6817TIP3    H120408   4.066   6.121   6.782
 6817TIP3    H220409   4.205   6.175   6.757
 6818TIP3   OH220410   5.007   5.028   0.414
 6818TIP3    H120411   5.016   5.032   0.509
 6818TIP3    H220412   5.092   5.056   0.380
 6819TIP3   OH220413   0.623   7.093   3.213
 6819TIP3    H120414   0.668   7.023   3.166
 6819TIP3    H220415   0.538   7.057   3.235
 6820TIP3   OH220416   3.268   7.545   0.821
 6820TIP3    H120417   3.227   7.499   0.748
 6820TIP3    H220418   3.341   7.592   0.781
 6821TIP3   OH220419   8.282   2.930   1.397
 6821TIP3    H120420   8.196   2.951   1.435
 6821TIP3    H220421   8.266   2.922   1.303
 6822TIP3   OH220422   0.109   1.660   1.625
 6822TIP3    H120423   0.094   1.749   1.592
 6822TIP3    H220424   0.201   1.660   1.654
 6823TIP3   OH220425   0.675   3.558   0.042
 6823TIP3    H120426   0.717   3.482   0.001
 6823TIP3    H220427   0.639   3.526   0.124
 6824TIP3   OH220428   0.633   2.509   4.769
 6824TIP3    H120429   0.657   2.580   4.709
 6824TIP3    H220430   0.694   2.439   4.749
 6825TIP3   OH220431   6.715   7.029   5.128
 6825TIP3    H120432   6.760   7.041   5.044
 6825TIP3    H220433   6.654   6.957   5.112
 6826TIP3   OH220434   4.170   2.227   5.297
 6826TIP3    H120435   4.194   2.171   5.223
 6826TIP3    H220436   4.253   2.245   5.341
 6827TIP3   OH220437   5.382   4.358   1.842
 6827TIP3    H120438   5.323   4.307   1.898
 6827TIP3    H220439   5.446   4.395   1.902
 6828TIP3   OH220440   2.810   0.021   2.558
 6828TIP3    H120441   2.800  -0.037   2.634
 6828TIP3    H220442   2.833   0.106   2.595
 6829TIP3   OH220443   3.273   2.135   3.006
 6829TIP3    H120444   3.225   2.216   2.991
 6829TIP3    H220445   3.332   2.155   3.079
 6830TIP3   OH220446   0.800   6.945   5.772
 6830TIP3    H120447   0.742   7.014   5.804
 6830TIP3    H220448   0.750   6.902   5.702
 6831TIP3   OH220449   4.405   3.293   2.604
 6831TIP3    H120450   4.477   3.295   2.667
 6831TIP3    H220451   4.338   3.350   2.642
 6832TIP3   OH220452   6.202   6.282   4.657
 6832TIP3    H120453   6.272   6.302   4.719
 6832TIP3    H220454   6.183   6.366   4.615
 6833TIP3   OH220455   2.222   1.920   1.821
 6833TIP3    H120456   2.288   1.914   1.752
 6833TIP3    H220457   2.196   2.013   1.821
 6834TIP3   OH220458   7.601   4.715   5.288
 6834TIP3    H120459   7.594   4.788   5.348
 6834TIP3    H220460   7.591   4.754   5.201
 6835TIP3   OH220461   3.865   6.077   0.324
 6835TIP3    H120462   3.816   6.151   0.361
 6835TIP3    H220463   3.817   6.054   0.245
 6836TIP3   OH220464   2.695   4.477   1.920
 6836TIP3    H120465   2.675   4.392   1.958
 6836TIP3    H220466   2.743   4.524   1.988
 6837TIP3   OH220467   5.345   1.419   1.925
 6837TIP3    H120468   5.424   1.456   1.964
 6837TIP3    H220469   5.339   1.462   1.840
 6838TIP3   OH220470   2.019   4.217   4.796
 6838TIP3    H120471   1.974   4.301   4.800
 6838TIP3    H220472   1.949   4.153   4.780
 6839TIP3   OH220473   6.642   1.692   0.983
 6839TIP3    H120474   6.663   1.701   0.890
 6839TIP3    H220475   6.547   1.679   0.985
 6840TIP3   OH220476   1.724   0.775   1.109
 6840TIP3    H120477   1.760   0.813   1.190
 6840TIP3    H220478   1.697   0.851   1.057
 6841TIP3   OH220479   1.473   6.954   1.942
 6841TIP3    H120480   1.493   6.913   2.026
 6841TIP3    H220481   1.511   7.042   1.947
 6842TIP3   OH220482   0.934   6.880   2.385
 6842TIP3    H120483   0.906   6.838   2.467
 6842TIP3    H220484   0.857   6.876   2.329
 6843TIP3   OH220485   2.773   6.930   6.002
 6843TIP3    H120486   2.788   7.023   6.019
 6843TIP3    H220487   2.687   6.927   5.960
 6844TIP3   OH220488   7.458   6.071   2.659
 6844TIP3    H120489   7.428   6.031   2.578
 6844TIP3    H220490   7.390   6.135   2.682
 6845TIP3   OH220491   5.030   0.866   0.401
 6845TIP3    H120492   5.000   0.927   0.333
 6845TIP3    H220493   4.950   0.845   0.450
 6846TIP3   OH220494   0.302   6.925   1.590
 6846TIP3    H120495   0.272   6.911   1.680
 6846TIP3    H220496   0.267   7.011   1.566
 6847TIP3   OH220497   7.744   3.081   0.479
 6847TIP3    H120498   7.821   3.062   0.532
 6847TIP3    H220499   7.761   3.036   0.396
 6848TIP3   OH220500   4.872   6.913   4.092
 6848TIP3    H120501   4.857   6.955   4.177
 6848TIP3    H220502   4.853   6.820   4.107
 6849TIP3   OH220503   0.613   2.625   4.341
 6849TIP3    H120504   0.590   2.718   4.351
 6849TIP3    H220505   0.674   2.609   4.413
 6850TIP3   OH220506   0.013   3.399   1.931
 6850TIP3    H120507   0.034   3.419   2.023
 6850TIP3    H220508  -0.057   3.334   1.935
 6851TIP3   OH220509   5.728   3.763   3.365
 6851TIP3    H120510   5.802   3.768   3.304
 6851TIP3    H220511   5.747   3.686   3.419
 6852TIP3   OH220512   6.309   5.439   1.572
 6852TIP3    H120513   6.286   5.461   1.662
 6852TIP3    H220514   6.405   5.448   1.570
 6853TIP3   OH220515   3.705   3.644   4.202
 6853TIP3    H120516   3.625   3.623   4.250
 6853TIP3    H220517   3.678   3.709   4.138
 6854TIP3   OH220518   7.682   1.581   2.530
 6854TIP3    H120519   7.686   1.486   2.526
 6854TIP3    H220520   7.773   1.610   2.525
 6855TIP3   OH220521   3.918   1.192   3.476
 6855TIP3    H120522   3.858   1.176   3.550
 6855TIP3    H220523   3.860   1.198   3.400
 6856TIP3   OH220524   6.286   2.588   0.790
 6856TIP3    H120525   6.333   2.592   0.874
 6856TIP3    H220526   6.341   2.533   0.735
 6857TIP3   OH220527   5.570   7.186   5.476
 6857TIP3    H120528   5.617   7.249   5.531
 6857TIP3    H220529   5.505   7.238   5.429
 6858TIP3   OH220530   7.553   3.196   1.823
 6858TIP3    H120531   7.528   3.283   1.854
 6858TIP3    H220532   7.545   3.140   1.901
 6859TIP3   OH220533   6.706   5.928   6.203
 6859TIP3    H120534   6.615   5.911   6.181
 6859TIP3    H220535   6.734   5.850   6.252
 6860TIP3   OH220536   4.081   0.995   0.360
 6860TIP3    H120537   4.014   0.928   0.342
 6860TIP3    H220538   4.164   0.950   0.343
 6861TIP3   OH220539   4.969   0.476   4.692
 6861TIP3    H120540   5.041   0.460   4.631
 6861TIP3    H220541   4.939   0.565   4.672
 6862TIP3   OH220542   6.052   2.078   0.463
 6862TIP3    H120543   6.139   2.043   0.485
 6862TIP3    H220544   6.012   2.011   0.409
 6863TIP3   OH220545   7.344   5.501   1.935
 6863TIP3    H120546   7.327   5.408   1.926
 6863TIP3    H220547   7.432   5.506   1.972
 6864TIP3   OH220548   1.838   5.878   0.386
 6864TIP3    H120549   1.769   5.814   0.366
 6864TIP3    H220550   1.888   5.885   0.305
 6865TIP3   OH220551   7.609   0.083   0.951
 6865TIP3    H120552   7.627  -0.005   0.984
 6865TIP3    H220553   7.514   0.086   0.940
 6866TIP3   OH220554   0.085   6.982   1.384
 6866TIP3    H120555   0.133   6.899   1.376
 6866TIP3    H220556   0.083   6.999   1.478
 6867TIP3   OH220557   0.023   6.511   6.698
 6867TIP3    H120558  -0.036   6.437   6.707
 6867TIP3    H220559   0.107   6.480   6.732
 6868TIP3   OH220560   6.731   4.725   0.995
 6868TIP3    H120561   6.820   4.693   1.013
 6868TIP3    H220562   6.677   4.646   0.995
 6869TIP3   OH220563   3.574   0.493   4.053
 6869TIP3    H120564   3.599   0.416   4.104
 6869TIP3    H220565   3.624   0.485   3.972
 6870TIP3   OH220566   0.023   4.168   0.410
 6870TIP3    H120567   0.055   4.210   0.490
 6870TIP3    H220568  -0.042   4.229   0.375
 6871TIP3   OH220569   1.169   6.729   6.718
 6871TIP3    H120570   1.228   6.729   6.793
 6871TIP3    H220571   1.227   6.717   6.642
 6872TIP3   OH220572   5.004   4.963   5.732
 6872TIP3    H120573   4.947   4.898   5.690
 6872TIP3    H220574   5.062   4.992   5.661
 6873TIP3   OH220575   1.907   7.160   4.490
 6873TIP3    H120576   1.835   7.126   4.436
 6873TIP3    H220577   1.962   7.084   4.506
 6874TIP3   OH220578   6.365   5.014   5.203
 6874TIP3    H120579   6.315   5.014   5.121
 6874TIP3    H220580   6.327   4.943   5.254
 6875TIP3   OH220581   3.283   0.990   5.503
 6875TIP3    H120582   3.221   0.918   5.514
 6875TIP3    H220583   3.283   1.035   5.587
 6876TIP3   OH220584   6.935   7.269   1.098
 6876TIP3    H120585   6.983   7.206   1.045
 6876TIP3    H220586   6.973   7.354   1.075
 6877TIP3   OH220587   1.344   5.371   3.816
 6877TIP3    H120588   1.335   5.282   3.782
 6877TIP3    H220589   1.438   5.388   3.816
 6878TIP3   OH220590   7.732   1.768   0.221
 6878TIP3    H120591   7.785   1.818   0.158
 6878TIP3    H220592   7.668   1.832   0.254
 6879TIP3   OH220593   0.255   1.564   2.329
 6879TIP3    H120594   0.290   1.591   2.245
 6879TIP3    H220595   0.288   1.475   2.341
 6880TIP3   OH220596   7.207   3.674   6.625
 6880TIP3    H120597   7.209   3.601   6.687
 6880TIP3    H220598   7.114   3.693   6.614
 6881TIP3   OH220599   1.976   1.771   2.655
 6881TIP3    H120600   2.067   1.774   2.685
 6881TIP3    H220601   1.940   1.857   2.676
 6882TIP3   OH220602   4.135   4.710   2.517
 6882TIP3    H120603   4.068   4.741   2.457
 6882TIP3    H220604   4.118   4.758   2.598
 6883TIP3   OH220605   5.434   6.276   6.110
 6883TIP3    H120606   5.446   6.344   6.177
 6883TIP3    H220607   5.431   6.194   6.159
 6884TIP3   OH220608   4.175   4.642   3.292
 6884TIP3    H120609   4.113   4.692   3.345
 6884TIP3    H220610   4.122   4.574   3.250
 6885TIP3   OH220611   4.303   6.735   1.935
 6885TIP3    H120612   4.253   6.751   1.855
 6885TIP3    H220613   4.395   6.744   1.908
 6886TIP3   OH220614   3.221   2.753   3.877
 6886TIP3    H120615   3.146   2.727   3.931
 6886TIP3    H220616   3.253   2.671   3.839
 6887TIP3   OH220617   3.688   7.219   5.054
 6887TIP3    H120618   3.612   7.263   5.015
 6887TIP3    H220619   3.727   7.285   5.111
 6888TIP3   OH220620   2.917   5.227   4.869
 6888TIP3    H120621   2.897   5.316   4.841
 6888TIP3    H220622   2.965   5.189   4.796
 6889TIP3   OH220623   7.432   3.766   4.728
 6889TIP3    H120624   7.525   3.786   4.720
 6889TIP3    H220625   7.423   3.678   4.692
 6890TIP3   OH220626   6.678   1.411   3.192
 6890TIP3    H120627   6.692   1.317   3.199
 6890TIP3    H220628   6.656   1.425   3.099
 6891TIP3   OH220629   0.819   5.990   1.867
 6891TIP3    H120630   0.818   5.898   1.895
 6891TIP3    H220631   0.733   6.024   1.892
 6892TIP3   OH220632   4.558   7.564   1.365
 6892TIP3    H120633   4.573   7.505   1.440
 6892TIP3    H220634   4.604   7.644   1.389
 6893TIP3   OH220635   0.778   7.335   3.122
 6893TIP3    H120636   0.731   7.252   3.129
 6893TIP3    H220637   0.720   7.399   3.163
 6894TIP3   OH220638   8.263   6.943   4.193
 6894TIP3    H120639   8.207   6.884   4.143
 6894TIP3    H220640   8.347   6.898   4.197
 6895TIP3   OH220641   0.457   4.618   3.720
 6895TIP3    H120642   0.400   4.608   3.797
 6895TIP3    H220643   0.473   4.712   3.714
 6896TIP3   OH220644   0.761   5.798   4.212
 6896TIP3    H120645   0.802   5.859   4.272
 6896TIP3    H220646   0.717   5.853   4.147
 6897TIP3   OH220647   6.966   2.923   5.588
 6897TIP3    H120648   6.907   2.987   5.627
 6897TIP3    H220649   7.053   2.962   5.600
 6898TIP3   OH220650   7.124   7.451   1.021
 6898TIP3    H120651   7.076   7.524   0.983
 6898TIP3    H220652   7.210   7.455   0.980
 6899TIP3   OH220653   6.748   0.790   6.594
 6899TIP3    H120654   6.772   0.881   6.613
 6899TIP3    H220655   6.671   0.773   6.649
 6900TIP3   OH220656   1.222   2.873   6.047
 6900TIP3    H120657   1.294   2.846   5.989
 6900TIP3    H220658   1.199   2.961   6.016
 6901TIP3   OH220659   8.162   5.384   5.543
 6901TIP3    H120660   8.181   5.344   5.628
 6901TIP3    H220661   8.245   5.425   5.517
 6902TIP3   OH220662   4.771   3.087   4.224
 6902TIP3    H120663   4.780   3.175   4.262
 6902TIP3    H220664   4.741   3.033   4.297
 6903TIP3   OH220665   1.684   0.490   3.286
 6903TIP3    H120666   1.647   0.431   3.221
 6903TIP3    H220667   1.610   0.517   3.340
 6904TIP3   OH220668   4.623   5.530   6.667
 6904TIP3    H120669   4.598   5.451   6.619
 6904TIP3    H220670   4.541   5.578   6.678
 6905TIP3   OH220671   7.744   7.389   5.610
 6905TIP3    H120672   7.763   7.483   5.610
 6905TIP3    H220673   7.649   7.384   5.605
 6906TIP3   OH220674   1.499   7.779   5.326
 6906TIP3    H120675   1.516   7.735   5.409
 6906TIP3    H220676   1.426   7.838   5.345
 6907TIP3   OH220677   1.723   1.426   0.765
 6907TIP3    H120678   1.762   1.475   0.692
 6907TIP3    H220679   1.629   1.431   0.750
 6908TIP3   OH220680   7.239   7.295   3.607
 6908TIP3    H120681   7.181   7.341   3.666
 6908TIP3    H220682   7.255   7.356   3.535
 6909TIP3   OH220683   0.067   3.077   0.236
 6909TIP3    H120684   0.144   3.065   0.180
 6909TIP3    H220685   0.044   3.169   0.227
 6910TIP3   OH220686   4.162   7.552   5.412
 6910TIP3    H120687   4.167   7.526   5.320
 6910TIP3    H220688   4.073   7.528   5.438
 6911TIP3   OH220689   0.384   4.709   2.449
 6911TIP3    H120690   0.468   4.753   2.460
 6911TIP3    H220691   0.393   4.661   2.367
 6912TIP3   OH220692   3.592   6.381   0.819
 6912TIP3    H120693   3.524   6.342   0.764
 6912TIP3    H220694   3.595   6.326   0.897
 6913TIP3   OH220695   2.672   4.768   6.789
 6913TIP3    H120696   2.684   4.777   6.694
 6913TIP3    H220697   2.582   4.798   6.805
 6914TIP3   OH220698   1.051   4.044   2.946
 6914TIP3    H120699   1.102   4.048   3.027
 6914TIP3    H220700   1.115   4.063   2.877
 6915TIP3   OH220701   7.188   0.896   0.564
 6915TIP3    H120702   7.153   0.941   0.487
 6915TIP3    H220703   7.110   0.858   0.606
 6916TIP3   OH220704   8.241   4.250   1.330
 6916TIP3    H120705   8.232   4.168   1.378
 6916TIP3    H220706   8.217   4.318   1.394
 6917TIP3   OH220707   6.851   5.761   3.296
 6917TIP3    H120708   6.883   5.671   3.297
 6917TIP3    H220709   6.781   5.761   3.231
 6918TIP3   OH220710   5.983   5.138   5.851
 6918TIP3    H120711   5.982   5.234   5.844
 6918TIP3    H220712   5.947   5.108   5.767
 6919TIP3   OH220713   0.054   3.228   5.507
 6919TIP3    H120714   0.069   3.252   5.415
 6919TIP3    H220715   0.034   3.135   5.504
 6920TIP3   OH220716   7.512   7.040   3.799
 6920TIP3    H120717   7.539   6.952   3.773
 6920TIP3    H220718   7.577   7.066   3.865
 6921TIP3   OH220719   1.652   7.391   6.433
 6921TIP3    H120720   1.584   7.349   6.486
 6921TIP3    H220721   1.723   7.410   6.495
 6922TIP3   OH220722   3.751   6.980   5.561
 6922TIP3    H120723   3.782   6.975   5.651
 6922TIP3    H220724   3.667   6.935   5.561
 6923TIP3   OH220725   7.376   3.172   2.929
 6923TIP3    H120726   7.438   3.105   2.959
 6923TIP3    H220727   7.419   3.255   2.951
 6924TIP3   OH220728   5.548   4.251   6.596
 6924TIP3    H120729   5.627   4.305   6.588
 6924TIP3    H220730   5.511   4.274   6.680
 6925TIP3   OH220731   0.663   7.160   4.627
 6925TIP3    H120732   0.613   7.183   4.705
 6925TIP3    H220733   0.728   7.097   4.658
 6926TIP3   OH220734   3.259   3.406   6.718
 6926TIP3    H120735   3.234   3.498   6.715
 6926TIP3    H220736   3.342   3.405   6.765
 6927TIP3   OH220737   2.581   6.943   0.481
 6927TIP3    H120738   2.613   7.029   0.453
 6927TIP3    H220739   2.488   6.944   0.460
 6928TIP3   OH220740   0.553   7.607   6.382
 6928TIP3    H120741   0.572   7.648   6.467
 6928TIP3    H220742   0.603   7.659   6.319
 6929TIP3   OH220743   0.402   4.053   1.428
 6929TIP3    H120744   0.335   3.986   1.417
 6929TIP3    H220745   0.398   4.105   1.348
 6930TIP3   OH220746   7.031   7.121   6.572
 6930TIP3    H120747   7.126   7.113   6.577
 6930TIP3    H220748   7.014   7.151   6.482
 6931TIP3   OH220749   7.795   7.630   3.616
 6931TIP3    H120750   7.796   7.535   3.600
 6931TIP3    H220751   7.775   7.668   3.530
 6932TIP3   OH220752   5.936   1.014   5.411
 6932TIP3    H120753   5.860   1.055   5.452
 6932TIP3    H220754   5.938   0.926   5.448
 6933TIP3   OH220755   7.091   0.495   3.525
 6933TIP3    H120756   7.166   0.549   3.550
 6933TIP3    H220757   7.037   0.490   3.603
 6934TIP3   OH220758   2.384   4.070   0.219
 6934TIP3    H120759   2.398   4.092   0.311
 6934TIP3    H220760   2.463   4.023   0.193
 6935TIP3   OH220761   4.931   5.752   3.302
 6935TIP3    H120762   4.841   5.782   3.287
 6935TIP3    H220763   4.927   5.657   3.292
 6936TIP3   OH220764   5.362   6.670   2.232
 6936TIP3    H120765   5.312   6.665   2.314
 6936TIP3    H220766   5.406   6.585   2.226
 6937TIP3   OH220767   4.467   7.760   5.609
 6937TIP3    H120768   4.558   7.752   5.638
 6937TIP3    H220769   4.423   7.684   5.648
 6938TIP3   OH220770   4.632   0.651   0.858
 6938TIP3    H120771   4.638   0.577   0.918
 6938TIP3    H220772   4.691   0.717   0.895
 6939TIP3   OH220773   6.916   3.253   1.465
 6939TIP3    H120774   6.899   3.159   1.472
 6939TIP3    H220775   6.842   3.287   1.416
 6940TIP3   OH220776   2.044   6.403   0.472
 6940TIP3    H120777   2.035   6.493   0.502
 6940TIP3    H220778   2.085   6.357   0.546
 6941TIP3   OH220779   6.539   2.430   3.828
 6941TIP3    H120780   6.577   2.347   3.799
 6941TIP3    H220781   6.573   2.495   3.766
 6942TIP3   OH220782   4.813   3.149   2.334
 6942TIP3    H120783   4.721   3.153   2.309
 6942TIP3    H220784   4.851   3.230   2.300
 6943TIP3   OH220785   1.305   7.459   6.091
 6943TIP3    H120786   1.255   7.533   6.058
 6943TIP3    H220787   1.363   7.496   6.157
 6944TIP3   OH220788   4.723   7.673   1.131
 6944TIP3    H120789   4.817   7.659   1.118
 6944TIP3    H220790   4.712   7.672   1.226
 6945TIP3   OH220791   4.443   1.031   1.451
 6945TIP3    H120792   4.500   1.025   1.374
 6945TIP3    H220793   4.497   0.999   1.523
 6946TIP3   OH220794   0.729   3.649   0.820
 6946TIP3    H120795   0.773   3.724   0.860
 6946TIP3    H220796   0.762   3.647   0.730
 6947TIP3   OH220797   7.667   7.175   2.465
 6947TIP3    H120798   7.627   7.115   2.529
 6947TIP3    H220799   7.672   7.259   2.511
 6948TIP3   OH220800   1.042   0.037   0.748
 6948TIP3    H120801   0.971   0.043   0.812
 6948TIP3    H220802   1.001   0.058   0.664
 6949TIP3   OH220803   3.026   0.289   5.283
 6949TIP3    H120804   3.044   0.383   5.279
 6949TIP3    H220805   3.000   0.273   5.373
 6950TIP3   OH220806   3.550   4.785   0.152
 6950TIP3    H120807   3.581   4.788   0.243
 6950TIP3    H220808   3.559   4.693   0.127
 6951TIP3   OH220809   1.373   7.226   1.144
 6951TIP3    H120810   1.291   7.193   1.106
 6951TIP3    H220811   1.344   7.281   1.218
 6952TIP3   OH220812   5.639   1.010   1.657
 6952TIP3    H120813   5.719   1.055   1.632
 6952TIP3    H220814   5.576   1.034   1.589
 6953TIP3   OH220815   6.525   0.147   0.889
 6953TIP3    H120816   6.605   0.153   0.942
 6953TIP3    H220817   6.556   0.152   0.799
 6954TIP3   OH220818   8.009   2.828   2.866
 6954TIP3    H120819   8.024   2.832   2.961
 6954TIP3    H220820   8.096   2.837   2.827
 6955TIP3   OH220821   3.609   1.098   6.605
 6955TIP3    H120822   3.612   1.140   6.691
 6955TIP3    H220823   3.568   1.013   6.621
 6956TIP3   OH220824   4.857   2.932   5.353
 6956TIP3    H120825   4.886   3.023   5.349
 6956TIP3    H220826   4.799   2.928   5.429
 6957TIP3   OH220827   2.145   1.268   2.817
 6957TIP3    H120828   2.111   1.358   2.815
 6957TIP3    H220829   2.088   1.219   2.757
 6958TIP3   OH220830   5.425   7.797   1.423
 6958TIP3    H120831   5.479   7.729   1.383
 6958TIP3    H220832   5.400   7.761   1.508
 6959TIP3   OH220833   3.685   6.858   3.576
 6959TIP3    H120834   3.642   6.776   3.598
 6959TIP3    H220835   3.698   6.854   3.481
 6960TIP3   OH220836   0.123   1.573   2.852
 6960TIP3    H120837   0.071   1.493   2.845
 6960TIP3    H220838   0.123   1.609   2.763
 6961TIP3   OH220839   1.116   5.863   6.727
 6961TIP3    H120840   1.086   5.868   6.818
 6961TIP3    H220841   1.054   5.803   6.685
 6962TIP3   OH220842   5.268   1.239   3.479
 6962TIP3    H120843   5.259   1.319   3.529
 6962TIP3    H220844   5.306   1.267   3.395
 6963TIP3   OH220845   7.548   3.497   4.405
 6963TIP3    H120846   7.600   3.567   4.366
 6963TIP3    H220847   7.551   3.514   4.499
 6964TIP3   OH220848   6.112   4.990   5.494
 6964TIP3    H120849   6.143   4.922   5.434
 6964TIP3    H220850   6.177   5.059   5.488
 6965TIP3   OH220851   7.572   6.216   0.326
 6965TIP3    H120852   7.526   6.296   0.350
 6965TIP3    H220853   7.554   6.205   0.233
 6966TIP3   OH220854   2.127   0.453   4.708
 6966TIP3    H120855   2.163   0.460   4.796
 6966TIP3    H220856   2.129   0.360   4.688
 6967TIP3   OH220857   7.644   4.045   0.475
 6967TIP3    H120858   7.715   4.105   0.455
 6967TIP3    H220859   7.621   4.063   0.566
 6968TIP3   OH220860   4.725   5.256   2.971
 6968TIP3    H120861   4.775   5.186   3.014
 6968TIP3    H220862   4.636   5.221   2.965
 6969TIP3   OH220863   7.934   4.405   5.976
 6969TIP3    H120864   7.968   4.466   6.042
 6969TIP3    H220865   7.911   4.460   5.902
 6970TIP3   OH220866   2.126   7.093   4.824
 6970TIP3    H120867   2.045   7.075   4.775
 6970TIP3    H220868   2.101   7.160   4.888
 6971TIP3   OH220869   5.847   4.384   0.886
 6971TIP3    H120870   5.801   4.338   0.955
 6971TIP3    H220871   5.882   4.462   0.928
 6972TIP3   OH220872   7.356   3.511   1.406
 6972TIP3    H120873   7.391   3.597   1.431
 6972TIP3    H220874   7.337   3.519   1.312
 6973TIP3   OH220875   2.526   0.856   5.509
 6973TIP3    H120876   2.620   0.857   5.493
 6973TIP3    H220877   2.491   0.803   5.438
 6974TIP3   OH220878   6.865   4.939   3.612
 6974TIP3    H120879   6.769   4.936   3.615
 6974TIP3    H220880   6.885   5.000   3.541
 6975TIP3   OH220881   6.273   7.432   2.845
 6975TIP3    H120882   6.295   7.490   2.772
 6975TIP3    H220883   6.181   7.449   2.862
 6976TIP3   OH220884   2.778   0.232   1.668
 6976TIP3    H120885   2.695   0.234   1.620
 6976TIP3    H220886   2.788   0.141   1.695
 6977TIP3   OH220887   2.443   6.612   2.170
 6977TIP3    H120888   2.407   6.676   2.232
 6977TIP3    H220889   2.446   6.657   2.087
 6978TIP3   OH220890   3.982   1.052   1.759
 6978TIP3    H120891   4.077   1.042   1.764
 6978TIP3    H220892   3.956   1.077   1.848
 6979TIP3   OH220893   2.330   4.072   2.711
 6979TIP3    H120894   2.287   4.055   2.795
 6979TIP3    H220895   2.360   4.163   2.717
 6980TIP3   OH220896   3.051   0.217   3.053
 6980TIP3    H120897   3.065   0.311   3.055
 6980TIP3    H220898   3.067   0.191   2.962
 6981TIP3   OH220899   0.513   1.029   1.965
 6981TIP3    H120900   0.529   0.936   1.953
 6981TIP3    H220901   0.575   1.072   1.907
 6982TIP3   OH220902   4.074   2.344   3.888
 6982TIP3    H120903   4.167   2.346   3.865
 6982TIP3    H220904   4.070   2.293   3.968
 6983TIP3   OH220905   0.500   5.544   2.328
 6983TIP3    H120906   0.557   5.533   2.252
 6983TIP3    H220907   0.535   5.484   2.393
 6984TIP3   OH220908   0.186   6.791   4.071
 6984TIP3    H120909   0.186   6.697   4.051
 6984TIP3    H220910   0.128   6.829   4.006
 6985TIP3   OH220911   0.874   0.269   5.451
 6985TIP3    H120912   0.807   0.276   5.383
 6985TIP3    H220913   0.878   0.356   5.490
 6986TIP3   OH220914   3.682   3.612   0.459
 6986TIP3    H120915   3.706   3.562   0.381
 6986TIP3    H220916   3.589   3.593   0.472
 6987TIP3   OH220917   3.192   1.019   2.693
 6987TIP3    H120918   3.128   0.963   2.736
 6987TIP3    H220919   3.277   0.988   2.726
 6988TIP3   OH220920   7.259   1.275   0.010
 6988TIP3    H120921   7.196   1.204  -0.001
 6988TIP3    H220922   7.297   1.260   0.097
 6989TIP3   OH220923   7.635   3.525   4.676
 6989TIP3    H120924   7.703   3.587   4.650
 6989TIP3    H220925   7.679   3.464   4.736
 6990TIP3   OH220926   4.995   5.571   3.010
 6990TIP3    H120927   5.043   5.556   3.092
 6990TIP3    H220928   5.058   5.551   2.941
 6991TIP3   OH220929   5.517   3.615   6.207
 6991TIP3    H120930   5.442   3.597   6.149
 6991TIP3    H220931   5.568   3.534   6.206
 6992TIP3   OH220932   5.785   7.369   5.602
 6992TIP3    H120933   5.827   7.444   5.643
 6992TIP3    H220934   5.693   7.376   5.626
 6993TIP3   OH220935   4.780   5.048   2.108
 6993TIP3    H120936   4.847   5.117   2.111
 6993TIP3    H220937   4.824   4.971   2.144
 6994TIP3   OH220938   4.401   1.997   0.284
 6994TIP3    H120939   4.362   2.048   0.213
 6994TIP3    H220940   4.341   2.008   0.358
 6995TIP3   OH220941   6.264   1.736   0.658
 6995TIP3    H120942   6.308   1.773   0.735
 6995TIP3    H220943   6.172   1.760   0.669
 6996TIP3   OH220944   2.240   0.794   6.104
 6996TIP3    H120945   2.175   0.726   6.125
 6996TIP3    H220946   2.271   0.771   6.017
 6997TIP3   OH220947   0.548   3.192   2.039
 6997TIP3    H120948   0.513   3.249   2.108
 6997TIP3    H220949   0.473   3.140   2.010
 6998TIP3   OH220950   1.299   2.056   5.490
 6998TIP3    H120951   1.333   2.059   5.580
 6998TIP3    H220952   1.373   2.082   5.436
 6999TIP3   OH220953   6.945   4.235   1.734
 6999TIP3    H120954   7.007   4.180   1.687
 6999TIP3    H220955   6.988   4.320   1.740
 7000TIP3   OH220956   5.780   0.897   0.407
 7000TIP3    H120957   5.752   0.984   0.438
 7000TIP3    H220958   5.803   0.911   0.316
 7001TIP3   OH220959   0.628   5.267   5.182
 7001TIP3    H120960   0.545   5.298   5.219
 7001TIP3    H220961   0.602   5.203   5.116
 7002TIP3   OH220962   8.034   6.118   5.778
 7002TIP3    H120963   8.009   6.035   5.819
 7002TIP3    H220964   8.097   6.157   5.837
 7003TIP3   OH220965   1.011   6.217   4.850
 7003TIP3    H120966   1.014   6.265   4.933
 7003TIP3    H220967   1.046   6.279   4.786
 7004TIP3   OH220968   1.208   6.401   2.692
 7004TIP3    H120969   1.158   6.453   2.630
 7004TIP3    H220970   1.269   6.463   2.733
 7005TIP3   OH220971   5.057   0.129   2.817
 7005TIP3    H120972   5.054   0.197   2.750
 7005TIP3    H220973   5.092   0.052   2.772
 7006TIP3   OH220974   4.890   0.898   5.811
 7006TIP3    H120975   4.826   0.888   5.881
 7006TIP3    H220976   4.975   0.885   5.853
 7007TIP3   OH220977   3.207   3.021   3.801
 7007TIP3    H120978   3.177   2.931   3.812
 7007TIP3    H220979   3.134   3.074   3.831
 7008TIP3   OH220980   1.299   1.993   1.442
 7008TIP3    H120981   1.349   2.048   1.382
 7008TIP3    H220982   1.273   2.053   1.512
 7009TIP3   OH220983   6.616   7.553   0.285
 7009TIP3    H120984   6.697   7.543   0.236
 7009TIP3    H220985   6.644   7.580   0.373
 7010TIP3   OH220986   7.263   6.356   3.106
 7010TIP3    H120987   7.317   6.330   3.180
 7010TIP3    H220988   7.248   6.274   3.058
 7011TIP3   OH220989   0.617   0.525   2.853
 7011TIP3    H120990   0.709   0.500   2.854
 7011TIP3    H220991   0.618   0.620   2.842
 7012TIP3   OH220992   0.140   0.371   2.938
 7012TIP3    H120993   0.175   0.330   2.858
 7012TIP3    H220994   0.186   0.455   2.944
 7013TIP3   OH220995   4.805   6.524   1.545
 7013TIP3    H120996   4.765   6.608   1.568
 7013TIP3    H220997   4.891   6.526   1.587
 7014TIP3   OH220998   2.264   0.872   4.058
 7014TIP3    H120999   2.196   0.935   4.081
 7014TIP3    H221000   2.336   0.925   4.025
 7015TIP3   OH221001   2.818   0.554   2.655
 7015TIP3    H121002   2.851   0.526   2.740
 7015TIP3    H221003   2.868   0.632   2.634
 7016TIP3   OH221004   4.621   7.438   1.599
 7016TIP3    H121005   4.703   7.392   1.618
 7016TIP3    H221006   4.557   7.401   1.659
 7017TIP3   OH221007   4.935   5.013   5.429
 7017TIP3    H121008   4.899   5.098   5.453
 7017TIP3    H221009   4.868   4.974   5.373
 7018TIP3   OH221010   6.054   5.291   2.415
 7018TIP3    H121011   6.039   5.352   2.343
 7018TIP3    H221012   6.083   5.210   2.373
 7019TIP3   OH221013   0.831   5.508   4.411
 7019TIP3    H121014   0.880   5.511   4.329
 7019TIP3    H221015   0.844   5.420   4.445
 7020TIP3   OH221016   1.023   1.241   3.100
 7020TIP3    H121017   0.936   1.202   3.100
 7020TIP3    H221018   1.033   1.276   3.011
 7021TIP3   OH221019   2.458   0.308   6.791
 7021TIP3    H121020   2.421   0.220   6.783
 7021TIP3    H221021   2.545   0.294   6.830
 7022TIP3   OH221022   5.331   7.137   0.481
 7022TIP3    H121023   5.415   7.096   0.460
 7022TIP3    H221024   5.336   7.224   0.441
 7023TIP3   OH221025   4.045   4.433   0.316
 7023TIP3    H121026   4.055   4.356   0.372
 7023TIP3    H221027   4.001   4.497   0.372
 7024TIP3   OH221028   5.961   6.137   6.252
 7024TIP3    H121029   5.990   6.212   6.200
 7024TIP3    H221030   6.018   6.138   6.329
 7025TIP3   OH221031   7.316   1.746   2.217
 7025TIP3    H121032   7.377   1.767   2.288
 7025TIP3    H221033   7.230   1.746   2.257
 7026TIP3   OH221034   6.138   2.770   1.060
 7026TIP3    H121035   6.094   2.728   0.986
 7026TIP3    H221036   6.190   2.700   1.099
 7027TIP3   OH221037   2.746   6.595   0.417
 7027TIP3    H121038   2.654   6.594   0.390
 7027TIP3    H221039   2.747   6.644   0.499
 7028TIP3   OH221040   3.279   6.537   2.595
 7028TIP3    H121041   3.279   6.493   2.509
 7028TIP3    H221042   3.189   6.527   2.627
 7029TIP3   OH221043   0.626   4.071   0.781
 7029TIP3    H121044   0.621   4.058   0.876
 7029TIP3    H221045   0.570   4.002   0.744
 7030TIP3   OH221046   2.205   1.741   5.749
 7030TIP3    H121047   2.251   1.695   5.819
 7030TIP3    H221048   2.202   1.678   5.677
 7031TIP3   OH221049   8.127   2.024   6.436
 7031TIP3    H121050   8.179   2.003   6.513
 7031TIP3    H221051   8.165   2.105   6.402
 7032TIP3   OH221052   2.414   5.381   2.432
 7032TIP3    H121053   2.380   5.446   2.493
 7032TIP3    H221054   2.472   5.430   2.374
 7033TIP3   OH221055   5.671   3.210   2.593
 7033TIP3    H121056   5.729   3.284   2.582
 7033TIP3    H221057   5.601   3.242   2.651
 7034TIP3   OH221058   7.167   6.727   2.811
 7034TIP3    H121059   7.081   6.729   2.769
 7034TIP3    H221060   7.210   6.649   2.774
 7035TIP3   OH221061   6.858   6.476   0.728
 7035TIP3    H121062   6.825   6.386   0.719
 7035TIP3    H221063   6.798   6.517   0.790
 7036TIP3   OH221064   1.610   1.582   2.769
 7036TIP3    H121065   1.595   1.652   2.833
 7036TIP3    H221066   1.525   1.539   2.761
 7037TIP3   OH221067   6.576   1.844   5.107
 7037TIP3    H121068   6.657   1.837   5.157
 7037TIP3    H221069   6.566   1.758   5.065
 7038TIP3   OH221070   4.260   7.724   1.797
 7038TIP3    H121071   4.319   7.739   1.871
 7038TIP3    H221072   4.180   7.689   1.837
 7039TIP3   OH221073   0.885   3.227   4.761
 7039TIP3    H121074   0.834   3.305   4.738
 7039TIP3    H221075   0.827   3.154   4.742
 7040TIP3   OH221076   6.388   1.224   2.933
 7040TIP3    H121077   6.309   1.178   2.904
 7040TIP3    H221078   6.415   1.177   3.013
 7041TIP3   OH221079   0.488   6.558   4.097
 7041TIP3    H121080   0.483   6.482   4.154
 7041TIP3    H221081   0.498   6.632   4.156
 7042TIP3   OH221082   0.344   3.048   2.631
 7042TIP3    H121083   0.416   3.019   2.576
 7042TIP3    H221084   0.284   3.091   2.571
 7043TIP3   OH221085   6.789   0.450   0.294
 7043TIP3    H121086   6.733   0.480   0.366
 7043TIP3    H221087   6.843   0.381   0.334
 7044TIP3   OH221088   7.341   0.215   3.249
 7044TIP3    H121089   7.341   0.299   3.203
 7044TIP3    H221090   7.352   0.150   3.179
 7045TIP3   OH221091   5.889   1.044   3.086
 7045TIP3    H121092   5.880   1.128   3.041
 7045TIP3    H221093   5.801   1.025   3.119
 7046TIP3   OH221094   3.362   7.385   2.755
 7046TIP3    H121095   3.346   7.429   2.671
 7046TIP3    H221096   3.456   7.398   2.770
 7047TIP3   OH221097   3.125   5.851   2.644
 7047TIP3    H121098   3.148   5.776   2.588
 7047TIP3    H221099   3.095   5.812   2.726
 7048TIP3   OH221100   2.443   1.258   5.179
 7048TIP3    H121101   2.503   1.183   5.181
 7048TIP3    H221102   2.372   1.232   5.239
 7049TIP3   OH221103   6.631   6.864   6.372
 7049TIP3    H121104   6.665   6.842   6.285
 7049TIP3    H221105   6.610   6.779   6.412
 7050TIP3   OH221106   5.138   1.038   1.058
 7050TIP3    H121107   5.180   1.029   0.973
 7050TIP3    H221108   5.188   0.979   1.115
 7051TIP3   OH221109   5.688   6.845   2.906
 7051TIP3    H121110   5.614   6.905   2.914
 7051TIP3    H221111   5.748   6.872   2.976
 7052TIP3   OH221112   4.023   1.459   4.873
 7052TIP3    H121113   4.031   1.418   4.787
 7052TIP3    H221114   3.990   1.547   4.855
 7053TIP3   OH221115   4.898   4.228   6.550
 7053TIP3    H121116   4.937   4.223   6.462
 7053TIP3    H221117   4.948   4.297   6.594
 7054TIP3   OH221118   5.684   5.434   0.909
 7054TIP3    H121119   5.710   5.510   0.961
 7054TIP3    H221120   5.749   5.367   0.930
 7055TIP3   OH221121   1.086   4.625   0.761
 7055TIP3    H121122   1.028   4.593   0.830
 7055TIP3    H221123   1.079   4.559   0.692
 7056TIP3   OH221124   4.801   1.552   2.115
 7056TIP3    H121125   4.835   1.641   2.122
 7056TIP3    H221126   4.831   1.521   2.030
 7057TIP3   OH221127   3.562   3.001   0.118
 7057TIP3    H121128   3.655   3.022   0.128
 7057TIP3    H221129   3.556   2.965   0.029
 7058TIP3   OH221130   6.991   2.091   6.720
 7058TIP3    H121131   6.928   2.082   6.791
 7058TIP3    H221132   6.979   2.180   6.688
 7059TIP3   OH221133   7.335   2.402   6.381
 7059TIP3    H121134   7.411   2.354   6.347
 7059TIP3    H221135   7.363   2.433   6.468
 7060TIP3   OH221136   3.608   5.739   3.031
 7060TIP3    H121137   3.658   5.812   2.995
 7060TIP3    H221138   3.600   5.759   3.124
 7061TIP3   OH221139   6.242   0.401   4.467
 7061TIP3    H121140   6.173   0.425   4.529
 7061TIP3    H221141   6.201   0.407   4.381
 7062TIP3   OH221142   3.243   6.777   3.966
 7062TIP3    H121143   3.179   6.754   4.033
 7062TIP3    H221144   3.323   6.796   4.014
 7063TIP3   OH221145   1.436   6.098   4.754
 7063TIP3    H121146   1.435   6.180   4.706
 7063TIP3    H221147   1.472   6.120   4.840
 7064TIP3   OH221148   6.271   3.120   2.951
 7064TIP3    H121149   6.261   3.028   2.974
 7064TIP3    H221150   6.322   3.158   3.023
 7065TIP3   OH221151   1.727   6.309   0.105
 7065TIP3    H121152   1.806   6.337   0.150
 7065TIP3    H221153   1.672   6.270   0.173
 7066TIP3   OH221154   2.045   3.076   4.040
 7066TIP3    H121155   2.074   2.998   4.086
 7066TIP3    H221156   2.077   3.066   3.951
 7067TIP3   OH221157   2.400   0.976   4.573
 7067TIP3    H121158   2.369   0.891   4.543
 7067TIP3    H221159   2.415   1.026   4.492
 7068TIP3   OH221160   6.272   1.476   4.506
 7068TIP3    H121161   6.299   1.530   4.580
 7068TIP3    H221162   6.177   1.470   4.514
 7069TIP3   OH221163   4.830   5.020   3.717
 7069TIP3    H121164   4.774   5.083   3.672
 7069TIP3    H221165   4.770   4.951   3.746
 7070TIP3   OH221166   8.036   1.933   0.986
 7070TIP3    H121167   7.971   1.958   1.051
 7070TIP3    H221168   8.099   2.005   0.984
 7071TIP3   OH221169   7.782   3.757   0.733
 7071TIP3    H121170   7.690   3.743   0.709
 7071TIP3    H221171   7.779   3.824   0.801
 7072TIP3   OH221172   0.313   0.133   0.457
 7072TIP3    H121173   0.302   0.135   0.362
 7072TIP3    H221174   0.265   0.055   0.485
 7073TIP3   OH221175   2.323   0.509   4.928
 7073TIP3    H121176   2.288   0.598   4.935
 7073TIP3    H221177   2.393   0.516   4.862
 7074TIP3   OH221178   4.926   6.647   4.404
 7074TIP3    H121179   4.941   6.569   4.351
 7074TIP3    H221180   4.989   6.711   4.371
 7075TIP3   OH221181   7.040   1.030   3.110
 7075TIP3    H121182   6.979   0.955   3.114
 7075TIP3    H221183   7.126   0.991   3.125
 7076TIP3   OH221184   1.833   1.624   4.725
 7076TIP3    H121185   1.749   1.624   4.679
 7076TIP3    H221186   1.810   1.628   4.818
 7077TIP3   OH221187   5.527   6.578   5.795
 7077TIP3    H121188   5.484   6.601   5.878
 7077TIP3    H221189   5.594   6.646   5.783
 7078TIP3   OH221190   2.758   0.941   6.016
 7078TIP3    H121191   2.684   0.929   6.075
 7078TIP3    H221192   2.724   0.919   5.929
 7079TIP3   OH221193   0.773   0.547   4.180
 7079TIP3    H121194   0.691   0.516   4.218
 7079TIP3    H221195   0.797   0.479   4.117
 7080TIP3   OH221196   0.330   2.844   1.223
 7080TIP3    H121197   0.310   2.915   1.284
 7080TIP3    H221198   0.327   2.765   1.278
 7081TIP3   OH221199   7.192   1.378   0.836
 7081TIP3    H121200   7.199   1.289   0.802
 7081TIP3    H221201   7.231   1.374   0.924
 7082TIP3   OH221202   2.295   6.737   0.518
 7082TIP3    H121203   2.268   6.829   0.520
 7082TIP3    H221204   2.322   6.717   0.607
 7083TIP3   OH221205   6.929   2.292   1.922
 7083TIP3    H121206   6.990   2.365   1.934
 7083TIP3    H221207   6.981   2.226   1.876
 7084TIP3   OH221208   0.023   6.061   2.487
 7084TIP3    H121209  -0.025   6.141   2.506
 7084TIP3    H221210   0.110   6.090   2.462
 7085TIP3   OH221211   8.285   3.041   2.722
 7085TIP3    H121212   8.350   3.104   2.754
 7085TIP3    H221213   8.201   3.085   2.736
 7086TIP3   OH221214   4.103   7.135   2.430
 7086TIP3    H121215   4.119   7.074   2.358
 7086TIP3    H221216   4.087   7.220   2.387
 7087TIP3   OH221217   2.329   2.198   2.095
 7087TIP3    H121218   2.241   2.217   2.064
 7087TIP3    H221219   2.328   2.222   2.188
 7088TIP3   OH221220   7.127   5.300   6.004
 7088TIP3    H121221   7.170   5.339   6.080
 7088TIP3    H221222   7.044   5.267   6.039
 7089TIP3   OH221223   0.828   6.014   6.063
 7089TIP3    H121224   0.761   5.956   6.028
 7089TIP3    H221225   0.779   6.084   6.108
 7090TIP3   OH221226   3.383   1.889   2.923
 7090TIP3    H121227   3.337   1.969   2.948
 7090TIP3    H221228   3.385   1.837   3.003
 7091TIP3   OH221229   1.634   4.136   6.040
 7091TIP3    H121230   1.555   4.094   6.074
 7091TIP3    H221231   1.601   4.210   5.989
 7092TIP3   OH221232   7.673   4.135   6.707
 7092TIP3    H121233   7.598   4.146   6.649
 7092TIP3    H221234   7.678   4.041   6.724
 7093TIP3   OH221235   2.594   4.530   3.226
 7093TIP3    H121236   2.534   4.455   3.225
 7093TIP3    H221237   2.549   4.595   3.280
 7094TIP3   OH221238   3.909   4.322   4.645
 7094TIP3    H121239   3.958   4.316   4.727
 7094TIP3    H221240   3.967   4.282   4.580
 7095TIP3   OH221241   1.494   0.765   0.835
 7095TIP3    H121242   1.428   0.700   0.812
 7095TIP3    H221243   1.577   0.717   0.828
 7096TIP3   OH221244   6.031   5.908   5.684
 7096TIP3    H121245   5.946   5.873   5.710
 7096TIP3    H221246   6.029   5.905   5.588
 7097TIP3   OH221247   5.960   3.903   6.383
 7097TIP3    H121248   5.931   3.977   6.330
 7097TIP3    H221249   5.985   3.836   6.319
 7098TIP3   OH221250   1.364   2.386   1.950
 7098TIP3    H121251   1.313   2.460   1.985
 7098TIP3    H221252   1.335   2.311   2.001
 7099TIP3   OH221253   2.805   1.742   2.598
 7099TIP3    H121254   2.821   1.751   2.692
 7099TIP3    H221255   2.727   1.795   2.582
 7100TIP3   OH221256   3.889   0.175   2.374
 7100TIP3    H121257   3.924   0.232   2.443
 7100TIP3    H221258   3.802   0.209   2.356
 7101TIP3   OH221259   6.568   6.022   4.273
 7101TIP3    H121260   6.652   5.991   4.241
 7101TIP3    H221261   6.588   6.104   4.319
 7102TIP3   OH221262   2.055   3.355   2.052
 7102TIP3    H121263   2.092   3.408   2.123
 7102TIP3    H221264   2.032   3.272   2.094
 7103TIP3   OH221265   6.520   3.889   2.737
 7103TIP3    H121266   6.517   3.834   2.658
 7103TIP3    H221267   6.610   3.880   2.769
 7104TIP3   OH221268   4.399   0.920   5.469
 7104TIP3    H121269   4.406   0.903   5.563
 7104TIP3    H221270   4.336   0.992   5.463
 7105TIP3   OH221271   2.006   6.721   0.813
 7105TIP3    H121272   1.913   6.700   0.803
 7105TIP3    H221273   2.047   6.686   0.734
 7106TIP3   OH221274   3.311   7.511   2.542
 7106TIP3    H121275   3.311   7.606   2.545
 7106TIP3    H221276   3.358   7.490   2.461
 7107TIP3   OH221277   5.520   4.133   0.427
 7107TIP3    H121278   5.544   4.111   0.337
 7107TIP3    H221279   5.495   4.225   0.424
 7108TIP3   OH221280   3.994   2.033   3.027
 7108TIP3    H121281   4.070   1.992   2.986
 7108TIP3    H221282   3.988   1.994   3.114
 7109TIP3   OH221283   6.050   3.954   5.309
 7109TIP3    H121284   6.033   3.996   5.224
 7109TIP3    H221285   6.086   4.025   5.363
 7110TIP3   OH221286   2.117   0.745   4.295
 7110TIP3    H121287   2.049   0.700   4.245
 7110TIP3    H221288   2.171   0.789   4.229
 7111TIP3   OH221289   5.711   1.198   2.387
 7111TIP3    H121290   5.668   1.113   2.389
 7111TIP3    H221291   5.805   1.178   2.393
 7112TIP3   OH221292   4.377   4.622   0.369
 7112TIP3    H121293   4.416   4.667   0.444
 7112TIP3    H221294   4.328   4.691   0.322
 7113TIP3   OH221295   0.662   6.941   6.184
 7113TIP3    H121296   0.696   7.027   6.163
 7113TIP3    H221297   0.629   6.907   6.101
 7114TIP3   OH221298   7.849   3.463   3.971
 7114TIP3    H121299   7.866   3.555   3.991
 7114TIP3    H221300   7.821   3.424   4.054
 7115TIP3   OH221301   0.019   7.690   0.460
 7115TIP3    H121302   0.027   7.621   0.394
 7115TIP3    H221303   0.043   7.647   0.542
 7116TIP3   OH221304   6.259   7.044   0.867
 7116TIP3    H121305   6.272   6.987   0.791
 7116TIP3    H221306   6.285   6.990   0.942
 7117TIP3   OH221307   6.156   7.637   3.888
 7117TIP3    H121308   6.163   7.636   3.792
 7117TIP3    H221309   6.125   7.549   3.910
 7118TIP3   OH221310   5.472   7.388   2.189
 7118TIP3    H121311   5.524   7.464   2.215
 7118TIP3    H221312   5.428   7.360   2.270
 7119TIP3   OH221313   3.937   1.107   6.007
 7119TIP3    H121314   3.902   1.167   6.072
 7119TIP3    H221315   3.881   1.029   6.014
 7120TIP3   OH221316   2.213   5.243   2.842
 7120TIP3    H121317   2.243   5.205   2.925
 7120TIP3    H221318   2.271   5.206   2.776
 7121TIP3   OH221319   1.079   0.133   2.316
 7121TIP3    H121320   1.151   0.108   2.258
 7121TIP3    H221321   1.010   0.162   2.256
 7122TIP3   OH221322   3.183   0.107   2.600
 7122TIP3    H121323   3.223   0.184   2.559
 7122TIP3    H221324   3.246   0.037   2.586
 7123TIP3   OH221325   1.537   5.984   3.853
 7123TIP3    H121326   1.564   5.957   3.765
 7123TIP3    H221327   1.503   5.905   3.893
 7124TIP3   OH221328   2.041   0.947   5.320
 7124TIP3    H121329   2.096   1.004   5.374
 7124TIP3    H221330   2.097   0.923   5.246
 7125TIP3   OH221331   8.242   6.567   5.221
 7125TIP3    H121332   8.206   6.650   5.191
 7125TIP3    H221333   8.167   6.522   5.262
 7126TIP3   OH221334   4.488   3.093   4.544
 7126TIP3    H121335   4.543   3.165   4.574
 7126TIP3    H221336   4.412   3.135   4.505
 7127TIP3   OH221337   1.277   4.361   5.976
 7127TIP3    H121338   1.361   4.403   5.995
 7127TIP3    H221339   1.230   4.425   5.922
 7128TIP3   OH221340   6.272   7.640   0.846
 7128TIP3    H121341   6.308   7.601   0.925
 7128TIP3    H221342   6.332   7.611   0.776
 7129TIP3   OH221343   1.249   7.544   6.479
 7129TIP3    H121344   1.263   7.500   6.563
 7129TIP3    H221345   1.164   7.589   6.490
 7130TIP3   OH221346   2.646   5.155   4.990
 7130TIP3    H121347   2.627   5.061   4.998
 7130TIP3    H221348   2.709   5.161   4.918
 7131TIP3   OH221349   1.367   6.874   4.515
 7131TIP3    H121350   1.290   6.921   4.483
 7131TIP3    H221351   1.415   6.851   4.435
 7132TIP3   OH221352   6.980   2.937   0.650
 7132TIP3    H121353   7.044   3.008   0.659
 7132TIP3    H221354   7.024   2.861   0.687
 7133TIP3   OH221355   3.594   1.345   6.175
 7133TIP3    H121356   3.560   1.432   6.156
 7133TIP3    H221357   3.621   1.349   6.266
 7134TIP3   OH221358   1.893   2.909   5.348
 7134TIP3    H121359   1.985   2.935   5.357
 7134TIP3    H221360   1.854   2.976   5.291
 7135TIP3   OH221361   6.617   7.595   5.742
 7135TIP3    H121362   6.565   7.627   5.668
 7135TIP3    H221363   6.695   7.651   5.742
 7136TIP3   OH221364   7.812   5.729   1.395
 7136TIP3    H121365   7.843   5.657   1.450
 7136TIP3    H221366   7.737   5.766   1.442
 7137TIP3   OH221367   7.223   7.708   6.744
 7137TIP3    H121368   7.224   7.615   6.723
 7137TIP3    H221369   7.180   7.749   6.669
 7138TIP3   OH221370   4.893   1.847   3.424
 7138TIP3    H121371   4.904   1.929   3.471
 7138TIP3    H221372   4.976   1.801   3.436
 7139TIP3   OH221373   5.849   1.609   1.041
 7139TIP3    H121374   5.754   1.597   1.039
 7139TIP3    H221375   5.882   1.529   1.081
 7140TIP3   OH221376   0.025   7.708   4.746
 7140TIP3    H121377   0.090   7.761   4.700
 7140TIP3    H221378  -0.059   7.734   4.709
 7141TIP3   OH221379   4.953   1.400   2.299
 7141TIP3    H121380   4.867   1.425   2.267
 7141TIP3    H221381   4.938   1.321   2.351
 7142TIP3   OH221382   3.928   2.096   4.619
 7142TIP3    H121383   3.932   2.001   4.603
 7142TIP3    H221384   3.937   2.104   4.714
 7143TIP3   OH221385   4.874   7.086   5.222
 7143TIP3    H121386   4.799   7.044   5.264
 7143TIP3    H221387   4.837   7.131   5.146
 7144TIP3   OH221388   2.175   2.938   2.744
 7144TIP3    H121389   2.120   2.907   2.816
 7144TIP3    H221390   2.261   2.899   2.762
 7145TIP3   OH221391   6.925   3.510   3.889
 7145TIP3    H121392   6.944   3.471   3.803
 7145TIP3    H221393   6.846   3.562   3.874
 7146TIP3   OH221394   7.012   2.955   0.259
 7146TIP3    H121395   7.026   2.866   0.291
 7146TIP3    H221396   6.937   2.987   0.309
 7147TIP3   OH221397   7.566   1.695   1.352
 7147TIP3    H121398   7.505   1.660   1.288
 7147TIP3    H221399   7.612   1.618   1.386
 7148TIP3   OH221400   4.027   7.192   0.446
 7148TIP3    H121401   4.058   7.114   0.399
 7148TIP3    H221402   4.078   7.264   0.408
 7149TIP3   OH221403   2.230   7.591   1.215
 7149TIP3    H121404   2.277   7.536   1.278
 7149TIP3    H221405   2.275   7.577   1.132
 7150TIP3   OH221406   0.417   1.055   4.436
 7150TIP3    H121407   0.389   0.967   4.458
 7150TIP3    H221408   0.508   1.045   4.408
 7151TIP3   OH221409   7.455   0.836   6.467
 7151TIP3    H121410   7.456   0.922   6.424
 7151TIP3    H221411   7.527   0.840   6.530
 7152TIP3   OH221412   4.859   6.924   3.120
 7152TIP3    H121413   4.910   6.850   3.153
 7152TIP3    H221414   4.775   6.917   3.165
 7153TIP3   OH221415   8.172   3.570   0.401
 7153TIP3    H121416   8.235   3.640   0.415
 7153TIP3    H221417   8.087   3.611   0.414
 7154TIP3   OH221418   5.279   7.281   4.216
 7154TIP3    H121419   5.336   7.207   4.236
 7154TIP3    H221420   5.209   7.277   4.281
 7155TIP3   OH221421   6.666   2.470   1.411
 7155TIP3    H121422   6.684   2.473   1.505
 7155TIP3    H221423   6.753   2.469   1.370
 7156TIP3   OH221424   6.508   0.032   6.454
 7156TIP3    H121425   6.600   0.056   6.438
 7156TIP3    H221426   6.464   0.116   6.467
 7157TIP3   OH221427   5.513   4.925   1.872
 7157TIP3    H121428   5.429   4.953   1.836
 7157TIP3    H221429   5.572   4.922   1.797
 7158TIP3   OH221430   3.498   6.655   1.804
 7158TIP3    H121431   3.454   6.651   1.720
 7158TIP3    H221432   3.439   6.703   1.861
 7159TIP3   OH221433   2.028   2.324   2.330
 7159TIP3    H121434   1.969   2.306   2.403
 7159TIP3    H221435   2.115   2.299   2.361
 7160TIP3   OH221436   3.545   3.583   1.523
 7160TIP3    H121437   3.552   3.589   1.618
 7160TIP3    H221438   3.587   3.662   1.490
 7161TIP3   OH221439   7.873   1.490   5.228
 7161TIP3    H121440   7.886   1.455   5.316
 7161TIP3    H221441   7.960   1.510   5.197
 7162TIP3   OH221442   5.847   0.712   2.668
 7162TIP3    H121443   5.827   0.675   2.754
 7162TIP3    H221444   5.816   0.646   2.606
 7163TIP3   OH221445   4.153   5.539   3.206
 7163TIP3    H121446   4.205   5.519   3.128
 7163TIP3    H221447   4.195   5.488   3.275
 7164TIP3   OH221448   3.216   4.181   3.242
 7164TIP3    H121449   3.158   4.166   3.316
 7164TIP3    H221450   3.290   4.122   3.257
 7165TIP3   OH221451   7.966   2.269   2.782
 7165TIP3    H121452   7.884   2.310   2.754
 7165TIP3    H221453   8.009   2.336   2.834
 7166TIP3   OH221454   3.843   2.002   6.744
 7166TIP3    H121455   3.888   2.055   6.810
 7166TIP3    H221456   3.872   2.038   6.661
 7167TIP3   OH221457   4.307   5.502   1.910
 7167TIP3    H121458   4.320   5.425   1.965
 7167TIP3    H221459   4.340   5.475   1.824
 7168TIP3   OH221460   5.880   5.025   5.596
 7168TIP3    H121461   5.843   4.937   5.610
 7168TIP3    H221462   5.954   5.011   5.538
 7169TIP3   OH221463   7.314   3.486   1.716
 7169TIP3    H121464   7.222   3.501   1.698
 7169TIP3    H221465   7.352   3.573   1.725
 7170TIP3   OH221466   0.522   7.380   5.984
 7170TIP3    H121467   0.562   7.455   5.940
 7170TIP3    H221468   0.438   7.368   5.941
 7171TIP3   OH221469   3.357   4.426   5.973
 7171TIP3    H121470   3.428   4.483   6.005
 7171TIP3    H221471   3.329   4.467   5.891
 7172TIP3   OH221472   6.848   6.064   1.251
 7172TIP3    H121473   6.890   6.136   1.298
 7172TIP3    H221474   6.777   6.106   1.202
 7173TIP3   OH221475   7.721   7.765   5.025
 7173TIP3    H121476   7.787   7.784   5.092
 7173TIP3    H221477   7.640   7.801   5.061
 7174TIP3   OH221478   4.464   1.349   3.067
 7174TIP3    H121479   4.445   1.400   2.988
 7174TIP3    H221480   4.381   1.347   3.115
 7175TIP3   OH221481   8.161   0.711   0.278
 7175TIP3    H121482   8.215   0.744   0.349
 7175TIP3    H221483   8.218   0.713   0.201
 7176TIP3   OH221484   2.346   1.704   4.649
 7176TIP3    H121485   2.250   1.704   4.651
 7176TIP3    H221486   2.371   1.652   4.725
 7177TIP3   OH221487   4.770   2.948   4.493
 7177TIP3    H121488   4.740   3.004   4.564
 7177TIP3    H221489   4.847   2.904   4.529
 7178TIP3   OH221490   2.687   6.466   5.140
 7178TIP3    H121491   2.765   6.419   5.171
 7178TIP3    H221492   2.633   6.399   5.098
 7179TIP3   OH221493   3.771   2.434   4.763
 7179TIP3    H121494   3.762   2.475   4.677
 7179TIP3    H221495   3.854   2.466   4.797
 7180TIP3   OH221496   6.345   1.495   3.155
 7180TIP3    H121497   6.412   1.507   3.087
 7180TIP3    H221498   6.393   1.501   3.237
 7181TIP3   OH221499   3.370   2.067   0.033
 7181TIP3    H121500   3.301   2.014   0.072
 7181TIP3    H221501   3.406   2.117   0.106
 7182TIP3   OH221502   0.862   2.859   3.027
 7182TIP3    H121503   0.862   2.839   2.933
 7182TIP3    H221504   0.788   2.919   3.039
 7183TIP3   OH221505   4.236   5.570   5.186
 7183TIP3    H121506   4.197   5.620   5.115
 7183TIP3    H221507   4.212   5.479   5.167
 7184TIP3   OH221508   7.147   5.522   1.337
 7184TIP3    H121509   7.139   5.542   1.430
 7184TIP3    H221510   7.163   5.428   1.334
 7185TIP3   OH221511   2.798   4.031   3.154
 7185TIP3    H121512   2.719   3.982   3.128
 7185TIP3    H221513   2.806   4.016   3.248
 7186TIP3   OH221514   6.638   1.069   1.099
 7186TIP3    H121515   6.608   1.145   1.050
 7186TIP3    H221516   6.726   1.051   1.065
 7187TIP3   OH221517   5.039   2.355   2.372
 7187TIP3    H121518   4.987   2.395   2.302
 7187TIP3    H221519   5.126   2.394   2.361
 7188TIP3   OH221520   4.573   1.166   1.048
 7188TIP3    H121521   4.607   1.111   1.118
 7188TIP3    H221522   4.482   1.138   1.037
 7189TIP3   OH221523   0.236   1.571   0.457
 7189TIP3    H121524   0.312   1.612   0.499
 7189TIP3    H221525   0.228   1.616   0.373
 7190TIP3   OH221526   3.654   1.504   2.415
 7190TIP3    H121527   3.625   1.575   2.472
 7190TIP3    H221528   3.579   1.487   2.358
 7191TIP3   OH221529   8.136   1.960   4.150
 7191TIP3    H121530   8.185   2.039   4.171
 7191TIP3    H221531   8.086   1.941   4.230
 7192TIP3   OH221532   4.367   0.159   0.863
 7192TIP3    H121533   4.298   0.106   0.823
 7192TIP3    H221534   4.446   0.107   0.852
 7193TIP3   OH221535   5.983   7.094   0.424
 7193TIP3    H121536   5.940   7.061   0.345
 7193TIP3    H221537   5.916   7.092   0.491
 7194TIP3   OH221538   6.464   5.524   6.307
 7194TIP3    H121539   6.371   5.546   6.304
 7194TIP3    H221540   6.490   5.546   6.396
 7195TIP3   OH221541   1.192   5.628   1.104
 7195TIP3    H121542   1.145   5.593   1.180
 7195TIP3    H221543   1.239   5.553   1.068
 7196TIP3   OH221544   4.873   7.071   4.291
 7196TIP3    H121545   4.871   7.082   4.386
 7196TIP3    H221546   4.890   7.159   4.257
 7197TIP3   OH221547   0.457   6.038   4.209
 7197TIP3    H121548   0.458   5.943   4.217
 7197TIP3    H221549   0.530   6.067   4.263
 7198TIP3   OH221550   8.263   3.401   2.314
 7198TIP3    H121551   8.318   3.325   2.332
 7198TIP3    H221552   8.196   3.399   2.382
 7199TIP3   OH221553   2.660   3.370   4.842
 7199TIP3    H121554   2.719   3.445   4.836
 7199TIP3    H221555   2.655   3.336   4.752
 7200TIP3   OH221556   5.383   2.840   0.927
 7200TIP3    H121557   5.446   2.835   0.999
 7200TIP3    H221558   5.413   2.775   0.864
 7201TIP3   OH221559   3.399   3.653   3.874
 7201TIP3    H121560   3.334   3.649   3.945
 7201TIP3    H221561   3.440   3.567   3.873
 7202TIP3   OH221562   3.589   0.543   2.979
 7202TIP3    H121563   3.601   0.548   2.884
 7202TIP3    H221564   3.659   0.486   3.010
 7203TIP3   OH221565   2.741   2.486   0.801
 7203TIP3    H121566   2.690   2.542   0.859
 7203TIP3    H221567   2.703   2.500   0.714
 7204TIP3   OH221568   2.972   2.810   3.350
 7204TIP3    H121569   2.901   2.748   3.366
 7204TIP3    H221570   2.952   2.848   3.264
 7205TIP3   OH221571   6.267   1.759   5.621
 7205TIP3    H121572   6.328   1.833   5.629
 7205TIP3    H221573   6.289   1.720   5.536
 7206TIP3   OH221574   5.929   2.092   0.987
 7206TIP3    H121575   5.969   2.124   0.907
 7206TIP3    H221576   5.891   2.169   1.028
 7207TIP3   OH221577   8.181   6.525   2.225
 7207TIP3    H121578   8.176   6.467   2.149
 7207TIP3    H221579   8.192   6.466   2.300
 7208TIP3   OH221580   1.707   0.490   1.100
 7208TIP3    H121581   1.717   0.581   1.071
 7208TIP3    H221582   1.658   0.497   1.182
 7209TIP3   OH221583   0.026   2.233   4.994
 7209TIP3    H121584   0.029   2.328   4.999
 7209TIP3    H221585  -0.014   2.214   4.909
 7210TIP3   OH221586   0.543   5.895   1.223
 7210TIP3    H121587   0.600   5.902   1.299
 7210TIP3    H221588   0.482   5.825   1.244
 7211TIP3   OH221589   4.886   1.993   0.788
 7211TIP3    H121590   4.873   2.087   0.774
 7211TIP3    H221591   4.929   1.962   0.708
 7212TIP3   OH221592   3.385   1.903   1.321
 7212TIP3    H121593   3.404   1.939   1.234
 7212TIP3    H221594   3.465   1.917   1.371
 7213TIP3   OH221595   3.291   2.507   3.814
 7213TIP3    H121596   3.251   2.453   3.745
 7213TIP3    H221597   3.313   2.444   3.883
 7214TIP3   OH221598   4.225   0.806   4.581
 7214TIP3    H121599   4.131   0.813   4.570
 7214TIP3    H221600   4.260   0.806   4.492
 7215TIP3   OH221601   5.355   1.145   5.229
 7215TIP3    H121602   5.298   1.198   5.284
 7215TIP3    H221603   5.311   1.061   5.221
 7216TIP3   OH221604   2.051   3.000   1.253
 7216TIP3    H121605   2.114   2.983   1.323
 7216TIP3    H221606   1.985   3.056   1.293
 7217TIP3   OH221607   3.839   2.228   3.777
 7217TIP3    H121608   3.912   2.290   3.772
 7217TIP3    H221609   3.880   2.142   3.769
 7218TIP3   OH221610   5.291   4.509   1.636
 7218TIP3    H121611   5.340   4.450   1.694
 7218TIP3    H221612   5.352   4.529   1.565
 7219TIP3   OH221613   5.395   1.777   2.380
 7219TIP3    H121614   5.464   1.719   2.414
 7219TIP3    H221615   5.338   1.718   2.330
 7220TIP3   OH221616   6.591   5.705   4.096
 7220TIP3    H121617   6.635   5.781   4.133
 7220TIP3    H221618   6.607   5.635   4.159
 7221TIP3   OH221619   4.055   5.294   2.273
 7221TIP3    H121620   3.980   5.341   2.236
 7221TIP3    H221621   4.025   5.204   2.283
 7222TIP3   OH221622   7.417   7.178   4.886
 7222TIP3    H121623   7.349   7.111   4.878
 7222TIP3    H221624   7.378   7.257   4.849
 7223TIP3   OH221625   1.127   3.935   3.723
 7223TIP3    H121626   1.192   4.000   3.750
 7223TIP3    H221627   1.168   3.851   3.744
 7224TIP3   OH221628   1.915   4.265   4.245
 7224TIP3    H121629   1.882   4.189   4.198
 7224TIP3    H221630   1.956   4.230   4.324
 7225TIP3   OH221631   6.432   7.820   4.727
 7225TIP3    H121632   6.414   7.871   4.649
 7225TIP3    H221633   6.527   7.811   4.729
 7226TIP3   OH221634   7.868   1.095   4.241
 7226TIP3    H121635   7.885   1.008   4.207
 7226TIP3    H221636   7.781   1.089   4.280
 7227TIP3   OH221637   1.649   7.008   4.472
 7227TIP3    H121638   1.568   7.048   4.503
 7227TIP3    H221639   1.620   6.940   4.411
 7228TIP3   OH221640   4.079   1.886   3.245
 7228TIP3    H121641   4.110   1.970   3.279
 7228TIP3    H221642   4.140   1.822   3.283
 7229TIP3   OH221643   5.475   4.143   1.723
 7229TIP3    H121644   5.448   4.232   1.744
 7229TIP3    H221645   5.472   4.096   1.807
 7230TIP3   OH221646   1.935   1.854   1.955
 7230TIP3    H121647   1.984   1.774   1.936
 7230TIP3    H221648   1.924   1.896   1.870
 7231TIP3   OH221649   0.197   5.075   5.687
 7231TIP3    H121650   0.164   5.077   5.597
 7231TIP3    H221651   0.248   4.995   5.693
 7232TIP3   OH221652   7.630   5.744   0.727
 7232TIP3    H121653   7.612   5.810   0.794
 7232TIP3    H221654   7.651   5.665   0.776
 7233TIP3   OH221655   5.818   4.481   3.358
 7233TIP3    H121656   5.902   4.449   3.391
 7233TIP3    H221657   5.777   4.522   3.434
 7234TIP3   OH221658   7.068   0.386   4.671
 7234TIP3    H121659   6.995   0.441   4.642
 7234TIP3    H221660   7.065   0.309   4.613
 7235TIP3   OH221661   7.359   3.807   5.466
 7235TIP3    H121662   7.454   3.806   5.474
 7235TIP3    H221663   7.339   3.741   5.400
 7236TIP3   OH221664   3.162   3.913   4.869
 7236TIP3    H121665   3.109   3.981   4.911
 7236TIP3    H221666   3.135   3.832   4.913
 7237TIP3   OH221667   1.108   4.362   5.430
 7237TIP3    H121668   1.171   4.312   5.378
 7237TIP3    H221669   1.052   4.405   5.366
 7238TIP3   OH221670   2.091   5.413   4.424
 7238TIP3    H121671   2.064   5.458   4.505
 7238TIP3    H221672   2.182   5.390   4.440
 7239TIP3   OH221673   4.242   2.717   1.573
 7239TIP3    H121674   4.199   2.797   1.543
 7239TIP3    H221675   4.177   2.648   1.560
 7240TIP3   OH221676   1.385   3.225   4.669
 7240TIP3    H121677   1.330   3.205   4.594
 7240TIP3    H221678   1.474   3.204   4.640
 7241TIP3   OH221679   4.886   3.377   1.336
 7241TIP3    H121680   4.968   3.426   1.343
 7241TIP3    H221681   4.834   3.426   1.272
 7242TIP3   OH221682   6.752   3.133   3.529
 7242TIP3    H121683   6.735   3.217   3.571
 7242TIP3    H221684   6.845   3.134   3.509
 7243TIP3   OH221685   1.910   2.553   0.030
 7243TIP3    H121686   2.003   2.549   0.053
 7243TIP3    H221687   1.891   2.467  -0.006
 7244TIP3   OH221688   7.141   1.519   1.310
 7244TIP3    H121689   7.069   1.528   1.249
 7244TIP3    H221690   7.220   1.531   1.257
 7245TIP3   OH221691   3.691   0.431   3.399
 7245TIP3    H121692   3.624   0.399   3.460
 7245TIP3    H221693   3.774   0.407   3.440
 7246TIP3   OH221694   1.743   2.857   2.226
 7246TIP3    H121695   1.834   2.886   2.238
 7246TIP3    H221696   1.691   2.937   2.235
 7247TIP3   OH221697   4.871   2.154   0.426
 7247TIP3    H121698   4.905   2.072   0.463
 7247TIP3    H221699   4.946   2.194   0.383
 7248TIP3   OH221700   5.148   5.179   0.960
 7248TIP3    H121701   5.155   5.125   1.039
 7248TIP3    H221702   5.093   5.252   0.986
 7249TIP3   OH221703   3.511   5.596   2.662
 7249TIP3    H121704   3.544   5.675   2.618
 7249TIP3    H221705   3.462   5.630   2.737
 7250TIP3   OH221706   1.866   5.084   5.552
 7250TIP3    H121707   1.841   5.152   5.615
 7250TIP3    H221708   1.960   5.096   5.540
 7251TIP3   OH221709   3.291   6.701   2.193
 7251TIP3    H121710   3.303   6.745   2.109
 7251TIP3    H221711   3.377   6.704   2.234
 7252TIP3   OH221712   5.989   6.502   4.437
 7252TIP3    H121713   6.023   6.561   4.370
 7252TIP3    H221714   5.996   6.552   4.518
 7253TIP3   OH221715   4.994   2.281   4.128
 7253TIP3    H121716   5.048   2.263   4.205
 7253TIP3    H221717   4.987   2.376   4.125
 7254TIP3   OH221718   4.270   2.304   4.294
 7254TIP3    H121719   4.326   2.372   4.256
 7254TIP3    H221720   4.190   2.350   4.320
 7255TIP3   OH221721   2.919   1.342   6.199
 7255TIP3    H121722   2.896   1.327   6.290
 7255TIP3    H221723   3.003   1.297   6.188
 7256TIP3   OH221724   7.806   6.740   2.142
 7256TIP3    H121725   7.884   6.773   2.186
 7256TIP3    H221726   7.734   6.785   2.184
 7257TIP3   OH221727   0.700   6.756   1.161
 7257TIP3    H121728   0.649   6.678   1.139
 7257TIP3    H221729   0.790   6.725   1.167
 7258TIP3   OH221730   7.966   7.824   0.843
 7258TIP3    H121731   8.012   7.804   0.925
 7258TIP3    H221732   8.036   7.847   0.782
 7259TIP3   OH221733   6.394   7.542   4.752
 7259TIP3    H121734   6.422   7.528   4.662
 7259TIP3    H221735   6.356   7.630   4.752
 7260TIP3   OH221736   3.785   1.132   1.960
 7260TIP3    H121737   3.699   1.126   1.919
 7260TIP3    H221738   3.768   1.120   2.054
 7261TIP3   OH221739   4.697   3.224   3.973
 7261TIP3    H121740   4.709   3.170   4.051
 7261TIP3    H221741   4.674   3.311   4.008
 7262TIP3   OH221742   1.523   6.604   5.462
 7262TIP3    H121743   1.499   6.589   5.554
 7262TIP3    H221744   1.483   6.531   5.415
 7263TIP3   OH221745   1.194   2.473   1.070
 7263TIP3    H121746   1.215   2.559   1.106
 7263TIP3    H221747   1.160   2.424   1.144
 7264TIP3   OH221748   1.301   4.622   1.781
 7264TIP3    H121749   1.289   4.695   1.720
 7264TIP3    H221750   1.360   4.561   1.736
 7265TIP3   OH221751   2.292   7.760   4.871
 7265TIP3    H121752   2.228   7.723   4.932
 7265TIP3    H221753   2.367   7.784   4.925
 7266TIP3   OH221754   5.376   6.263   0.771
 7266TIP3    H121755   5.352   6.222   0.855
 7266TIP3    H221756   5.470   6.277   0.777
 7267TIP3   OH221757   5.796   4.845   1.432
 7267TIP3    H121758   5.816   4.784   1.504
 7267TIP3    H221759   5.779   4.788   1.357
 7268TIP3   OH221760   7.187   3.766   3.123
 7268TIP3    H121761   7.232   3.714   3.056
 7268TIP3    H221762   7.094   3.745   3.112
 7269TIP3   OH221763   5.843   1.435   0.356
 7269TIP3    H121764   5.874   1.463   0.443
 7269TIP3    H221765   5.748   1.448   0.360
 7270TIP3   OH221766   6.268   4.629   5.089
 7270TIP3    H121767   6.242   4.539   5.070
 7270TIP3    H221768   6.324   4.654   5.016
 7271TIP3   OH221769   0.743   5.169   4.186
 7271TIP3    H121770   0.829   5.131   4.203
 7271TIP3    H221771   0.759   5.235   4.118
 7272TIP3   OH221772   2.387   2.779   5.326
 7272TIP3    H121773   2.446   2.854   5.337
 7272TIP3    H221774   2.407   2.721   5.400
 7273TIP3   OH221775   7.066   6.932   2.618
 7273TIP3    H121776   7.016   6.967   2.545
 7273TIP3    H221777   7.011   6.948   2.695
 7274TIP3   OH221778   4.232   6.364   4.840
 7274TIP3    H121779   4.160   6.399   4.787
 7274TIP3    H221780   4.211   6.392   4.930
 7275TIP3   OH221781   1.830   2.490   1.027
 7275TIP3    H121782   1.751   2.544   1.025
 7275TIP3    H221783   1.901   2.551   1.010
 7276TIP3   OH221784   0.957   6.237   0.473
 7276TIP3    H121785   1.013   6.270   0.543
 7276TIP3    H221786   0.875   6.287   0.483
 7277TIP3   OH221787   6.453   6.357   6.207
 7277TIP3    H121788   6.391   6.328   6.139
 7277TIP3    H221789   6.419   6.441   6.237
 7278TIP3   OH221790   8.068   4.139   5.265
 7278TIP3    H121791   8.140   4.091   5.225
 7278TIP3    H221792   8.003   4.147   5.196
 7279TIP3   OH221793   2.351   1.821   3.178
 7279TIP3    H121794   2.355   1.820   3.273
 7279TIP3    H221795   2.290   1.750   3.156
 7280TIP3   OH221796   1.287   0.901   4.168
 7280TIP3    H121797   1.253   0.921   4.256
 7280TIP3    H221798   1.211   0.913   4.111
 7281TIP3   OH221799   5.790   1.095   0.891
 7281TIP3    H121800   5.838   1.037   0.831
 7281TIP3    H221801   5.703   1.102   0.852
 7282TIP3   OH221802   3.947   6.811   3.965
 7282TIP3    H121803   3.936   6.836   4.057
 7282TIP3    H221804   3.933   6.716   3.965
 7283TIP3   OH221805   3.620   4.041   5.111
 7283TIP3    H121806   3.547   3.996   5.067
 7283TIP3    H221807   3.589   4.055   5.200
 7284TIP3   OH221808   7.004   2.365   6.649
 7284TIP3    H121809   7.057   2.422   6.705
 7284TIP3    H221810   7.018   2.399   6.560
 7285TIP3   OH221811   2.545   0.105   2.970
 7285TIP3    H121812   2.457   0.131   2.943
 7285TIP3    H221813   2.532   0.022   3.016
 7286TIP3   OH221814   4.833   3.945   5.516
 7286TIP3    H121815   4.860   3.986   5.599
 7286TIP3    H221816   4.914   3.919   5.474
 7287TIP3   OH221817   2.571   1.081   5.349
 7287TIP3    H121818   2.546   1.147   5.414
 7287TIP3    H221819   2.525   1.001   5.377
 7288TIP3   OH221820   2.583   6.033   3.696
 7288TIP3    H121821   2.595   5.991   3.611
 7288TIP3    H221822   2.491   6.058   3.698
 7289TIP3   OH221823   8.233   5.244   4.453
 7289TIP3    H121824   8.292   5.288   4.392
 7289TIP3    H221825   8.290   5.184   4.501
 7290TIP3   OH221826   2.871   0.156   6.741
 7290TIP3    H121827   2.802   0.210   6.702
 7290TIP3    H221828   2.931   0.139   6.668
 7291TIP3   OH221829   4.752   1.157   2.138
 7291TIP3    H121830   4.845   1.179   2.146
 7291TIP3    H221831   4.743   1.124   2.048
 7292TIP3   OH221832   6.167   7.062   4.512
 7292TIP3    H121833   6.174   7.157   4.512
 7292TIP3    H221834   6.093   7.043   4.569
 7293TIP3   OH221835   4.338   3.705   3.701
 7293TIP3    H121836   4.285   3.777   3.735
 7293TIP3    H221837   4.366   3.736   3.614
 7294TIP3   OH221838   4.585   0.505   5.133
 7294TIP3    H121839   4.668   0.466   5.103
 7294TIP3    H221840   4.576   0.584   5.080
 7295TIP3   OH221841   5.251   0.975   1.553
 7295TIP3    H121842   5.238   1.068   1.536
 7295TIP3    H221843   5.346   0.963   1.555
 7296TIP3   OH221844   3.579   7.612   1.251
 7296TIP3    H121845   3.534   7.554   1.190
 7296TIP3    H221846   3.559   7.577   1.338
 7297TIP3   OH221847   5.630   2.295   5.537
 7297TIP3    H121848   5.696   2.364   5.539
 7297TIP3    H221849   5.579   2.312   5.458
 7298TIP3   OH221850   6.609   7.210   1.119
 7298TIP3    H121851   6.547   7.253   1.059
 7298TIP3    H221852   6.669   7.163   1.061
 7299TIP3   OH221853   2.859   5.230   5.795
 7299TIP3    H121854   2.906   5.158   5.752
 7299TIP3    H221855   2.893   5.309   5.753
 7300TIP3   OH221856   2.481   2.572   4.472
 7300TIP3    H121857   2.419   2.505   4.445
 7300TIP3    H221858   2.468   2.581   4.566
 7301TIP3   OH221859   0.660   1.530   6.569
 7301TIP3    H121860   0.653   1.436   6.580
 7301TIP3    H221861   0.696   1.562   6.653
 7302TIP3   OH221862   6.412   6.924   1.066
 7302TIP3    H121863   6.372   6.853   1.116
 7302TIP3    H221864   6.471   6.966   1.129
 7303TIP3   OH221865   1.095   2.966   3.120
 7303TIP3    H121866   1.008   2.930   3.100
 7303TIP3    H221867   1.155   2.894   3.100
 7304TIP3   OH221868   5.964   3.104   2.702
 7304TIP3    H121869   5.943   3.069   2.789
 7304TIP3    H221870   5.915   3.187   2.698
 7305TIP3   OH221871   3.951   5.138   3.341
 7305TIP3    H121872   3.996   5.215   3.306
 7305TIP3    H221873   4.017   5.093   3.393
 7306TIP3   OH221874   7.496   6.016   6.019
 7306TIP3    H121875   7.423   5.957   6.032
 7306TIP3    H221876   7.462   6.085   5.963
 7307TIP3   OH221877   1.636   2.447   6.242
 7307TIP3    H121878   1.575   2.519   6.256
 7307TIP3    H221879   1.619   2.386   6.314
 7308TIP3   OH221880   2.028   4.186   3.168
 7308TIP3    H121881   1.992   4.274   3.159
 7308TIP3    H221882   1.963   4.129   3.126
 7309TIP3   OH221883   6.534   7.243   3.190
 7309TIP3    H121884   6.610   7.205   3.234
 7309TIP3    H221885   6.464   7.180   3.203
 7310TIP3   OH221886   2.878   6.874   1.762
 7310TIP3    H121887   2.846   6.895   1.674
 7310TIP3    H221888   2.877   6.778   1.765
 7311TIP3   OH221889   5.909   7.429   1.973
 7311TIP3    H121890   5.990   7.389   2.006
 7311TIP3    H221891   5.851   7.356   1.955
 7312TIP3   OH221892   7.911   2.131   5.174
 7312TIP3    H121893   7.825   2.090   5.175
 7312TIP3    H221894   7.970   2.064   5.140
 7313TIP3   OH221895   7.228   3.358   5.136
 7313TIP3    H121896   7.252   3.280   5.086
 7313TIP3    H221897   7.136   3.373   5.115
 7314TIP3   OH221898   0.674   2.452   2.773
 7314TIP3    H121899   0.739   2.431   2.706
 7314TIP3    H221900   0.595   2.404   2.747
 7315TIP3   OH221901   3.744   5.995   0.064
 7315TIP3    H121902   3.728   6.043  -0.017
 7315TIP3    H221903   3.817   5.937   0.044
 7316TIP3   OH221904   6.013   6.389   5.371
 7316TIP3    H121905   5.946   6.457   5.374
 7316TIP3    H221906   5.997   6.342   5.289
 7317TIP3   OH221907   3.017   3.584   2.486
 7317TIP3    H121908   2.984   3.498   2.511
 7317TIP3    H221909   3.032   3.629   2.569
 7318TIP3   OH221910   4.834   6.235   2.521
 7318TIP3    H121911   4.849   6.174   2.449
 7318TIP3    H221912   4.748   6.273   2.502
 7319TIP3   OH221913   7.885   7.661   2.002
 7319TIP3    H121914   7.978   7.682   2.008
 7319TIP3    H221915   7.870   7.598   2.073
 7320TIP3   OH221916   6.075   5.173   1.207
 7320TIP3    H121917   6.078   5.088   1.165
 7320TIP3    H221918   6.112   5.234   1.143
 7321TIP3   OH221919   3.205   6.177   3.596
 7321TIP3    H121920   3.247   6.238   3.657
 7321TIP3    H221921   3.162   6.234   3.532
 7322TIP3   OH221922   4.732   6.998   0.525
 7322TIP3    H121923   4.766   7.026   0.609
 7322TIP3    H221924   4.761   6.907   0.516
 7323TIP3   OH221925   4.076   6.763   1.722
 7323TIP3    H121926   4.026   6.830   1.675
 7323TIP3    H221927   4.139   6.730   1.658
 7324TIP3   OH221928   2.372   7.420   1.421
 7324TIP3    H121929   2.319   7.343   1.399
 7324TIP3    H221930   2.381   7.417   1.516
 7325TIP3   OH221931   7.485   3.253   0.858
 7325TIP3    H121932   7.580   3.255   0.857
 7325TIP3    H221933   7.464   3.168   0.898
 7326TIP3   OH221934   0.737   6.358   6.674
 7326TIP3    H121935   0.755   6.436   6.622
 7326TIP3    H221936   0.643   6.363   6.693
 7327TIP3   OH221937   7.392   3.266   4.366
 7327TIP3    H121938   7.437   3.349   4.383
 7327TIP3    H221939   7.451   3.219   4.307
 7328TIP3   OH221940   0.410   2.398   5.525
 7328TIP3    H121941   0.355   2.361   5.595
 7328TIP3    H221942   0.348   2.417   5.454
 7329TIP3   OH221943   7.326   2.570   2.612
 7329TIP3    H121944   7.236   2.604   2.606
 7329TIP3    H221945   7.380   2.640   2.575
 7330TIP3   OH221946   0.689   2.530   6.090
 7330TIP3    H121947   0.633   2.589   6.140
 7330TIP3    H221948   0.724   2.585   6.019
 7331TIP3   OH221949   7.271   0.782   2.155
 7331TIP3    H121950   7.270   0.723   2.230
 7331TIP3    H221951   7.275   0.725   2.078
 7332TIP3   OH221952   2.656   7.757   2.586
 7332TIP3    H121953   2.588   7.692   2.568
 7332TIP3    H221954   2.689   7.734   2.673
 7333TIP3   OH221955   1.139   5.233   4.526
 7333TIP3    H121956   1.177   5.320   4.518
 7333TIP3    H221957   1.208   5.174   4.496
 7334TIP3   OH221958   3.573   3.092   3.556
 7334TIP3    H121959   3.631   3.089   3.480
 7334TIP3    H221960   3.621   3.044   3.624
 7335TIP3   OH221961   0.385   5.825   0.372
 7335TIP3    H121962   0.353   5.775   0.447
 7335TIP3    H221963   0.371   5.917   0.397
 7336TIP3   OH221964   7.514   6.276   1.622
 7336TIP3    H121965   7.489   6.219   1.695
 7336TIP3    H221966   7.608   6.289   1.632
 7337TIP3   OH221967   1.766   6.366   4.744
 7337TIP3    H121968   1.824   6.346   4.818
 7337TIP3    H221969   1.760   6.284   4.696
 7338TIP3   OH221970   6.482   1.234   5.323
 7338TIP3    H121971   6.403   1.236   5.377
 7338TIP3    H221972   6.453   1.196   5.240
 7339TIP3   OH221973   7.148   1.730   3.927
 7339TIP3    H121974   7.087   1.770   3.989
 7339TIP3    H221975   7.091   1.687   3.863
 7340TIP3   OH221976   1.441   5.376   4.339
 7340TIP3    H121977   1.376   5.436   4.376
 7340TIP3    H221978   1.399   5.341   4.260
 7341TIP3   OH221979   2.124   3.309   4.976
 7341TIP3    H121980   2.197   3.371   4.973
 7341TIP3    H221981   2.050   3.361   5.006
 7342TIP3   OH221982   6.745   6.029   2.421
 7342TIP3    H121983   6.652   6.005   2.415
 7342TIP3    H221984   6.744   6.120   2.451
 7343TIP3   OH221985   2.182   0.410   0.856
 7343TIP3    H121986   2.122   0.351   0.903
 7343TIP3    H221987   2.202   0.479   0.919
 7344TIP3   OH221988   6.990   2.121   6.279
 7344TIP3    H121989   7.036   2.080   6.352
 7344TIP3    H221990   7.058   2.170   6.233
 7345TIP3   OH221991   4.989   0.685   2.451
 7345TIP3    H121992   4.985   0.771   2.410
 7345TIP3    H221993   5.048   0.698   2.526
 7346TIP3   OH221994   5.132   7.667   4.586
 7346TIP3    H121995   5.084   7.725   4.645
 7346TIP3    H221996   5.179   7.607   4.644
 7347TIP3   OH221997   1.080   2.470   4.899
 7347TIP3    H121998   1.013   2.536   4.878
 7347TIP3    H221999   1.039   2.386   4.876
 7348TIP3   OH222000   2.152   2.569   5.251
 7348TIP3    H122001   2.099   2.568   5.331
 7348TIP3    H222002   2.181   2.478   5.240
 7349TIP3   OH222003   3.346   0.619   4.074
 7349TIP3    H122004   3.357   0.547   4.137
 7349TIP3    H222005   3.427   0.618   4.022
 7350TIP3   OH222006   1.016   3.441   5.231
 7350TIP3    H122007   1.013   3.367   5.292
 7350TIP3    H222008   0.930   3.441   5.189
 7351TIP3   OH222009   6.929   5.298   4.450
 7351TIP3    H122010   6.842   5.302   4.491
 7351TIP3    H222011   6.982   5.359   4.502
 7352TIP3   OH222012   0.153   7.644   3.034
 7352TIP3    H122013   0.154   7.551   3.057
 7352TIP3    H222014   0.242   7.663   3.004
 7353TIP3   OH222015   5.369   2.301   3.996
 7353TIP3    H122016   5.461   2.293   3.973
 7353TIP3    H222017   5.342   2.384   3.957
 7354TIP3   OH222018   1.960   2.123   0.125
 7354TIP3    H122019   1.915   2.038   0.120
 7354TIP3    H222020   1.963   2.143   0.218
 7355TIP3   OH222021   0.039   3.515   3.137
 7355TIP3    H122022   0.034   3.609   3.120
 7355TIP3    H222023   0.121   3.503   3.185
 7356TIP3   OH222024   5.834   2.504   5.609
 7356TIP3    H122025   5.764   2.557   5.646
 7356TIP3    H222026   5.866   2.555   5.534
 7357TIP3   OH222027   3.558   6.713   2.256
 7357TIP3    H122028   3.605   6.639   2.218
 7357TIP3    H222029   3.626   6.777   2.275
 7358TIP3   OH222030   6.673   7.168   2.947
 7358TIP3    H122031   6.701   7.259   2.934
 7358TIP3    H222032   6.626   7.169   3.030
 7359TIP3   OH222033   5.037   3.745   2.063
 7359TIP3    H122034   4.943   3.730   2.072
 7359TIP3    H222035   5.049   3.768   1.971
 7360TIP3   OH222036   2.659   5.629   5.271
 7360TIP3    H122037   2.627   5.632   5.181
 7360TIP3    H222038   2.606   5.561   5.313
 7361TIP3   OH222039   2.212   4.916   0.219
 7361TIP3    H122040   2.161   4.986   0.260
 7361TIP3    H222041   2.149   4.845   0.204
 7362TIP3   OH222042   2.239   0.658   2.598
 7362TIP3    H122043   2.230   0.753   2.612
 7362TIP3    H222044   2.155   0.622   2.625
 7363TIP3   OH222045   1.502   5.358   0.079
 7363TIP3    H122046   1.477   5.450   0.065
 7363TIP3    H222047   1.547   5.334  -0.002
 7364TIP3   OH222048   2.609   4.513   1.337
 7364TIP3    H122049   2.704   4.523   1.333
 7364TIP3    H222050   2.579   4.583   1.395
 7365TIP3   OH222051   4.462   0.102   2.904
 7365TIP3    H122052   4.489   0.088   2.813
 7365TIP3    H222053   4.475   0.196   2.919
 7366TIP3   OH222054   2.353   3.792   5.559
 7366TIP3    H122055   2.359   3.759   5.648
 7366TIP3    H222056   2.443   3.785   5.525
 7367TIP3   OH222057   3.993   1.973   1.536
 7367TIP3    H122058   3.971   1.882   1.555
 7367TIP3    H222059   3.911   2.013   1.509
 7368TIP3   OH222060   3.721   6.718   4.211
 7368TIP3    H122061   3.684   6.708   4.298
 7368TIP3    H222062   3.754   6.631   4.188
 7369TIP3   OH222063   5.316   2.395   2.433
 7369TIP3    H122064   5.409   2.410   2.454
 7369TIP3    H222065   5.269   2.419   2.513
 7370TIP3   OH222066   7.457   2.279   3.092
 7370TIP3    H122067   7.445   2.373   3.078
 7370TIP3    H222068   7.552   2.267   3.089
 7371TIP3   OH222069   7.214   5.414   3.851
 7371TIP3    H122070   7.281   5.349   3.832
 7371TIP3    H222071   7.131   5.371   3.829
 7372TIP3   OH222072   4.845   3.068   6.455
 7372TIP3    H122073   4.918   3.088   6.514
 7372TIP3    H222074   4.871   3.107   6.371
 7373TIP3   OH222075   2.145   2.847   4.189
 7373TIP3    H122076   2.109   2.759   4.186
 7373TIP3    H222077   2.240   2.835   4.183
 7374TIP3   OH222078   4.747   0.625   1.851
 7374TIP3    H122079   4.671   0.580   1.889
 7374TIP3    H222080   4.729   0.628   1.757
 7375TIP3   OH222081   7.356   3.301   4.822
 7375TIP3    H122082   7.418   3.374   4.830
 7375TIP3    H222083   7.379   3.242   4.893
 7376TIP3   OH222084   6.357   7.414   3.799
 7376TIP3    H122085   6.396   7.487   3.750
 7376TIP3    H222086   6.370   7.437   3.890
 7377TIP3   OH222087   7.791   6.058   1.839
 7377TIP3    H122088   7.869   6.114   1.846
 7377TIP3    H222089   7.787   6.035   1.746
 7378TIP3   OH222090   3.009   0.012   4.911
 7378TIP3    H122091   3.013   0.052   4.824
 7378TIP3    H222092   2.977   0.083   4.967
 7379TIP3   OH222093   0.390   6.136   6.150
 7379TIP3    H122094   0.394   6.163   6.058
 7379TIP3    H222095   0.427   6.048   6.150
 7380TIP3   OH222096   7.943   6.406   5.987
 7380TIP3    H122097   7.957   6.467   5.915
 7380TIP3    H222098   8.026   6.358   5.994
 7381TIP3   OH222099   5.427   2.012   2.496
 7381TIP3    H122100   5.404   1.927   2.459
 7381TIP3    H222101   5.522   2.013   2.498
 7382TIP3   OH222102   7.544   0.129   0.603
 7382TIP3    H122103   7.522   0.049   0.651
 7382TIP3    H222104   7.589   0.099   0.524
 7383TIP3   OH222105   1.911   0.558   5.237
 7383TIP3    H122106   1.841   0.620   5.255
 7383TIP3    H222107   1.965   0.601   5.170
 7384TIP3   OH222108   0.984   4.884   5.583
 7384TIP3    H122109   1.013   4.974   5.564
 7384TIP3    H222110   0.984   4.840   5.498
 7385TIP3   OH222111   1.322   6.193   5.611
 7385TIP3    H122112   1.320   6.287   5.630
 7385TIP3    H222113   1.232   6.173   5.583
 7386TIP3   OH222114   0.850   6.216   0.220
 7386TIP3    H122115   0.917   6.171   0.272
 7386TIP3    H222116   0.819   6.287   0.276
 7387TIP3   OH222117   3.192   7.528   1.711
 7387TIP3    H122118   3.223   7.506   1.799
 7387TIP3    H222119   3.259   7.588   1.677
 7388TIP3   OH222120   3.505   2.994   2.236
 7388TIP3    H122121   3.509   3.029   2.325
 7388TIP3    H222122   3.574   3.041   2.189
 7389TIP3   OH222123   4.464   4.158   6.704
 7389TIP3    H122124   4.501   4.244   6.688
 7389TIP3    H222125   4.540   4.100   6.715
 7390TIP3   OH222126   1.779   1.592   0.170
 7390TIP3    H122127   1.759   1.499   0.181
 7390TIP3    H222128   1.839   1.595   0.096
 7391TIP3   OH222129   3.732   6.249   5.135
 7391TIP3    H122130   3.731   6.264   5.041
 7391TIP3    H222131   3.717   6.335   5.174
 7392TIP3   OH222132   4.337   7.494   5.687
 7392TIP3    H122133   4.432   7.499   5.698
 7392TIP3    H222134   4.324   7.470   5.596
 7393TIP3   OH222135   4.491   0.966   2.815
 7393TIP3    H122136   4.551   1.027   2.772
 7393TIP3    H222137   4.524   0.959   2.904
 7394TIP3   OH222138   6.644   3.156   0.135
 7394TIP3    H122139   6.597   3.236   0.159
 7394TIP3    H222140   6.576   3.098   0.100
 7395TIP3   OH222141   8.172   2.150   1.747
 7395TIP3    H122142   8.091   2.148   1.798
 7395TIP3    H222143   8.188   2.059   1.724
 7396TIP3   OH222144   1.063   0.376   1.345
 7396TIP3    H122145   1.123   0.302   1.334
 7396TIP3    H222146   1.119   0.449   1.370
 7397TIP3   OH222147   5.798   1.403   4.797
 7397TIP3    H122148   5.707   1.373   4.800
 7397TIP3    H222149   5.808   1.457   4.876
 7398TIP3   OH222150   7.988   6.316   2.743
 7398TIP3    H122151   8.084   6.314   2.753
 7398TIP3    H222152   7.973   6.274   2.658
 7399TIP3   OH222153   5.796   2.978   2.541
 7399TIP3    H122154   5.879   2.991   2.587
 7399TIP3    H222155   5.742   3.053   2.567
 7400TIP3   OH222156   3.508   2.851   1.101
 7400TIP3    H122157   3.579   2.829   1.161
 7400TIP3    H222158   3.550   2.898   1.030
 7401TIP3   OH222159   6.354   3.907   3.800
 7401TIP3    H122160   6.287   3.919   3.733
 7401TIP3    H222161   6.334   3.822   3.840
 7402TIP3   OH222162   7.603   0.875   6.031
 7402TIP3    H122163   7.613   0.889   6.125
 7402TIP3    H222164   7.585   0.963   5.995
 7403TIP3   OH222165   3.997   0.475   6.736
 7403TIP3    H122166   3.929   0.488   6.801
 7403TIP3    H222167   4.068   0.532   6.764
 7404TIP3   OH222168   4.935   3.483   2.028
 7404TIP3    H122169   4.942   3.438   2.112
 7404TIP3    H222170   4.987   3.563   2.040
 7405TIP3   OH222171   1.171   2.810   3.452
 7405TIP3    H122172   1.127   2.895   3.446
 7405TIP3    H222173   1.135   2.760   3.379
 7406TIP3   OH222174   7.221   1.325   1.848
 7406TIP3    H122175   7.136   1.289   1.826
 7406TIP3    H222176   7.203   1.416   1.874
 7407TIP3   OH222177   4.814   6.072   3.379
 7407TIP3    H122178   4.885   6.023   3.421
 7407TIP3    H222179   4.736   6.048   3.428
 7408TIP3   OH222180   7.954   7.260   2.938
 7408TIP3    H122181   7.967   7.234   2.847
 7408TIP3    H222182   7.920   7.181   2.980
 7409TIP3   OH222183   7.354   7.431   2.752
 7409TIP3    H122184   7.380   7.502   2.693
 7409TIP3    H222185   7.437   7.395   2.784
 7410TIP3   OH222186   3.671   0.749   1.015
 7410TIP3    H122187   3.759   0.720   1.038
 7410TIP3    H222188   3.631   0.772   1.098
 7411TIP3   OH222189   4.959   2.594   0.490
 7411TIP3    H122190   5.026   2.612   0.423
 7411TIP3    H222191   4.917   2.679   0.504
 7412TIP3   OH222192   5.251   6.461   1.090
 7412TIP3    H122193   5.205   6.527   1.038
 7412TIP3    H222194   5.199   6.452   1.169
 7413TIP3   OH222195   2.321   3.798   0.782
 7413TIP3    H122196   2.414   3.786   0.800
 7413TIP3    H222197   2.285   3.709   0.777
 7414TIP3   OH222198   6.482   7.644   3.674
 7414TIP3    H122199   6.399   7.691   3.663
 7414TIP3    H222200   6.519   7.640   3.586
 7415TIP3   OH222201   2.475   6.214   4.803
 7415TIP3    H122202   2.535   6.235   4.732
 7415TIP3    H222203   2.524   6.233   4.883
 7416TIP3   OH222204   3.342   0.783   1.439
 7416TIP3    H122205   3.308   0.718   1.500
 7416TIP3    H222206   3.265   0.814   1.392
 7417TIP3   OH222207   1.682   6.145   6.188
 7417TIP3    H122208   1.694   6.069   6.245
 7417TIP3    H222209   1.683   6.220   6.247
 7418TIP3   OH222210   8.122   1.191   3.347
 7418TIP3    H122211   8.079   1.274   3.323
 7418TIP3    H222212   8.071   1.159   3.422
 7419TIP3   OH222213   4.465   6.877   5.685
 7419TIP3    H122214   4.430   6.939   5.622
 7419TIP3    H222215   4.462   6.792   5.640
 7420TIP3   OH222216   3.640   1.920   0.925
 7420TIP3    H122217   3.607   1.835   0.897
 7420TIP3    H222218   3.561   1.974   0.937
 7421TIP3   OH222219   7.263   7.259   4.008
 7421TIP3    H122220   7.277   7.184   3.950
 7421TIP3    H222221   7.300   7.231   4.092
 7422TIP3   OH222222   6.949   3.521   2.293
 7422TIP3    H122223   7.020   3.583   2.279
 7422TIP3    H222224   6.876   3.556   2.242
 7423TIP3   OH222225   4.034   0.188   4.643
 7423TIP3    H122226   4.089   0.255   4.683
 7423TIP3    H222227   3.962   0.177   4.705
 7424TIP3   OH222228   3.605   1.496   1.939
 7424TIP3    H122229   3.670   1.461   1.999
 7424TIP3    H222230   3.529   1.439   1.949
 7425TIP3   OH222231   6.322   7.775   1.947
 7425TIP3    H122232   6.411   7.786   1.913
 7425TIP3    H222233   6.334   7.736   2.033
 7426TIP3   OH222234   3.365   1.192   2.574
 7426TIP3    H122235   3.319   1.118   2.614
 7426TIP3    H222236   3.426   1.151   2.513
 7427TIP3   OH222237   6.281   1.285   4.148
 7427TIP3    H122238   6.205   1.333   4.180
 7427TIP3    H222239   6.342   1.286   4.222
 7428TIP3   OH222240   3.429   3.164   3.797
 7428TIP3    H122241   3.357   3.102   3.803
 7428TIP3    H222242   3.469   3.147   3.711
 7429TIP3   OH222243   4.601   3.205   0.691
 7429TIP3    H122244   4.539   3.141   0.654
 7429TIP3    H222245   4.574   3.213   0.782
 7430TIP3   OH222246   0.145   4.564   2.019
 7430TIP3    H122247   0.194   4.618   1.958
 7430TIP3    H222248   0.054   4.590   2.006
 7431TIP3   OH222249   5.989   5.428   0.802
 7431TIP3    H122250   6.077   5.391   0.797
 7431TIP3    H222251   5.997   5.499   0.866
 7432TIP3   OH222252   6.831   1.746   5.983
 7432TIP3    H122253   6.899   1.809   5.959
 7432TIP3    H222254   6.835   1.680   5.913
 7433TIP3   OH222255   0.393   0.671   2.172
 7433TIP3    H122256   0.299   0.668   2.191
 7433TIP3    H222257   0.418   0.762   2.188
 7434TIP3   OH222258   6.535   6.606   0.590
 7434TIP3    H122259   6.560   6.609   0.682
 7434TIP3    H222260   6.514   6.514   0.574
 7435TIP3   OH222261   6.559   3.804   0.484
 7435TIP3    H122262   6.639   3.769   0.524
 7435TIP3    H222263   6.567   3.782   0.392
 7436TIP3   OH222264   6.394   3.679   1.327
 7436TIP3    H122265   6.319   3.715   1.280
 7436TIP3    H222266   6.369   3.589   1.346
 7437TIP3   OH222267   3.654   1.514   5.546
 7437TIP3    H122268   3.684   1.534   5.457
 7437TIP3    H222269   3.635   1.600   5.584
 7438TIP3   OH222270   8.050   4.913   2.419
 7438TIP3    H122271   8.117   4.859   2.378
 7438TIP3    H222272   7.969   4.863   2.409
 7439TIP3   OH222273   3.835   6.106   6.002
 7439TIP3    H122274   3.896   6.079   5.933
 7439TIP3    H222275   3.891   6.138   6.073
 7440TIP3   OH222276   5.875   0.453   2.879
 7440TIP3    H122277   5.855   0.434   2.970
 7440TIP3    H222278   5.838   0.379   2.830
 7441TIP3   OH222279   1.097   6.758   3.473
 7441TIP3    H122280   1.033   6.693   3.446
 7441TIP3    H222281   1.050   6.812   3.537
 7442TIP3   OH222282   0.659   1.010   1.077
 7442TIP3    H122283   0.651   0.916   1.061
 7442TIP3    H222284   0.571   1.038   1.102
 7443TIP3   OH222285   0.023   3.597   6.550
 7443TIP3    H122286   0.077   3.654   6.605
 7443TIP3    H222287   0.083   3.526   6.524
 7444TIP3   OH222288   1.535   6.757   0.375
 7444TIP3    H122289   1.613   6.725   0.329
 7444TIP3    H222290   1.513   6.687   0.436
 7445TIP3   OH222291   0.146   5.610   2.012
 7445TIP3    H122292   0.179   5.563   2.089
 7445TIP3    H222293   0.170   5.555   1.938
 7446TIP3   OH222294   4.927   2.659   1.909
 7446TIP3    H122295   4.993   2.593   1.931
 7446TIP3    H222296   4.908   2.702   1.992
 7447TIP3   OH222297   6.605   1.532   5.882
 7447TIP3    H122298   6.515   1.564   5.886
 7447TIP3    H222299   6.655   1.605   5.845
 7448TIP3   OH222300   4.956   6.322   0.273
 7448TIP3    H122301   5.044   6.319   0.309
 7448TIP3    H222302   4.899   6.322   0.350
 7449TIP3   OH222303   2.842   3.979   4.857
 7449TIP3    H122304   2.829   3.896   4.903
 7449TIP3    H222305   2.834   3.957   4.764
 7450TIP3   OH222306   3.322   0.340   1.612
 7450TIP3    H122307   3.339   0.371   1.523
 7450TIP3    H222308   3.243   0.287   1.604
 7451TIP3   OH222309   7.738   0.429   0.636
 7451TIP3    H122310   7.816   0.467   0.675
 7451TIP3    H222311   7.737   0.338   0.665
 7452TIP3   OH222312   7.373   3.289   2.359
 7452TIP3    H122313   7.430   3.249   2.425
 7452TIP3    H222314   7.285   3.282   2.396
 7453TIP3   OH222315   4.221   7.059   1.348
 7453TIP3    H122316   4.282   7.079   1.277
 7453TIP3    H222317   4.199   7.144   1.387
 7454TIP3   OH222318   3.665   1.874   4.584
 7454TIP3    H122319   3.756   1.850   4.602
 7454TIP3    H222320   3.647   1.836   4.498
 7455TIP3   OH222321   6.741   2.453   6.047
 7455TIP3    H122322   6.697   2.368   6.047
 7455TIP3    H222323   6.779   2.460   6.135
 7456TIP3   OH222324   4.560   3.764   1.782
 7456TIP3    H122325   4.590   3.694   1.840
 7456TIP3    H222326   4.539   3.837   1.841
 7457TIP3   OH222327   1.734   4.223   1.300
 7457TIP3    H122328   1.807   4.175   1.339
 7457TIP3    H222329   1.658   4.199   1.352
 7458TIP3   OH222330   0.224   6.272   0.284
 7458TIP3    H122331   0.187   6.353   0.317
 7458TIP3    H222332   0.167   6.203   0.319
 7459TIP3   OH222333   2.206   6.721   4.513
 7459TIP3    H122334   2.275   6.697   4.576
 7459TIP3    H222335   2.124   6.707   4.561
 7460TIP3   OH222336   6.074   2.002   4.406
 7460TIP3    H122337   6.063   1.981   4.313
 7460TIP3    H222338   6.144   1.944   4.436
 7461TIP3   OH222339   3.954   0.052   4.415
 7461TIP3    H122340   3.972   0.100   4.495
 7461TIP3    H222341   3.867   0.015   4.429
 7462TIP3   OH222342   3.590   2.809   5.229
 7462TIP3    H122343   3.679   2.794   5.198
 7462TIP3    H222344   3.560   2.885   5.180
 7463TIP3   OH222345   4.575   7.041   2.036
 7463TIP3    H122346   4.576   6.999   2.122
 7463TIP3    H222347   4.482   7.051   2.016
 7464TIP3   OH222348   3.586   0.158   2.353
 7464TIP3    H122349   3.578   0.163   2.258
 7464TIP3    H222350   3.559   0.245   2.384
 7465TIP3   OH222351   7.496   4.378   1.841
 7465TIP3    H122352   7.475   4.450   1.900
 7465TIP3    H222353   7.592   4.381   1.833
 7466TIP3   OH222354   5.516   1.988   0.427
 7466TIP3    H122355   5.597   2.038   0.439
 7466TIP3    H222356   5.512   1.971   0.333
 7467TIP3   OH222357   7.884   6.921   0.200
 7467TIP3    H122358   7.932   6.989   0.247
 7467TIP3    H222359   7.794   6.930   0.231
 7468TIP3   OH222360   1.889   3.312   4.128
 7468TIP3    H122361   1.912   3.229   4.088
 7468TIP3    H222362   1.800   3.329   4.097
 7469TIP3   OH222363   0.041   2.820   3.289
 7469TIP3    H122364   0.088   2.895   3.327
 7469TIP3    H222365   0.103   2.781   3.228
 7470TIP3   OH222366   6.703   1.077   3.570
 7470TIP3    H122367   6.629   1.128   3.538
 7470TIP3    H222368   6.738   1.128   3.643
 7471TIP3   OH222369   2.264   0.271   2.838
 7471TIP3    H122370   2.227   0.348   2.881
 7471TIP3    H222371   2.252   0.200   2.902
 7472TIP3   OH222372   7.729   1.045   1.131
 7472TIP3    H122373   7.820   1.055   1.160
 7472TIP3    H222374   7.685   1.002   1.204
 7473TIP3   OH222375   6.490   2.077   2.133
 7473TIP3    H122376   6.550   2.065   2.207
 7473TIP3    H222377   6.484   2.173   2.124
 7474TIP3   OH222378   7.860   6.495   2.887
 7474TIP3    H122379   7.920   6.432   2.847
 7474TIP3    H222380   7.908   6.578   2.886
 7475TIP3   OH222381   8.042   2.217   0.925
 7475TIP3    H122382   8.037   2.206   1.020
 7475TIP3    H222383   8.014   2.307   0.910
 7476TIP3   OH222384   7.542   2.278   1.535
 7476TIP3    H122385   7.522   2.324   1.617
 7476TIP3    H222386   7.567   2.190   1.563
 7477TIP3   OH222387   7.728   0.589   5.708
 7477TIP3    H122388   7.718   0.525   5.778
 7477TIP3    H222389   7.767   0.665   5.751
 7478TIP3   OH222390   6.300   3.376   3.891
 7478TIP3    H122391   6.362   3.303   3.895
 7478TIP3    H222392   6.231   3.353   3.953
 7479TIP3   OH222393   4.929   1.039   4.917
 7479TIP3    H122394   4.902   1.129   4.900
 7479TIP3    H222395   4.873   0.986   4.860
 7480TIP3   OH222396   0.243   6.799   3.064
 7480TIP3    H122397   0.176   6.776   3.000
 7480TIP3    H222398   0.240   6.729   3.129
 7481TIP3   OH222399   3.280   6.341   2.891
 7481TIP3    H122400   3.334   6.358   2.814
 7481TIP3    H222401   3.242   6.255   2.875
 7482TIP3   OH222402   6.737   5.537   0.631
 7482TIP3    H122403   6.806   5.531   0.565
 7482TIP3    H222404   6.666   5.481   0.597
 7483TIP3   OH222405   2.921   4.488   4.683
 7483TIP3    H122406   2.918   4.412   4.741
 7483TIP3    H222407   2.998   4.473   4.628
 7484TIP3   OH222408   0.181   0.905   3.154
 7484TIP3    H122409   0.254   0.965   3.136
 7484TIP3    H222410   0.131   0.904   3.073
 7485TIP3   OH222411   6.000   7.396   3.989
 7485TIP3    H122412   5.909   7.417   4.009
 7485TIP3    H222413   5.994   7.335   3.915
 7486TIP3   OH222414   2.800   2.555   6.088
 7486TIP3    H122415   2.751   2.492   6.034
 7486TIP3    H222416   2.735   2.620   6.114
 7487TIP3   OH222417   2.801   2.614   3.352
 7487TIP3    H122418   2.723   2.651   3.310
 7487TIP3    H222419   2.768   2.542   3.406
 7488TIP3   OH222420   1.340   3.014   4.012
 7488TIP3    H122421   1.423   3.006   3.965
 7488TIP3    H222422   1.273   2.990   3.949
 7489TIP3   OH222423   2.521   0.534   1.254
 7489TIP3    H122424   2.499   0.470   1.186
 7489TIP3    H222425   2.461   0.514   1.326
 7490TIP3   OH222426   5.090   3.949   5.474
 7490TIP3    H122427   5.160   4.005   5.508
 7490TIP3    H222428   5.133   3.865   5.457
 7491TIP3   OH222429   0.601   4.806   5.043
 7491TIP3    H122430   0.552   4.776   4.966
 7491TIP3    H222431   0.632   4.893   5.018
 7492TIP3   OH222432   3.930   1.842   2.105
 7492TIP3    H122433   3.905   1.816   2.194
 7492TIP3    H222434   3.875   1.788   2.048
 7493TIP3   OH222435   2.703   0.105   3.639
 7493TIP3    H122436   2.755   0.177   3.603
 7493TIP3    H222437   2.619   0.146   3.661
 7494TIP3   OH222438   4.685   4.767   0.085
 7494TIP3    H122439   4.742   4.693   0.106
 7494TIP3    H222440   4.729   4.842   0.125
 7495TIP3   OH222441   2.656   6.867   4.915
 7495TIP3    H122442   2.717   6.838   4.983
 7495TIP3    H222443   2.624   6.951   4.947
 7496TIP3   OH222444   4.036   0.186   1.106
 7496TIP3    H122445   3.967   0.250   1.088
 7496TIP3    H222446   4.006   0.140   1.185
 7497TIP3   OH222447   2.203   0.470   6.358
 7497TIP3    H122448   2.222   0.561   6.380
 7497TIP3    H222449   2.285   0.423   6.374
 7498TIP3   OH222450   1.899   5.547   2.171
 7498TIP3    H122451   1.930   5.560   2.081
 7498TIP3    H222452   1.859   5.460   2.170
 7499TIP3   OH222453   4.007   5.008   5.628
 7499TIP3    H122454   4.008   5.066   5.704
 7499TIP3    H222455   3.945   4.939   5.651
 7500TIP3   OH222456   2.518   0.945   4.946
 7500TIP3    H122457   2.521   1.021   4.888
 7500TIP3    H222458   2.456   0.969   5.014
 7501TIP3   OH222459   3.177   5.484   6.729
 7501TIP3    H122460   3.254   5.430   6.742
 7501TIP3    H222461   3.128   5.440   6.659
 7502TIP3   OH222462   1.843   3.439   1.030
 7502TIP3    H122463   1.811   3.423   0.942
 7502TIP3    H222464   1.916   3.378   1.041
 7503TIP3   OH222465   6.722   6.712   4.852
 7503TIP3    H122466   6.708   6.742   4.762
 7503TIP3    H222467   6.808   6.748   4.876
 7504TIP3   OH222468   0.825   6.845   4.530
 7504TIP3    H122469   0.823   6.901   4.608
 7504TIP3    H222470   0.761   6.884   4.471
 7505TIP3   OH222471   2.629   0.671   1.569
 7505TIP3    H122472   2.691   0.622   1.623
 7505TIP3    H222473   2.683   0.719   1.507
 7506TIP3   OH222474   1.428   5.181   2.012
 7506TIP3    H122475   1.347   5.209   2.054
 7506TIP3    H222476   1.406   5.098   1.970
 7507TIP3   OH222477   7.171   4.563   4.701
 7507TIP3    H122478   7.124   4.520   4.630
 7507TIP3    H222479   7.252   4.595   4.661
 7508TIP3   OH222480   6.688   5.236   4.609
 7508TIP3    H122481   6.602   5.274   4.623
 7508TIP3    H222482   6.741   5.266   4.683
 7509TIP3   OH222483   6.729   7.005   0.957
 7509TIP3    H122484   6.790   6.955   1.012
 7509TIP3    H222485   6.687   6.939   0.902
 7510TIP3   OH222486   1.187   6.067   5.148
 7510TIP3    H122487   1.282   6.077   5.159
 7510TIP3    H222488   1.154   6.058   5.238
 7511TIP3   OH222489   5.475   1.084   6.025
 7511TIP3    H122490   5.390   1.116   6.057
 7511TIP3    H222491   5.507   1.154   5.968
 7512TIP3   OH222492   8.014   4.912   0.166
 7512TIP3    H122493   8.010   4.952   0.078
 7512TIP3    H222494   7.978   4.979   0.224
 7513TIP3   OH222495   3.539   0.435   6.087
 7513TIP3    H122496   3.496   0.514   6.121
 7513TIP3    H222497   3.467   0.373   6.073
 7514TIP3   OH222498   8.141   6.557   1.787
 7514TIP3    H122499   8.051   6.526   1.779
 7514TIP3    H222500   8.180   6.502   1.854
 7515TIP3   OH222501   0.573   0.593   0.126
 7515TIP3    H122502   0.661   0.628   0.141
 7515TIP3    H222503   0.518   0.670   0.112
 7516TIP3   OH222504   2.290   4.884   2.023
 7516TIP3    H122505   2.308   4.800   2.066
 7516TIP3    H222506   2.305   4.867   1.930
 7517TIP3   OH222507   4.776   0.850   2.062
 7517TIP3    H122508   4.705   0.796   2.026
 7517TIP3    H222509   4.856   0.800   2.044
 7518TIP3   OH222510   3.644   4.257   3.940
 7518TIP3    H122511   3.635   4.350   3.920
 7518TIP3    H222512   3.737   4.246   3.962
 7519TIP3   OH222513   3.131   2.756   6.805
 7519TIP3    H122514   3.136   2.775   6.711
 7519TIP3    H222515   3.049   2.708   6.816
 7520TIP3   OH222516   5.323   2.761   1.467
 7520TIP3    H122517   5.264   2.824   1.508
 7520TIP3    H222518   5.344   2.800   1.382
 7521TIP3   OH222519   3.039   4.271   4.826
 7521TIP3    H122520   3.085   4.227   4.754
 7521TIP3    H222521   3.063   4.220   4.904
 7522TIP3   OH222522   6.817   4.348   0.257
 7522TIP3    H122523   6.742   4.406   0.244
 7522TIP3    H222524   6.783   4.261   0.241
 7523TIP3   OH222525   6.799   4.846   1.864
 7523TIP3    H122526   6.775   4.856   1.956
 7523TIP3    H222527   6.737   4.902   1.817
 7524TIP3   OH222528   8.275   3.604   3.792
 7524TIP3    H122529   8.262   3.559   3.708
 7524TIP3    H222530   8.368   3.596   3.809
 7525TIP3   OH222531   7.059   1.796   5.407
 7525TIP3    H122532   7.068   1.820   5.315
 7525TIP3    H222533   7.114   1.859   5.454
 7526TIP3   OH222534   6.706   7.678   4.522
 7526TIP3    H122535   6.789   7.632   4.512
 7526TIP3    H222536   6.722   7.743   4.591
 7527TIP3   OH222537   3.124   3.880   2.006
 7527TIP3    H122538   3.069   3.808   1.976
 7527TIP3    H222539   3.199   3.878   1.948
 7528TIP3   OH222540   5.068   3.253   5.927
 7528TIP3    H122541   5.009   3.288   5.994
 7528TIP3    H222542   5.109   3.330   5.888
 7529TIP3   OH222543   1.498   3.959   5.110
 7529TIP3    H122544   1.479   3.942   5.203
 7529TIP3    H222545   1.428   4.017   5.082
 7530TIP3   OH222546   3.133   1.329   2.725
 7530TIP3    H122547   3.184   1.405   2.753
 7530TIP3    H222548   3.199   1.263   2.703
 7531TIP3   OH222549   0.539   7.305   4.822
 7531TIP3    H122550   0.460   7.282   4.872
 7531TIP3    H222551   0.527   7.397   4.800
 7532TIP3   OH222552   3.385   2.472   2.519
 7532TIP3    H122553   3.331   2.551   2.519
 7532TIP3    H222554   3.328   2.403   2.553
 7533TIP3   OH222555   0.596   3.487   6.555
 7533TIP3    H122556   0.597   3.549   6.482
 7533TIP3    H222557   0.648   3.529   6.624
 7534TIP3   OH222558   7.979   2.994   1.429
 7534TIP3    H122559   7.890   3.020   1.406
 7534TIP3    H222560   8.009   3.064   1.488
 7535TIP3   OH222561   3.767   1.774   2.326
 7535TIP3    H122562   3.728   1.737   2.405
 7535TIP3    H222563   3.698   1.770   2.260
 7536TIP3   OH222564   4.014   2.125   4.888
 7536TIP3    H122565   4.055   2.063   4.948
 7536TIP3    H222566   3.980   2.194   4.944
 7537TIP3   OH222567   7.995   5.289   6.652
 7537TIP3    H122568   8.058   5.357   6.677
 7537TIP3    H222569   7.909   5.327   6.671
 7538TIP3   OH222570   5.061   3.811   3.586
 7538TIP3    H122571   5.058   3.893   3.634
 7538TIP3    H222572   5.060   3.743   3.654
 7539TIP3   OH222573   0.659   5.534   3.628
 7539TIP3    H122574   0.686   5.514   3.538
 7539TIP3    H222575   0.738   5.519   3.680
 7540TIP3   OH222576   8.154   7.494   4.047
 7540TIP3    H122577   8.139   7.436   3.972
 7540TIP3    H222578   8.219   7.557   4.015
 7541TIP3   OH222579   1.976   6.502   5.558
 7541TIP3    H122580   1.910   6.571   5.548
 7541TIP3    H222581   2.060   6.546   5.543
 7542TIP3   OH222582   1.879   6.815   3.317
 7542TIP3    H122583   1.873   6.866   3.237
 7542TIP3    H222584   1.789   6.786   3.334
 7543TIP3   OH222585   5.673   4.680   2.001
 7543TIP3    H122586   5.688   4.709   2.091
 7543TIP3    H222587   5.610   4.744   1.966
 7544TIP3   OH222588   5.445   3.369   2.286
 7544TIP3    H122589   5.382   3.416   2.231
 7544TIP3    H222590   5.528   3.376   2.240
 7545TIP3   OH222591   0.262   4.953   0.972
 7545TIP3    H122592   0.311   5.021   1.019
 7545TIP3    H222593   0.172   4.986   0.970
 7546TIP3   OH222594   7.174   4.562   4.016
 7546TIP3    H122595   7.175   4.488   3.956
 7546TIP3    H222596   7.182   4.639   3.959
 7547TIP3   OH222597   6.874   0.812   3.662
 7547TIP3    H122598   6.899   0.793   3.572
 7547TIP3    H222599   6.793   0.862   3.655
 7548TIP3   OH222600   3.081   7.045   1.433
 7548TIP3    H122601   2.998   7.003   1.410
 7548TIP3    H222602   3.140   7.020   1.361
 7549TIP3   OH222603   0.232   3.626   3.875
 7549TIP3    H122604   0.193   3.713   3.873
 7549TIP3    H222605   0.324   3.642   3.900
 7550TIP3   OH222606   3.353   1.813   5.948
 7550TIP3    H122607   3.279   1.788   6.003
 7550TIP3    H222608   3.415   1.855   6.008
 7551TIP3   OH222609   6.167   5.286   2.686
 7551TIP3    H122610   6.117   5.299   2.605
 7551TIP3    H222611   6.230   5.217   2.665
 7552TIP3   OH222612   3.623   7.280   3.315
 7552TIP3    H122613   3.678   7.302   3.239
 7552TIP3    H222614   3.685   7.251   3.382
 7553TIP3   OH222615   8.141   6.218   6.017
 7553TIP3    H122616   8.236   6.217   6.025
 7553TIP3    H222617   8.110   6.167   6.091
 7554TIP3   OH222618   2.519   1.384   5.487
 7554TIP3    H122619   2.527   1.339   5.571
 7554TIP3    H222620   2.445   1.444   5.499
 7555TIP3   OH222621   2.742   3.504   6.553
 7555TIP3    H122622   2.825   3.532   6.593
 7555TIP3    H222623   2.695   3.585   6.537
 7556TIP3   OH222624   6.383   5.026   3.781
 7556TIP3    H122625   6.364   4.953   3.723
 7556TIP3    H222626   6.362   4.993   3.869
 7557TIP3   OH222627   2.883   3.528   0.909
 7557TIP3    H122628   2.789   3.521   0.894
 7557TIP3    H222629   2.899   3.475   0.987
 7558TIP3   OH222630   6.084   2.569   3.786
 7558TIP3    H122631   6.154   2.523   3.832
 7558TIP3    H222632   6.029   2.605   3.856
 7559TIP3   OH222633   7.384   4.200   4.786
 7559TIP3    H122634   7.378   4.253   4.706
 7559TIP3    H222635   7.470   4.221   4.822
 7560TIP3   OH222636   2.168   3.765   3.814
 7560TIP3    H122637   2.178   3.697   3.881
 7560TIP3    H222638   2.192   3.722   3.732
 7561TIP3   OH222639   6.624   4.089   5.355
 7561TIP3    H122640   6.642   4.084   5.261
 7561TIP3    H222641   6.580   4.006   5.375
 7562TIP3   OH222642   7.676   5.311   4.060
 7562TIP3    H122643   7.738   5.312   3.987
 7562TIP3    H222644   7.707   5.241   4.117
 7563TIP3   OH222645   5.600   4.728   2.277
 7563TIP3    H122646   5.691   4.753   2.297
 7563TIP3    H222647   5.599   4.633   2.291
 7564TIP3   OH222648   1.005   6.335   6.519
 7564TIP3    H122649   1.069   6.283   6.470
 7564TIP3    H222650   0.970   6.275   6.585
 7565TIP3   OH222651   0.844   0.089   4.964
 7565TIP3    H122652   0.851   0.049   4.877
 7565TIP3    H222653   0.934   0.086   4.998
 7566TIP3   OH222654   8.080   0.949   5.330
 7566TIP3    H122655   8.097   1.019   5.267
 7566TIP3    H222656   8.103   0.986   5.415
 7567TIP3   OH222657   3.339   4.465   5.269
 7567TIP3    H122658   3.353   4.371   5.284
 7567TIP3    H222659   3.327   4.473   5.174
 7568TIP3   OH222660   0.226   4.800   4.386
 7568TIP3    H122661   0.319   4.791   4.365
 7568TIP3    H222662   0.223   4.864   4.458
 7569TIP3   OH222663   6.990   7.224   4.612
 7569TIP3    H122664   7.017   7.312   4.638
 7569TIP3    H222665   7.029   7.167   4.678
 7570TIP3   OH222666   5.182   2.046   5.765
 7570TIP3    H122667   5.209   2.100   5.839
 7570TIP3    H222668   5.260   2.042   5.709
 7571TIP3   OH222669   2.508   2.234   6.553
 7571TIP3    H122670   2.530   2.256   6.644
 7571TIP3    H222671   2.590   2.243   6.506
 7572TIP3   OH222672   8.090   4.546   4.620
 7572TIP3    H122673   8.020   4.486   4.648
 7572TIP3    H222674   8.121   4.585   4.702
 7573TIP3   OH222675   6.041   6.030   1.829
 7573TIP3    H122676   6.025   6.118   1.864
 7573TIP3    H222677   5.988   6.025   1.750
 7574TIP3   OH222678   0.138   3.673   0.840
 7574TIP3    H122679   0.126   3.768   0.837
 7574TIP3    H222680   0.058   3.637   0.802
 7575TIP3   OH222681   6.922   1.556   5.787
 7575TIP3    H122682   6.887   1.508   5.712
 7575TIP3    H222683   7.017   1.550   5.777
 7576TIP3   OH222684   0.853   5.028   3.002
 7576TIP3    H122685   0.879   5.080   3.078
 7576TIP3    H222686   0.936   4.998   2.965
 7577TIP3   OH222687   6.471   7.556   4.454
 7577TIP3    H122688   6.557   7.594   4.474
 7577TIP3    H222689   6.434   7.615   4.389
 7578TIP3   OH222690   2.644   4.868   1.598
 7578TIP3    H122691   2.737   4.886   1.584
 7578TIP3    H222692   2.636   4.860   1.693
 7579TIP3   OH222693   5.065   7.526   4.344
 7579TIP3    H122694   5.097   7.583   4.415
 7579TIP3    H222695   5.077   7.578   4.265
 7580TIP3   OH222696   7.314   7.760   4.689
 7580TIP3    H122697   7.279   7.751   4.600
 7580TIP3    H222698   7.408   7.745   4.679
 7581TIP3   OH222699   7.298   4.174   3.686
 7581TIP3    H122700   7.315   4.079   3.691
 7581TIP3    H222701   7.363   4.206   3.623
 7582TIP3   OH222702   7.935   5.140   2.895
 7582TIP3    H122703   8.014   5.089   2.874
 7582TIP3    H222704   7.880   5.132   2.817
 7583TIP3   OH222705   1.639   3.678   1.293
 7583TIP3    H122706   1.680   3.672   1.206
 7583TIP3    H222707   1.552   3.714   1.275
 7584TIP3   OH222708   2.924   2.626   3.890
 7584TIP3    H122709   2.830   2.643   3.882
 7584TIP3    H222710   2.936   2.542   3.846
 7585TIP3   OH222711   4.554   4.874   0.470
 7585TIP3    H122712   4.627   4.816   0.449
 7585TIP3    H222713   4.559   4.885   0.565
 7586TIP3   OH222714   2.826   5.524   2.982
 7586TIP3    H122715   2.737   5.553   2.998
 7586TIP3    H222716   2.855   5.487   3.065
 7587TIP3   OH222717   6.109   0.590   5.703
 7587TIP3    H122718   6.205   0.595   5.704
 7587TIP3    H222719   6.081   0.680   5.686
 7588TIP3   OH222720   6.040   0.802   4.958
 7588TIP3    H122721   5.991   0.882   4.977
 7588TIP3    H222722   5.979   0.748   4.906
 7589TIP3   OH222723   5.259   5.283   0.654
 7589TIP3    H122724   5.352   5.261   0.666
 7589TIP3    H222725   5.247   5.286   0.559
 7590TIP3   OH222726   0.438   2.289   4.616
 7590TIP3    H122727   0.420   2.354   4.684
 7590TIP3    H222728   0.361   2.293   4.558
 7591TIP3   OH222729   7.185   4.762   3.313
 7591TIP3    H122730   7.255   4.697   3.304
 7591TIP3    H222731   7.110   4.722   3.268
 7592TIP3   OH222732   7.271   4.817   6.774
 7592TIP3    H122733   7.203   4.850   6.716
 7592TIP3    H222734   7.235   4.736   6.811
 7593TIP3   OH222735   7.003   4.043   6.200
 7593TIP3    H122736   7.011   4.119   6.258
 7593TIP3    H222737   7.000   4.081   6.112
 7594TIP3   OH222738   3.010   0.025   5.215
 7594TIP3    H122739   3.011   0.120   5.224
 7594TIP3    H222740   3.103   0.000   5.214
 7595TIP3   OH222741   7.319   6.914   2.376
 7595TIP3    H122742   7.408   6.878   2.385
 7595TIP3    H222743   7.312   6.977   2.447
 7596TIP3   OH222744   4.131   1.995   1.975
 7596TIP3    H122745   4.058   1.934   1.985
 7596TIP3    H222746   4.090   2.081   1.965
 7597TIP3   OH222747   1.991   1.396   0.057
 7597TIP3    H122748   1.972   1.319   0.110
 7597TIP3    H222749   1.954   1.376  -0.029
 7598TIP3   OH222750   5.698   5.443   6.120
 7598TIP3    H122751   5.656   5.378   6.064
 7598TIP3    H222752   5.718   5.395   6.201
 7599TIP3   OH222753   1.004   4.883   1.539
 7599TIP3    H122754   1.081   4.878   1.595
 7599TIP3    H222755   1.032   4.934   1.463
 7600TIP3   OH222756   7.234   3.985   4.700
 7600TIP3    H122757   7.294   3.912   4.716
 7600TIP3    H222758   7.280   4.061   4.735
 7601TIP3   OH222759   7.332   1.269   2.467
 7601TIP3    H122760   7.398   1.313   2.414
 7601TIP3    H222761   7.248   1.299   2.432
 7602TIP3   OH222762   6.507   5.734   5.705
 7602TIP3    H122763   6.450   5.711   5.632
 7602TIP3    H222764   6.561   5.806   5.672
 7603TIP3   OH222765   0.643   0.366   4.893
 7603TIP3    H122766   0.610   0.376   4.804
 7603TIP3    H222767   0.659   0.455   4.923
 7604TIP3   OH222768   5.768   7.436   4.769
 7604TIP3    H122769   5.856   7.401   4.781
 7604TIP3    H222770   5.768   7.519   4.816
 7605TIP3   OH222771   2.278   3.194   3.777
 7605TIP3    H122772   2.241   3.281   3.791
 7605TIP3    H222773   2.229   3.159   3.703
 7606TIP3   OH222774   1.960   5.473   0.990
 7606TIP3    H122775   1.878   5.466   0.940
 7606TIP3    H222776   1.936   5.443   1.078
 7607TIP3   OH222777   5.977   7.379   0.403
 7607TIP3    H122778   6.063   7.420   0.406
 7607TIP3    H222779   5.995   7.288   0.380
 7608TIP3   OH222780   7.937   4.222   2.321
 7608TIP3    H122781   7.912   4.313   2.300
 7608TIP3    H222782   8.028   4.229   2.351
 7609TIP3   OH222783   6.421   5.159   2.092
 7609TIP3    H122784   6.409   5.241   2.140
 7609TIP3    H222785   6.369   5.170   2.013
 7610TIP3   OH222786   1.453   5.689   3.110
 7610TIP3    H122787   1.451   5.785   3.109
 7610TIP3    H222788   1.454   5.666   3.203
 7611TIP3   OH222789   7.110   4.784   3.594
 7611TIP3    H122790   7.137   4.810   3.506
 7611TIP3    H222791   7.040   4.845   3.617
 7612TIP3   OH222792   0.333   2.805   2.445
 7612TIP3    H122793   0.376   2.828   2.363
 7612TIP3    H222794   0.243   2.835   2.434
 7613TIP3   OH222795   4.487   1.438   6.071
 7613TIP3    H122796   4.512   1.455   5.980
 7613TIP3    H222797   4.424   1.367   6.066
 7614TIP3   OH222798   1.569   0.681   6.001
 7614TIP3    H122799   1.621   0.630   6.063
 7614TIP3    H222800   1.622   0.758   5.983
 7615TIP3   OH222801   2.356   5.985   0.330
 7615TIP3    H122802   2.397   5.944   0.254
 7615TIP3    H222803   2.375   6.078   0.320
 7616TIP3   OH222804   7.928   4.067   0.420
 7616TIP3    H122805   7.927   4.117   0.501
 7616TIP3    H222806   8.008   4.095   0.375
 7617TIP3   OH222807   4.311   3.906   0.833
 7617TIP3    H122808   4.332   3.823   0.791
 7617TIP3    H222809   4.278   3.961   0.763
 7618TIP3   OH222810   2.491   2.980   3.893
 7618TIP3    H122811   2.569   2.994   3.839
 7618TIP3    H222812   2.423   3.030   3.849
 7619TIP3   OH222813   6.029   6.169   5.950
 7619TIP3    H122814   6.042   6.082   5.988
 7619TIP3    H222815   6.009   6.152   5.858
 7620TIP3   OH222816   6.684   6.889   0.567
 7620TIP3    H122817   6.613   6.848   0.617
 7620TIP3    H222818   6.668   6.861   0.477
 7621TIP3   OH222819   8.291   4.644   5.334
 7621TIP3    H122820   8.226   4.642   5.264
 7621TIP3    H222821   8.257   4.711   5.395
 7622TIP3   OH222822   7.268   1.604   5.485
 7622TIP3    H122823   7.183   1.624   5.446
 7622TIP3    H222824   7.321   1.682   5.469
 7623TIP3   OH222825   5.410   7.628   3.930
 7623TIP3    H122826   5.449   7.704   3.887
 7623TIP3    H222827   5.456   7.552   3.892
 7624TIP3   OH222828   6.363   3.826   2.944
 7624TIP3    H122829   6.289   3.786   2.898
 7624TIP3    H222830   6.430   3.838   2.877
 7625TIP3   OH222831   7.446   5.858   2.445
 7625TIP3    H122832   7.535   5.867   2.409
 7625TIP3    H222833   7.448   5.775   2.493
 7626TIP3   OH222834   2.466   6.044   2.437
 7626TIP3    H122835   2.497   5.962   2.399
 7626TIP3    H222836   2.386   6.020   2.485
 7627TIP3   OH222837   5.744   6.902   1.053
 7627TIP3    H122838   5.785   6.926   0.970
 7627TIP3    H222839   5.686   6.975   1.073
 7628TIP3   OH222840   5.605   0.472   4.761
 7628TIP3    H122841   5.531   0.529   4.781
 7628TIP3    H222842   5.632   0.498   4.673
 7629TIP3   OH222843   2.890   0.144   6.169
 7629TIP3    H122844   2.961   0.110   6.115
 7629TIP3    H222845   2.837   0.067   6.190
 7630TIP3   OH222846   7.471   5.418   2.323
 7630TIP3    H122847   7.493   5.326   2.312
 7630TIP3    H222848   7.397   5.418   2.384
 7631TIP3   OH222849   4.353   2.635   6.193
 7631TIP3    H122850   4.403   2.566   6.149
 7631TIP3    H222851   4.277   2.590   6.230
 7632TIP3   OH222852   2.654   1.355   3.556
 7632TIP3    H122853   2.667   1.292   3.486
 7632TIP3    H222854   2.741   1.364   3.596
 7633TIP3   OH222855   4.608   7.643   4.612
 7633TIP3    H122856   4.568   7.618   4.528
 7633TIP3    H222857   4.611   7.738   4.610
 7634TIP3   OH222858   4.620   5.304   2.220
 7634TIP3    H122859   4.632   5.398   2.226
 7634TIP3    H222860   4.637   5.283   2.128
 7635TIP3   OH222861   2.700   6.760   0.657
 7635TIP3    H122862   2.657   6.819   0.594
 7635TIP3    H222863   2.686   6.801   0.742
 7636TIP3   OH222864   0.262   1.250   2.823
 7636TIP3    H122865   0.174   1.289   2.832
 7636TIP3    H222866   0.255   1.193   2.747
 7637TIP3   OH222867   5.661   6.344   1.397
 7637TIP3    H122868   5.646   6.275   1.332
 7637TIP3    H222869   5.748   6.325   1.433
 7638TIP3   OH222870   5.850   5.226   0.710
 7638TIP3    H122871   5.896   5.205   0.629
 7638TIP3    H222872   5.890   5.308   0.740
 7639TIP3   OH222873   5.472   5.924   0.319
 7639TIP3    H122874   5.534   5.996   0.305
 7639TIP3    H222875   5.493   5.861   0.249
 7640TIP3   OH222876   6.596   3.865   2.264
 7640TIP3    H122877   6.684   3.853   2.229
 7640TIP3    H222878   6.594   3.956   2.293
 7641TIP3   OH222879   2.055   3.231   4.507
 7641TIP3    H122880   1.976   3.192   4.544
 7641TIP3    H222881   2.110   3.251   4.582
 7642TIP3   OH222882   1.001   3.184   4.480
 7642TIP3    H122883   0.992   3.162   4.573
 7642TIP3    H222884   1.016   3.278   4.478
 7643TIP3   OH222885   7.186   2.740   0.380
 7643TIP3    H122886   7.263   2.724   0.325
 7643TIP3    H222887   7.221   2.756   0.467
 7644TIP3   OH222888   4.669   1.583   0.833
 7644TIP3    H122889   4.746   1.553   0.786
 7644TIP3    H222890   4.599   1.587   0.767
 7645TIP3   OH222891   5.129   4.483   0.000
 7645TIP3    H122892   5.147   4.389   0.009
 7645TIP3    H222893   5.035   4.488  -0.014
 7646TIP3   OH222894   2.998   4.739   0.774
 7646TIP3    H122895   3.013   4.772   0.862
 7646TIP3    H222896   3.046   4.656   0.771
 7647TIP3   OH222897   4.207   3.840   6.150
 7647TIP3    H122898   4.210   3.935   6.137
 7647TIP3    H222899   4.218   3.829   6.245
 7648TIP3   OH222900   4.097   3.919   0.418
 7648TIP3    H122901   4.013   3.879   0.397
 7648TIP3    H222902   4.133   3.944   0.333
 7649TIP3   OH222903   6.664   7.510   5.286
 7649TIP3    H122904   6.602   7.563   5.236
 7649TIP3    H222905   6.612   7.479   5.361
 7650TIP3   OH222906   5.299   3.777   5.507
 7650TIP3    H122907   5.310   3.705   5.445
 7650TIP3    H222908   5.369   3.764   5.571
 7651TIP3   OH222909   7.960   1.401   6.501
 7651TIP3    H122910   7.954   1.395   6.405
 7651TIP3    H222911   7.983   1.493   6.517
 7652TIP3   OH222912   2.166   5.022   1.606
 7652TIP3    H122913   2.236   5.042   1.544
 7652TIP3    H222914   2.165   4.926   1.611
 7653TIP3   OH222915   1.834   1.107   5.636
 7653TIP3    H122916   1.784   1.034   5.672
 7653TIP3    H222917   1.822   1.100   5.541
 7654TIP3   OH222918   3.682   6.038   4.792
 7654TIP3    H122919   3.591   6.067   4.803
 7654TIP3    H222920   3.708   6.007   4.879
 7655TIP3   OH222921   3.807   7.440   1.065
 7655TIP3    H122922   3.844   7.420   1.150
 7655TIP3    H222923   3.880   7.427   1.003
 7656TIP3   OH222924   1.484   1.284   3.181
 7656TIP3    H122925   1.457   1.372   3.153
 7656TIP3    H222926   1.578   1.280   3.161
 7657TIP3   OH222927   0.342   3.235   0.294
 7657TIP3    H122928   0.307   3.184   0.220
 7657TIP3    H222929   0.275   3.227   0.362
 7658TIP3   OH222930   4.526   1.003   0.284
 7658TIP3    H122931   4.540   0.924   0.337
 7658TIP3    H222932   4.552   0.977   0.196
 7659TIP3   OH222933   0.253   3.900   0.657
 7659TIP3    H122934   0.328   3.854   0.695
 7659TIP3    H222935   0.269   3.992   0.675
 7660TIP3   OH222936   6.489   4.820   1.631
 7660TIP3    H122937   6.462   4.816   1.539
 7660TIP3    H222938   6.408   4.832   1.679
 7661TIP3   OH222939   1.078   5.753   4.454
 7661TIP3    H122940   1.172   5.767   4.445
 7661TIP3    H222941   1.040   5.840   4.451
 7662TIP3   OH222942   4.391   1.302   3.493
 7662TIP3    H122943   4.441   1.381   3.511
 7662TIP3    H222944   4.300   1.328   3.504
 7663TIP3   OH222945   1.778   5.080   0.205
 7663TIP3    H122946   1.834   5.073   0.282
 7663TIP3    H222947   1.703   5.133   0.234
 7664TIP3   OH222948   6.589   0.066   2.183
 7664TIP3    H122949   6.614   0.132   2.248
 7664TIP3    H222950   6.634   0.093   2.103
 7665TIP3   OH222951   1.334   0.913   6.770
 7665TIP3    H122952   1.244   0.905   6.737
 7665TIP3    H222953   1.360   0.824   6.791
 7666TIP3   OH222954   1.116   3.459   3.703
 7666TIP3    H122955   1.122   3.475   3.797
 7666TIP3    H222956   1.164   3.531   3.663
 7667TIP3   OH222957   5.984   2.436   5.072
 7667TIP3    H122958   6.038   2.513   5.054
 7667TIP3    H222959   6.043   2.362   5.057
 7668TIP3   OH222960   2.038   6.409   2.598
 7668TIP3    H122961   1.977   6.337   2.582
 7668TIP3    H222962   2.060   6.403   2.691
 7669TIP3   OH222963   4.967   5.479   6.630
 7669TIP3    H122964   4.883   5.483   6.675
 7669TIP3    H222965   4.993   5.571   6.620
 7670TIP3   OH222966   4.207   0.355   4.399
 7670TIP3    H122967   4.214   0.329   4.491
 7670TIP3    H222968   4.120   0.394   4.391
 7671TIP3   OH222969   1.755   7.082   3.943
 7671TIP3    H122970   1.803   7.107   3.864
 7671TIP3    H222971   1.807   7.118   4.015
 7672TIP3   OH222972   0.978   3.621   4.745
 7672TIP3    H122973   1.073   3.628   4.739
 7672TIP3    H222974   0.963   3.566   4.822
 7673TIP3   OH222975   5.699   2.029   3.818
 7673TIP3    H122976   5.791   2.027   3.843
 7673TIP3    H222977   5.652   2.005   3.898
 7674TIP3   OH222978   4.767   5.738   4.962
 7674TIP3    H122979   4.687   5.778   4.926
 7674TIP3    H222980   4.802   5.804   5.021
 7675TIP3   OH222981   7.492   2.786   1.307
 7675TIP3    H122982   7.470   2.879   1.305
 7675TIP3    H222983   7.537   2.774   1.391
 7676TIP3   OH222984   1.040   2.934   5.070
 7676TIP3    H122985   1.078   2.936   5.158
 7676TIP3    H222986   1.086   2.863   5.026
 7677TIP3   OH222987   2.000   4.833   5.109
 7677TIP3    H122988   1.983   4.749   5.067
 7677TIP3    H222989   1.989   4.816   5.203
 7678TIP3   OH222990   5.065   7.398   2.601
 7678TIP3    H122991   5.079   7.305   2.623
 7678TIP3    H222992   5.152   7.436   2.599
 7679TIP3   OH222993   7.893   6.901   4.436
 7679TIP3    H122994   7.909   6.991   4.408
 7679TIP3    H222995   7.899   6.904   4.532
 7680TIP3   OH222996   4.262   2.805   0.734
 7680TIP3    H122997   4.324   2.846   0.674
 7680TIP3    H222998   4.180   2.802   0.684
 7681TIP3   OH222999   2.459   1.698   2.185
 7681TIP3    H123000   2.370   1.679   2.214
 7681TIP3    H223001   2.451   1.778   2.134
 7682TIP3   OH223002   2.771   0.712   5.035
 7682TIP3    H123003   2.840   0.774   5.059
 7682TIP3    H223004   2.705   0.721   5.105
 7683TIP3   OH223005   7.936   6.644   0.504
 7683TIP3    H123006   7.973   6.730   0.522
 7683TIP3    H223007   7.870   6.660   0.435
 7684TIP3   OH223008   6.132   7.021   0.039
 7684TIP3    H123009   6.112   7.044   0.130
 7684TIP3    H223010   6.201   7.083   0.014
 7685TIP3   OH223011   5.122   2.501   2.025
 7685TIP3    H123012   5.167   2.428   2.068
 7685TIP3    H223013   5.091   2.556   2.097
 7686TIP3   OH223014   5.291   5.638   1.348
 7686TIP3    H123015   5.316   5.583   1.273
 7686TIP3    H223016   5.215   5.687   1.317
 7687TIP3   OH223017   5.383   5.873   0.813
 7687TIP3    H123018   5.329   5.870   0.734
 7687TIP3    H223019   5.448   5.941   0.794
 7688TIP3   OH223020   4.956   6.542   4.734
 7688TIP3    H123021   4.952   6.614   4.671
 7688TIP3    H223022   5.015   6.478   4.694
 7689TIP3   OH223023   4.801   2.753   6.225
 7689TIP3    H123024   4.842   2.781   6.143
 7689TIP3    H223025   4.823   2.661   6.233
 7690TIP3   OH223026   5.680   2.583   2.067
 7690TIP3    H123027   5.696   2.602   2.160
 7690TIP3    H223028   5.717   2.659   2.021
 7691TIP3   OH223029   4.993   6.395   1.256
 7691TIP3    H123030   4.965   6.307   1.230
 7691TIP3    H223031   5.048   6.380   1.333
 7692TIP3   OH223032   8.036   7.398   3.281
 7692TIP3    H123033   8.081   7.420   3.363
 7692TIP3    H223034   7.945   7.426   3.295
 7693TIP3   OH223035   0.392   6.300   1.892
 7693TIP3    H123036   0.317   6.279   1.836
 7693TIP3    H223037   0.443   6.363   1.840
 7694TIP3   OH223038   0.387   3.233   3.723
 7694TIP3    H123039   0.396   3.138   3.720
 7694TIP3    H223040   0.440   3.260   3.797
 7695TIP3   OH223041   1.571   2.898   5.371
 7695TIP3    H123042   1.592   2.971   5.313
 7695TIP3    H223043   1.477   2.884   5.359
 7696TIP3   OH223044   6.098   2.081   1.715
 7696TIP3    H123045   6.175   2.053   1.764
 7696TIP3    H223046   6.038   2.113   1.782
 7697TIP3   OH223047   8.121   2.313   3.786
 7697TIP3    H123048   8.120   2.403   3.820
 7697TIP3    H223049   8.064   2.265   3.845
 7698TIP3   OH223050   2.754   7.219   2.815
 7698TIP3    H123051   2.825   7.162   2.845
 7698TIP3    H223052   2.679   7.162   2.805
 7699TIP3   OH223053   7.834   3.737   5.595
 7699TIP3    H123054   7.865   3.813   5.645
 7699TIP3    H223055   7.898   3.669   5.614
 7700TIP3   OH223056   7.324   6.022   1.224
 7700TIP3    H123057   7.389   6.074   1.177
 7700TIP3    H223058   7.315   6.066   1.309
 7701TIP3   OH223059   7.387   0.098   4.580
 7701TIP3    H123060   7.306   0.130   4.541
 7701TIP3    H223061   7.403   0.157   4.654
 7702TIP3   OH223062   6.656   0.671   4.970
 7702TIP3    H123063   6.617   0.618   4.901
 7702TIP3    H223064   6.594   0.742   4.984
 7703TIP3   OH223065   0.838   0.886  -0.025
 7703TIP3    H123066   0.760   0.941  -0.019
 7703TIP3    H223067   0.878   0.892   0.062
 7704TIP3   OH223068   1.138   0.488   6.236
 7704TIP3    H123069   1.161   0.399   6.211
 7704TIP3    H223070   1.152   0.491   6.330
 7705TIP3   OH223071   8.066   5.517   0.815
 7705TIP3    H123072   8.035   5.503   0.904
 7705TIP3    H223073   8.009   5.463   0.760
 7706TIP3   OH223074   5.997   4.477   2.758
 7706TIP3    H123075   6.036   4.537   2.822
 7706TIP3    H223076   5.977   4.531   2.682
 7707TIP3   OH223077   4.456   0.422   3.232
 7707TIP3    H123078   4.387   0.385   3.287
 7707TIP3    H223079   4.411   0.449   3.152
 7708TIP3   OH223080   6.974   0.637   5.223
 7708TIP3    H123081   6.944   0.701   5.159
 7708TIP3    H223082   6.933   0.555   5.196
 7709TIP3   OH223083   0.884   5.304   5.168
 7709TIP3    H123084   0.872   5.305   5.073
 7709TIP3    H223085   0.796   5.302   5.204
 7710TIP3   OH223086   6.630   3.942   3.746
 7710TIP3    H123087   6.535   3.931   3.749
 7710TIP3    H223088   6.645   4.032   3.775
 7711TIP3   OH223089   0.578   0.310   3.584
 7711TIP3    H123090   0.510   0.347   3.640
 7711TIP3    H223091   0.613   0.385   3.535
 7712TIP3   OH223092   2.228   3.331   1.061
 7712TIP3    H123093   2.151   3.347   1.006
 7712TIP3    H223094   2.273   3.258   1.019
 7713TIP3   OH223095   7.551   1.327   3.967
 7713TIP3    H123096   7.497   1.362   3.896
 7713TIP3    H223097   7.610   1.265   3.924
 7714TIP3   OH223098   6.368   3.396   5.583
 7714TIP3    H123099   6.401   3.315   5.544
 7714TIP3    H223100   6.400   3.395   5.673
 7715TIP3   OH223101   2.625   0.316   2.428
 7715TIP3    H123102   2.534   0.342   2.410
 7715TIP3    H223103   2.636   0.331   2.522
 7716TIP3   OH223104   1.883   1.977   3.994
 7716TIP3    H123105   1.952   1.991   4.058
 7716TIP3    H223106   1.802   1.972   4.045
 7717TIP3   OH223107   6.303   1.204   3.244
 7717TIP3    H123108   6.214   1.225   3.271
 7717TIP3    H223109   6.320   1.261   3.169
 7718TIP3   OH223110   3.125   0.115   5.998
 7718TIP3    H123111   3.116   0.088   5.906
 7718TIP3    H223112   3.219   0.114   6.014
 7719TIP3   OH223113   3.533   3.269   0.463
 7719TIP3    H123114   3.627   3.259   0.475
 7719TIP3    H223115   3.494   3.211   0.528
 7720TIP3   OH223116   5.359   1.466   0.162
 7720TIP3    H123117   5.342   1.539   0.102
 7720TIP3    H223118   5.274   1.446   0.200
 7721TIP3   OH223119   6.897   7.689   4.970
 7721TIP3    H123120   6.941   7.701   5.054
 7721TIP3    H223121   6.861   7.601   4.974
 7722TIP3   OH223122   3.374   3.907   3.563
 7722TIP3    H123123   3.361   3.982   3.622
 7722TIP3    H223124   3.346   3.940   3.478
 7723TIP3   OH223125   3.429   6.455   6.593
 7723TIP3    H123126   3.488   6.387   6.559
 7723TIP3    H223127   3.381   6.486   6.517
 7724TIP3   OH223128   1.173   4.119   5.256
 7724TIP3    H123129   1.195   4.111   5.164
 7724TIP3    H223130   1.257   4.124   5.301
 7725TIP3   OH223131   0.740   3.753   3.265
 7725TIP3    H123132   0.790   3.834   3.251
 7725TIP3    H223133   0.788   3.687   3.215
 7726TIP3   OH223134   6.397   5.737   5.010
 7726TIP3    H123135   6.328   5.761   4.948
 7726TIP3    H223136   6.353   5.733   5.095
 7727TIP3   OH223137   5.184   6.129   3.571
 7727TIP3    H123138   5.122   6.066   3.608
 7727TIP3    H223139   5.242   6.077   3.516
 7728TIP3   OH223140   0.416   3.599   5.691
 7728TIP3    H123141   0.490   3.636   5.739
 7728TIP3    H223142   0.343   3.605   5.752
 7729TIP3   OH223143   6.318   2.058   1.876
 7729TIP3    H123144   6.340   2.149   1.896
 7729TIP3    H223145   6.388   2.007   1.916
 7730TIP3   OH223146   4.491   6.896   5.201
 7730TIP3    H123147   4.560   6.863   5.143
 7730TIP3    H223148   4.483   6.989   5.179
 7731TIP3   OH223149   2.738   0.789   1.127
 7731TIP3    H123150   2.823   0.810   1.087
 7731TIP3    H223151   2.719   0.864   1.184
 7732TIP3   OH223152   0.776   5.213   2.084
 7732TIP3    H123153   0.780   5.257   2.169
 7732TIP3    H223154   0.693   5.164   2.087
 7733TIP3   OH223155   7.162   0.561   5.764
 7733TIP3    H123156   7.241   0.615   5.761
 7733TIP3    H223157   7.098   0.617   5.809
 7734TIP3   OH223158   5.810   5.560   2.703
 7734TIP3    H123159   5.722   5.523   2.711
 7734TIP3    H223160   5.797   5.655   2.704
 7735TIP3   OH223161   2.183   3.303   1.559
 7735TIP3    H123162   2.100   3.256   1.556
 7735TIP3    H223163   2.226   3.273   1.639
 7736TIP3   OH223164   5.779   5.494   1.851
 7736TIP3    H123165   5.722   5.563   1.818
 7736TIP3    H223166   5.758   5.487   1.944
 7737TIP3   OH223167   2.172   1.779   2.188
 7737TIP3    H123168   2.138   1.869   2.195
 7737TIP3    H223169   2.152   1.753   2.098
 7738TIP3   OH223170   6.821   1.097   1.911
 7738TIP3    H123171   6.778   1.012   1.914
 7738TIP3    H223172   6.835   1.120   2.002
 7739TIP3   OH223173   8.180   5.713   5.147
 7739TIP3    H123174   8.128   5.771   5.202
 7739TIP3    H223175   8.260   5.697   5.199
 7740TIP3   OH223176   3.803   2.215   0.723
 7740TIP3    H123177   3.711   2.225   0.746
 7740TIP3    H223178   3.830   2.301   0.691
 7741TIP3   OH223179   4.757   7.491   2.592
 7741TIP3    H123180   4.710   7.415   2.556
 7741TIP3    H223181   4.849   7.468   2.582
 7742TIP3   OH223182   6.913   4.596   5.073
 7742TIP3    H123183   6.850   4.524   5.058
 7742TIP3    H223184   6.936   4.588   5.165
 7743TIP3   OH223185   1.698   4.633   6.475
 7743TIP3    H123186   1.603   4.623   6.469
 7743TIP3    H223187   1.730   4.611   6.387
 7744TIP3   OH223188   1.950   7.448   0.288
 7744TIP3    H123189   2.039   7.452   0.322
 7744TIP3    H223190   1.902   7.397   0.353
 7745TIP3   OH223191   1.680   5.477   1.936
 7745TIP3    H123192   1.645   5.505   2.021
 7745TIP3    H223193   1.735   5.401   1.956
 7746TIP3   OH223194   4.620   3.920   2.997
 7746TIP3    H123195   4.625   3.866   3.076
 7746TIP3    H223196   4.551   3.881   2.945
 7747TIP3   OH223197   3.976   0.414   3.317
 7747TIP3    H123198   4.057   0.462   3.301
 7747TIP3    H223199   3.997   0.323   3.299
 7748TIP3   OH223200   0.212   1.067   5.694
 7748TIP3    H123201   0.251   1.005   5.632
 7748TIP3    H223202   0.162   1.128   5.640
 7749TIP3   OH223203   1.053   6.992   5.689
 7749TIP3    H123204   1.054   7.080   5.726
 7749TIP3    H223205   0.973   6.953   5.723
 7750TIP3   OH223206   0.252   2.058   5.083
 7750TIP3    H123207   0.219   1.997   5.017
 7750TIP3    H223208   0.241   2.144   5.042
 7751TIP3   OH223209   3.743   5.615   0.330
 7751TIP3    H123210   3.786   5.638   0.412
 7751TIP3    H223211   3.815   5.606   0.267
 7752TIP3   OH223212   7.420   6.921   1.456
 7752TIP3    H123213   7.496   6.929   1.513
 7752TIP3    H223214   7.379   6.838   1.481
 7753TIP3   OH223215   4.980   3.779   1.246
 7753TIP3    H123216   5.047   3.843   1.267
 7753TIP3    H223217   4.902   3.808   1.293
 7754TIP3   OH223218   6.095   2.018   6.385
 7754TIP3    H123219   6.063   2.058   6.304
 7754TIP3    H223220   6.063   1.928   6.382
 7755TIP3   OH223221   0.996   2.547   0.331
 7755TIP3    H123222   0.946   2.502   0.262
 7755TIP3    H223223   1.071   2.584   0.285
 7756TIP3   OH223224   8.228   1.194   0.156
 7756TIP3    H123225   8.285   1.141   0.211
 7756TIP3    H223226   8.187   1.130   0.096
 7757TIP3   OH223227   0.532   5.801   3.583
 7757TIP3    H123228   0.565   5.722   3.626
 7757TIP3    H223229   0.485   5.848   3.652
 7758TIP3   OH223230   2.857   1.891   3.325
 7758TIP3    H123231   2.817   1.830   3.262
 7758TIP3    H223232   2.875   1.837   3.402
 7759TIP3   OH223233   1.739   5.075   4.636
 7759TIP3    H123234   1.758   5.151   4.691
 7759TIP3    H223235   1.779   5.096   4.552
 7760TIP3   OH223236   0.592   0.696   4.039
 7760TIP3    H123237   0.685   0.708   4.058
 7760TIP3    H223238   0.554   0.661   4.120
 7761TIP3   OH223239   4.802   3.556   2.665
 7761TIP3    H123240   4.896   3.536   2.668
 7761TIP3    H223241   4.790   3.627   2.727
 7762TIP3   OH223242   4.074   3.404   5.243
 7762TIP3    H123243   4.169   3.401   5.253
 7762TIP3    H223244   4.041   3.343   5.308
 7763TIP3   OH223245   3.375   2.226   2.214
 7763TIP3    H123246   3.443   2.162   2.236
 7763TIP3    H223247   3.302   2.204   2.272
 7764TIP3   OH223248   7.634   0.855   5.150
 7764TIP3    H123249   7.689   0.904   5.090
 7764TIP3    H223250   7.690   0.783   5.181
 7765TIP3   OH223251   4.694   2.550   6.729
 7765TIP3    H123252   4.645   2.483   6.680
 7765TIP3    H223253   4.626   2.598   6.777
 7766TIP3   OH223254   6.107   3.414   2.115
 7766TIP3    H123255   6.174   3.355   2.081
 7766TIP3    H223256   6.129   3.499   2.077
 7767TIP3   OH223257   6.234   5.882   4.538
 7767TIP3    H123258   6.183   5.811   4.578
 7767TIP3    H223259   6.169   5.947   4.513
 7768TIP3   OH223260   6.731   3.374   1.976
 7768TIP3    H123261   6.722   3.439   2.046
 7768TIP3    H223262   6.761   3.295   2.021
 7769TIP3   OH223263   3.482   5.103   4.360
 7769TIP3    H123264   3.540   5.082   4.434
 7769TIP3    H223265   3.542   5.113   4.286
 7770TIP3   OH223266   1.968   7.457   6.699
 7770TIP3    H123267   2.004   7.545   6.685
 7770TIP3    H223268   1.966   7.447   6.794
 7771TIP3   OH223269   0.835   7.809   3.810
 7771TIP3    H123270   0.845   7.717   3.785
 7771TIP3    H223271   0.807   7.805   3.902
 7772TIP3   OH223272   1.833   0.310   1.891
 7772TIP3    H123273   1.745   0.348   1.889
 7772TIP3    H223274   1.819   0.216   1.888
 7773TIP3   OH223275   1.001   7.578   4.947
 7773TIP3    H123276   0.957   7.502   4.910
 7773TIP3    H223277   1.090   7.549   4.963
 7774TIP3   OH223278   6.998   5.603   6.266
 7774TIP3    H123279   6.909   5.592   6.233
 7774TIP3    H223280   7.004   5.696   6.287
 7775TIP3   OH223281   6.071   5.862   2.991
 7775TIP3    H123282   5.975   5.864   2.988
 7775TIP3    H223283   6.092   5.778   3.032
 7776TIP3   OH223284   1.245   1.642   6.671
 7776TIP3    H123285   1.319   1.583   6.683
 7776TIP3    H223286   1.172   1.585   6.650
 7777TIP3   OH223287   3.017   4.711   3.008
 7777TIP3    H123288   2.999   4.659   2.930
 7777TIP3    H223289   2.946   4.688   3.068
 7778TIP3   OH223290   1.686   6.317   1.153
 7778TIP3    H123291   1.782   6.319   1.146
 7778TIP3    H223292   1.656   6.369   1.078
 7779TIP3   OH223293   2.602   7.285   3.049
 7779TIP3    H123294   2.680   7.323   3.010
 7779TIP3    H223295   2.604   7.193   3.023
 7780TIP3   OH223296   3.910   5.486   5.031
 7780TIP3    H123297   3.965   5.424   5.078
 7780TIP3    H223298   3.823   5.446   5.030
 7781TIP3   OH223299   1.285   1.152   3.020
 7781TIP3    H123300   1.205   1.173   3.066
 7781TIP3    H223301   1.353   1.204   3.064
 7782TIP3   OH223302   4.380   1.867   6.376
 7782TIP3    H123303   4.454   1.899   6.325
 7782TIP3    H223304   4.419   1.834   6.457
 7783TIP3   OH223305   1.765   2.076   6.769
 7783TIP3    H123306   1.678   2.115   6.775
 7783TIP3    H223307   1.764   2.028   6.686
 7784TIP3   OH223308   6.999   6.292   2.050
 7784TIP3    H123309   7.011   6.261   2.140
 7784TIP3    H223310   6.909   6.267   2.027
 7785TIP3   OH223311   7.466   0.894   0.242
 7785TIP3    H123312   7.481   0.935   0.327
 7785TIP3    H223313   7.499   0.805   0.253
 7786TIP3   OH223314   0.306   0.331   5.630
 7786TIP3    H123315   0.264   0.248   5.653
 7786TIP3    H223316   0.399   0.309   5.620
 7787TIP3   OH223317   8.313   7.780   1.699
 7787TIP3    H123318   8.239   7.752   1.645
 7787TIP3    H223319   8.340   7.700   1.745
 7788TIP3   OH223320   6.322   2.004   0.493
 7788TIP3    H123321   6.399   1.977   0.544
 7788TIP3    H223322   6.357   2.062   0.426
 7789TIP3   OH223323   2.557   2.897   3.081
 7789TIP3    H123324   2.573   2.843   3.004
 7789TIP3    H223325   2.602   2.980   3.063
 7790TIP3   OH223326   1.274   6.780   1.829
 7790TIP3    H123327   1.336   6.853   1.830
 7790TIP3    H223328   1.287   6.739   1.744
 7791TIP3   OH223329   6.886   0.363   4.183
 7791TIP3    H123330   6.906   0.274   4.156
 7791TIP3    H223331   6.952   0.417   4.140
 7792TIP3   OH223332   4.284   5.749   1.651
 7792TIP3    H123333   4.296   5.788   1.738
 7792TIP3    H223334   4.314   5.816   1.590
 7793TIP3   OH223335   2.170   3.058   5.078
 7793TIP3    H123336   2.153   3.137   5.027
 7793TIP3    H223337   2.265   3.047   5.074
 7794TIP3   OH223338   5.405   5.477   5.059
 7794TIP3    H123339   5.425   5.475   5.152
 7794TIP3    H223340   5.338   5.409   5.047
 7795TIP3   OH223341   1.267   0.221   1.969
 7795TIP3    H123342   1.241   0.282   2.038
 7795TIP3    H223343   1.359   0.203   1.987
 7796TIP3   OH223344   6.959   4.174   0.078
 7796TIP3    H123345   6.981   4.145   0.167
 7796TIP3    H223346   6.913   4.257   0.091
 7797TIP3   OH223347   2.919   7.516   1.938
 7797TIP3    H123348   2.960   7.561   1.865
 7797TIP3    H223349   2.908   7.583   2.005
 7798TIP3   OH223350   1.267   7.784   2.497
 7798TIP3    H123351   1.210   7.860   2.484
 7798TIP3    H223352   1.289   7.755   2.408
 7799TIP3   OH223353   0.812   4.764   1.678
 7799TIP3    H123354   0.875   4.819   1.632
 7799TIP3    H223355   0.740   4.753   1.617
 7800TIP3   OH223356   3.010   2.229   1.721
 7800TIP3    H123357   2.918   2.246   1.705
 7800TIP3    H223358   3.012   2.194   1.811
 7801TIP3   OH223359   2.705   6.037   4.223
 7801TIP3    H123360   2.686   6.058   4.131
 7801TIP3    H223361   2.767   6.104   4.251
 7802TIP3   OH223362   5.349   2.016   6.670
 7802TIP3    H123363   5.296   2.050   6.598
 7802TIP3    H223364   5.423   2.076   6.677
 7803TIP3   OH223365   6.034   6.641   1.530
 7803TIP3    H123366   5.990   6.642   1.446
 7803TIP3    H223367   6.001   6.563   1.575
 7804TIP3   OH223368   2.465   5.218   5.203
 7804TIP3    H123369   2.526   5.207   5.131
 7804TIP3    H223370   2.445   5.129   5.232
 7805TIP3   OH223371   1.074   1.718   5.969
 7805TIP3    H123372   1.119   1.802   5.968
 7805TIP3    H223373   0.985   1.739   5.940
 7806TIP3   OH223374   1.937   7.117   6.156
 7806TIP3    H123375   1.844   7.112   6.178
 7806TIP3    H223376   1.979   7.057   6.217
 7807TIP3   OH223377   2.022   4.068   5.033
 7807TIP3    H123378   2.018   4.120   4.952
 7807TIP3    H223379   1.987   4.127   5.100
 7808TIP3   OH223380   2.881   1.398   2.799
 7808TIP3    H123381   2.822   1.426   2.730
 7808TIP3    H223382   2.956   1.361   2.753
 7809TIP3   OH223383   7.756   4.199   5.623
 7809TIP3    H123384   7.792   4.159   5.544
 7809TIP3    H223385   7.810   4.277   5.637
 7810TIP3   OH223386   2.226   3.772   2.580
 7810TIP3    H123387   2.169   3.844   2.554
 7810TIP3    H223388   2.291   3.767   2.510
 7811TIP3   OH223389   6.050   1.375   4.213
 7811TIP3    H123390   6.026   1.340   4.298
 7811TIP3    H223391   5.970   1.369   4.161
 7812TIP3   OH223392   6.037   3.315   4.112
 7812TIP3    H123393   6.078   3.229   4.101
 7812TIP3    H223394   6.052   3.337   4.204
 7813TIP3   OH223395   1.295   7.189   6.308
 7813TIP3    H123396   1.206   7.200   6.340
 7813TIP3    H223397   1.288   7.195   6.213
 7814TIP3   OH223398   1.877   1.691   6.135
 7814TIP3    H123399   1.919   1.728   6.057
 7814TIP3    H223400   1.910   1.601   6.140
 7815TIP3   OH223401   6.095   1.633   3.076
 7815TIP3    H123402   6.083   1.654   2.984
 7815TIP3    H223403   6.171   1.574   3.079
 7816TIP3   OH223404   6.739   6.595   3.145
 7816TIP3    H123405   6.656   6.642   3.149
 7816TIP3    H223406   6.804   6.658   3.176
 7817TIP3   OH223407   8.040   0.811   2.809
 7817TIP3    H123408   7.950   0.827   2.834
 7817TIP3    H223409   8.056   0.870   2.736
 7818TIP3   OH223410   7.018   3.517   4.500
 7818TIP3    H123411   6.992   3.494   4.590
 7818TIP3    H223412   6.974   3.601   4.483
 7819TIP3   OH223413   3.102   4.423   3.118
 7819TIP3    H123414   3.159   4.348   3.130
 7819TIP3    H223415   3.160   4.499   3.121
 7820TIP3   OH223416   2.216   0.157   4.017
 7820TIP3    H123417   2.292   0.215   4.024
 7820TIP3    H223418   2.253   0.069   4.011
 7821TIP3   OH223419   1.713   3.482   0.085
 7821TIP3    H123420   1.715   3.557   0.026
 7821TIP3    H223421   1.735   3.407   0.029
 7822TIP3   OH223422   5.179   7.000   3.198
 7822TIP3    H123423   5.126   7.074   3.168
 7822TIP3    H223424   5.161   6.994   3.292
 7823TIP3   OH223425   7.519   4.236   2.994
 7823TIP3    H123426   7.432   4.214   2.960
 7823TIP3    H223427   7.568   4.263   2.917
 7824TIP3   OH223428   7.298   0.962   4.783
 7824TIP3    H123429   7.378   0.910   4.777
 7824TIP3    H223430   7.277   0.964   4.876
 7825TIP3   OH223431   6.038   0.547   1.712
 7825TIP3    H123432   6.078   0.463   1.735
 7825TIP3    H223433   6.061   0.605   1.785
 7826TIP3   OH223434   0.782   2.614   5.863
 7826TIP3    H123435   0.787   2.576   5.776
 7826TIP3    H223436   0.830   2.697   5.856
 7827TIP3   OH223437   6.022   3.857   2.265
 7827TIP3    H123438   6.031   3.941   2.309
 7827TIP3    H223439   6.042   3.876   2.173
 7828TIP3   OH223440   4.110   3.278   4.083
 7828TIP3    H123441   4.076   3.330   4.010
 7828TIP3    H223442   4.202   3.304   4.090
 7829TIP3   OH223443   2.171   1.718   3.978
 7829TIP3    H123444   2.089   1.699   3.933
 7829TIP3    H223445   2.149   1.710   4.071
 7830TIP3   OH223446   4.350   0.160   1.892
 7830TIP3    H123447   4.326   0.249   1.867
 7830TIP3    H223448   4.420   0.171   1.957
 7831TIP3   OH223449   1.523   0.614   5.292
 7831TIP3    H123450   1.577   0.591   5.368
 7831TIP3    H223451   1.433   0.608   5.324
 7832TIP3   OH223452   3.464   1.698   0.216
 7832TIP3    H123453   3.441   1.606   0.227
 7832TIP3    H223454   3.512   1.702   0.133
 7833TIP3   OH223455   4.821   1.263   3.961
 7833TIP3    H123456   4.910   1.284   3.931
 7833TIP3    H223457   4.779   1.348   3.973
 7834TIP3   OH223458   2.068   3.476   0.472
 7834TIP3    H123459   2.021   3.520   0.400
 7834TIP3    H223460   2.066   3.540   0.543
 7835TIP3   OH223461   2.644   2.001   6.339
 7835TIP3    H123462   2.713   1.998   6.273
 7835TIP3    H223463   2.683   2.050   6.412
 7836TIP3   OH223464   3.603   2.315   0.985
 7836TIP3    H123465   3.555   2.392   1.016
 7836TIP3    H223466   3.688   2.321   1.028
 7837TIP3   OH223467   3.656   3.359   2.949
 7837TIP3    H123468   3.643   3.423   2.879
 7837TIP3    H223469   3.730   3.392   2.999
 7838TIP3   OH223470   2.878   6.916   4.115
 7838TIP3    H123471   2.906   7.004   4.141
 7838TIP3    H223472   2.789   6.928   4.081
 7839TIP3   OH223473   3.254   5.464   3.822
 7839TIP3    H123474   3.319   5.405   3.783
 7839TIP3    H223475   3.173   5.414   3.820
 7840TIP3   OH223476   2.955   2.932   5.075
 7840TIP3    H123477   2.993   2.998   5.132
 7840TIP3    H223478   2.989   2.849   5.107
 7841TIP3   OH223479   0.556   1.707   2.244
 7841TIP3    H123480   0.536   1.693   2.336
 7841TIP3    H223481   0.558   1.802   2.234
 7842TIP3   OH223482   5.265   6.487   4.461
 7842TIP3    H123483   5.232   6.575   4.479
 7842TIP3    H223484   5.199   6.428   4.498
 7843TIP3   OH223485   0.036   4.686   3.678
 7843TIP3    H123486  -0.014   4.617   3.633
 7843TIP3    H223487   0.096   4.638   3.735
 7844TIP3   OH223488   5.009   3.840   6.611
 7844TIP3    H123489   5.004   3.746   6.599
 7844TIP3    H223490   5.079   3.868   6.551
 7845TIP3   OH223491   1.690   0.552   5.485
 7845TIP3    H123492   1.634   0.554   5.563
 7845TIP3    H223493   1.750   0.479   5.500
 7846TIP3   OH223494   2.938   3.968   5.923
 7846TIP3    H123495   2.935   3.935   5.833
 7846TIP3    H223496   2.846   3.973   5.950
 7847TIP3   OH223497   2.519   3.256   5.616
 7847TIP3    H123498   2.504   3.252   5.522
 7847TIP3    H223499   2.524   3.164   5.644
 7848TIP3   OH223500   2.678   0.712   3.688
 7848TIP3    H123501   2.609   0.671   3.741
 7848TIP3    H223502   2.755   0.712   3.745
 7849TIP3   OH223503   5.607   6.004   2.314
 7849TIP3    H123504   5.577   5.943   2.246
 7849TIP3    H223505   5.527   6.031   2.359
 7850TIP3   OH223506   1.916   1.190   2.061
 7850TIP3    H123507   1.973   1.121   2.028
 7850TIP3    H223508   1.846   1.144   2.107
 7851TIP3   OH223509   7.008   5.626   3.912
 7851TIP3    H123510   7.100   5.602   3.907
 7851TIP3    H223511   7.001   5.680   3.991
 7852TIP3   OH223512   0.339   6.982   2.086
 7852TIP3    H123513   0.407   7.048   2.099
 7852TIP3    H223514   0.335   6.935   2.170
 7853TIP3   OH223515   1.126   5.187   1.041
 7853TIP3    H123516   1.165   5.111   1.084
 7853TIP3    H223517   1.032   5.169   1.042
 7854TIP3   OH223518   2.124   5.948   5.667
 7854TIP3    H123519   2.193   5.986   5.613
 7854TIP3    H223520   2.078   5.887   5.608
 7855TIP3   OH223521   0.318   3.526   0.069
 7855TIP3    H123522   0.392   3.476   0.105
 7855TIP3    H223523   0.332   3.524  -0.026
 7856TIP3   OH223524   2.879   6.429   1.833
 7856TIP3    H123525   2.857   6.343   1.869
 7856TIP3    H223526   2.907   6.480   1.909
 7857TIP3   OH223527   5.423   7.329   1.532
 7857TIP3    H123528   5.339   7.328   1.486
 7857TIP3    H223529   5.436   7.421   1.556
 7858TIP3   OH223530   1.594   4.933   4.402
 7858TIP3    H123531   1.643   4.858   4.436
 7858TIP3    H223532   1.654   5.007   4.412
 7859TIP3   OH223533   5.185   5.035   5.535
 7859TIP3    H123534   5.105   5.021   5.484
 7859TIP3    H223535   5.256   5.010   5.476
 7860TIP3   OH223536   2.213   6.319   0.698
 7860TIP3    H123537   2.190   6.302   0.789
 7860TIP3    H223538   2.301   6.283   0.689
 7861TIP3   OH223539   4.937   2.265   4.852
 7861TIP3    H123540   4.902   2.177   4.835
 7861TIP3    H223541   4.924   2.278   4.946
 7862TIP3   OH223542   1.800   3.207   3.397
 7862TIP3    H123543   1.880   3.201   3.449
 7862TIP3    H223544   1.819   3.275   3.331
 7863TIP3   OH223545   0.606   6.286   1.660
 7863TIP3    H123546   0.569   6.374   1.657
 7863TIP3    H223547   0.683   6.294   1.716
 7864TIP3   OH223548   7.027   6.061   0.866
 7864TIP3    H123549   7.023   6.060   0.770
 7864TIP3    H223550   7.030   5.969   0.890
 7865TIP3   OH223551   3.694   5.350   0.381
 7865TIP3    H123552   3.605   5.334   0.350
 7865TIP3    H223553   3.705   5.445   0.371
 7866TIP3   OH223554   6.737   1.263   6.250
 7866TIP3    H123555   6.781   1.345   6.227
 7866TIP3    H223556   6.772   1.241   6.336
 7867TIP3   OH223557   3.598   0.791   1.655
 7867TIP3    H123558   3.558   0.729   1.594
 7867TIP3    H223559   3.535   0.797   1.727
 7868TIP3   OH223560   4.317   1.635   4.940
 7868TIP3    H123561   4.333   1.644   5.034
 7868TIP3    H223562   4.252   1.565   4.932
 7869TIP3   OH223563   2.392   4.874   1.775
 7869TIP3    H123564   2.448   4.951   1.762
 7869TIP3    H223565   2.451   4.808   1.811
 7870TIP3   OH223566   1.149   4.471   6.209
 7870TIP3    H123567   1.208   4.420   6.153
 7870TIP3    H223568   1.178   4.562   6.197
 7871TIP3   OH223569   4.901   6.310   6.638
 7871TIP3    H123570   4.902   6.311   6.734
 7871TIP3    H223571   4.930   6.397   6.613
 7872TIP3   OH223572   7.843   3.503   5.910
 7872TIP3    H123573   7.770   3.559   5.936
 7872TIP3    H223574   7.872   3.539   5.826
 7873TIP3   OH223575   5.573   7.112   6.187
 7873TIP3    H123576   5.556   7.206   6.181
 7873TIP3    H223577   5.642   7.097   6.122
 7874TIP3   OH223578   1.461   7.569   6.322
 7874TIP3    H123579   1.391   7.546   6.383
 7874TIP3    H223580   1.541   7.544   6.368
 7875TIP3   OH223581   6.840   4.883   0.377
 7875TIP3    H123582   6.895   4.841   0.444
 7875TIP3    H223583   6.896   4.888   0.300
 7876TIP3   OH223584   1.661   7.730   6.580
 7876TIP3    H123585   1.582   7.747   6.632
 7876TIP3    H223586   1.694   7.647   6.613
 7877TIP3   OH223587   1.362   0.191   3.802
 7877TIP3    H123588   1.339   0.136   3.877
 7877TIP3    H223589   1.285   0.186   3.744
 7878TIP3   OH223590   0.431   7.469   4.330
 7878TIP3    H123591   0.465   7.437   4.246
 7878TIP3    H223592   0.336   7.471   4.318
 7879TIP3   OH223593   5.658   4.964   1.663
 7879TIP3    H123594   5.647   5.059   1.663
 7879TIP3    H223595   5.705   4.945   1.582
 7880TIP3   OH223596   6.140   7.674   5.262
 7880TIP3    H123597   6.143   7.583   5.290
 7880TIP3    H223598   6.119   7.724   5.341
 7881TIP3   OH223599   3.318   1.607   5.774
 7881TIP3    H123600   3.316   1.673   5.705
 7881TIP3    H223601   3.352   1.653   5.851
 7882TIP3   OH223602   5.824   7.176   1.938
 7882TIP3    H123603   5.865   7.110   1.995
 7882TIP3    H223604   5.838   7.143   1.849
 7883TIP3   OH223605   6.257   7.721   2.942
 7883TIP3    H123606   6.240   7.772   2.863
 7883TIP3    H223607   6.298   7.641   2.910
 7884TIP3   OH223608   8.108   3.127   3.235
 7884TIP3    H123609   8.191   3.138   3.188
 7884TIP3    H223610   8.041   3.123   3.167
 7885TIP3   OH223611   2.883   6.839   4.485
 7885TIP3    H123612   2.875   6.760   4.430
 7885TIP3    H223613   2.798   6.882   4.478
 7886TIP3   OH223614   4.296   1.052   3.668
 7886TIP3    H123615   4.348   1.131   3.682
 7886TIP3    H223616   4.290   1.012   3.755
 7887TIP3   OH223617   8.152   6.168   6.348
 7887TIP3    H123618   8.124   6.237   6.408
 7887TIP3    H223619   8.201   6.107   6.403
 7888TIP3   OH223620   7.550   4.372   4.991
 7888TIP3    H123621   7.638   4.401   4.969
 7888TIP3    H223622   7.562   4.308   5.061
 7889TIP3   OH223623   3.654   4.334   2.180
 7889TIP3    H123624   3.733   4.333   2.126
 7889TIP3    H223625   3.611   4.417   2.160
 7890TIP3   OH223626   7.925   1.370   5.460
 7890TIP3    H123627   7.976   1.407   5.532
 7890TIP3    H223628   7.853   1.324   5.503
 7891TIP3   OH223629   5.781   4.913   0.649
 7891TIP3    H123630   5.706   4.882   0.701
 7891TIP3    H223631   5.816   4.987   0.699
 7892TIP3   OH223632   6.036   3.327   1.441
 7892TIP3    H123633   6.050   3.255   1.502
 7892TIP3    H223634   6.112   3.325   1.382
 7893TIP3   OH223635   6.167   6.865   6.173
 7893TIP3    H123636   6.254   6.902   6.188
 7893TIP3    H223637   6.184   6.777   6.139
 7894TIP3   OH223638   3.432   3.308   2.298
 7894TIP3    H123639   3.491   3.320   2.372
 7894TIP3    H223640   3.371   3.383   2.303
 7895TIP3   OH223641   5.707   3.068   0.074
 7895TIP3    H123642   5.722   2.978   0.045
 7895TIP3    H223643   5.790   3.093   0.115
 7896TIP3   OH223644   7.705   3.110   0.013
 7896TIP3    H123645   7.698   3.066  -0.071
 7896TIP3    H223646   7.766   3.056   0.063
 7897TIP3   OH223647   2.299   5.155   3.571
 7897TIP3    H123648   2.233   5.086   3.575
 7897TIP3    H223649   2.263   5.226   3.625
 7898TIP3   OH223650   2.694   4.174   1.357
 7898TIP3    H123651   2.614   4.133   1.390
 7898TIP3    H223652   2.663   4.240   1.296
 7899TIP3   OH223653   4.587   4.252   4.752
 7899TIP3    H123654   4.617   4.161   4.749
 7899TIP3    H223655   4.657   4.300   4.796
 7900TIP3   OH223656   7.153   7.547   6.420
 7900TIP3    H123657   7.204   7.521   6.496
 7900TIP3    H223658   7.062   7.538   6.448
 7901TIP3   OH223659   7.549   0.143   5.536
 7901TIP3    H123660   7.587   0.100   5.460
 7901TIP3    H223661   7.588   0.230   5.536
 7902TIP3   OH223662   8.053   0.395   6.517
 7902TIP3    H123663   7.966   0.353   6.518
 7902TIP3    H223664   8.115   0.323   6.524
 7903TIP3   OH223665   1.044   4.462   4.948
 7903TIP3    H123666   1.029   4.436   4.857
 7903TIP3    H223667   0.973   4.419   4.997
 7904TIP3   OH223668   1.473   7.225   1.544
 7904TIP3    H123669   1.501   7.279   1.470
 7904TIP3    H223670   1.473   7.285   1.619
 7905TIP3   OH223671   4.825   2.158   2.782
 7905TIP3    H123672   4.907   2.163   2.733
 7905TIP3    H223673   4.818   2.242   2.826
 7906TIP3   OH223674   1.889   0.901   6.553
 7906TIP3    H123675   1.867   0.936   6.639
 7906TIP3    H223676   1.936   0.820   6.572
 7907TIP3   OH223677   3.736   2.736   3.615
 7907TIP3    H123678   3.804   2.680   3.654
 7907TIP3    H223679   3.654   2.699   3.647
 7908TIP3   OH223680   5.200   4.301   4.189
 7908TIP3    H123681   5.197   4.254   4.105
 7908TIP3    H223682   5.174   4.390   4.168
 7909TIP3   OH223683   0.558   1.296   3.786
 7909TIP3    H123684   0.478   1.268   3.741
 7909TIP3    H223685   0.629   1.258   3.735
 7910TIP3   OH223686   0.641   5.398   6.663
 7910TIP3    H123687   0.571   5.459   6.684
 7910TIP3    H223688   0.699   5.446   6.604
 7911TIP3   OH223689   7.326   0.173   2.635
 7911TIP3    H123690   7.419   0.149   2.639
 7911TIP3    H223691   7.299   0.150   2.546
 7912TIP3   OH223692   7.963   1.413   5.916
 7912TIP3    H123693   8.026   1.463   5.967
 7912TIP3    H223694   7.977   1.322   5.943
 7913TIP3   OH223695   4.952   5.992   3.129
 7913TIP3    H123696   4.903   6.023   3.205
 7913TIP3    H223697   4.935   5.898   3.126
 7914TIP3   OH223698   4.451   7.141   5.131
 7914TIP3    H123699   4.439   7.235   5.114
 7914TIP3    H223700   4.391   7.098   5.070
 7915TIP3   OH223701   7.797   2.167   6.305
 7915TIP3    H123702   7.837   2.152   6.390
 7915TIP3    H223703   7.851   2.117   6.243
 7916TIP3   OH223704   3.663   7.783   4.306
 7916TIP3    H123705   3.629   7.720   4.242
 7916TIP3    H223706   3.651   7.868   4.264
 7917TIP3   OH223707   6.170   1.052   5.295
 7917TIP3    H123708   6.227   1.045   5.372
 7917TIP3    H223709   6.084   1.026   5.327
 7918TIP3   OH223710   7.290   2.800   4.160
 7918TIP3    H123711   7.246   2.821   4.078
 7918TIP3    H223712   7.377   2.841   4.152
 7919TIP3   OH223713   5.456   4.362   6.138
 7919TIP3    H123714   5.456   4.308   6.217
 7919TIP3    H223715   5.474   4.301   6.067
 7920TIP3   OH223716   4.977   1.711   5.307
 7920TIP3    H123717   4.983   1.617   5.324
 7920TIP3    H223718   4.987   1.752   5.393
 7921TIP3   OH223719   6.040   7.660   1.207
 7921TIP3    H123720   5.961   7.606   1.197
 7921TIP3    H223721   6.112   7.597   1.205
 7922TIP3   OH223722   6.599   2.356   3.033
 7922TIP3    H123723   6.664   2.396   2.975
 7922TIP3    H223724   6.565   2.429   3.085
 7923TIP3   OH223725   0.400   0.871   5.101
 7923TIP3    H123726   0.449   0.805   5.150
 7923TIP3    H223727   0.404   0.841   5.010
 7924TIP3   OH223728   0.301   0.813   1.864
 7924TIP3    H123729   0.267   0.756   1.933
 7924TIP3    H223730   0.334   0.889   1.912
 7925TIP3   OH223731   2.459   2.939   5.890
 7925TIP3    H123732   2.409   2.994   5.951
 7925TIP3    H223733   2.551   2.955   5.914
 7926TIP3   OH223734   4.982   1.306   1.781
 7926TIP3    H123735   4.924   1.366   1.827
 7926TIP3    H223736   4.966   1.324   1.688
 7927TIP3   OH223737   8.280   4.526   0.572
 7927TIP3    H123738   8.185   4.528   0.585
 7927TIP3    H223739   8.294   4.565   0.486
 7928TIP3   OH223740   7.868   6.667   3.454
 7928TIP3    H123741   7.822   6.746   3.480
 7928TIP3    H223742   7.959   6.695   3.442
 7929TIP3   OH223743   6.547   2.841   0.779
 7929TIP3    H123744   6.613   2.864   0.844
 7929TIP3    H223745   6.562   2.748   0.762
 7930TIP3   OH223746   2.014   0.058   5.213
 7930TIP3    H123747   1.963   0.134   5.187
 7930TIP3    H223748   2.054   0.083   5.296
 7931TIP3   OH223749   3.850   2.547   1.829
 7931TIP3    H123750   3.809   2.461   1.835
 7931TIP3    H223751   3.778   2.607   1.813
 7932TIP3   OH223752   6.685   0.178   4.666
 7932TIP3    H123753   6.677   0.266   4.628
 7932TIP3    H223754   6.769   0.179   4.711
 7933TIP3   OH223755   2.795   6.713   5.089
 7933TIP3    H123756   2.743   6.634   5.105
 7933TIP3    H223757   2.797   6.757   5.174
 7934TIP3   OH223758   4.061   4.462   5.172
 7934TIP3    H123759   4.073   4.441   5.080
 7934TIP3    H223760   3.970   4.440   5.190
 7935TIP3   OH223761   0.632   3.343   3.503
 7935TIP3    H123762   0.544   3.305   3.503
 7935TIP3    H223763   0.683   3.285   3.560
 7936TIP3   OH223764   7.579   4.713   1.071
 7936TIP3    H123765   7.611   4.671   1.151
 7936TIP3    H223766   7.657   4.753   1.033
 7937TIP3   OH223767   0.662   4.167   2.483
 7937TIP3    H123768   0.611   4.157   2.563
 7937TIP3    H223769   0.652   4.259   2.459
 7938TIP3   OH223770   7.662   7.391   2.635
 7938TIP3    H123771   7.673   7.397   2.729
 7938TIP3    H223772   7.718   7.461   2.600
 7939TIP3   OH223773   3.819   0.826   2.894
 7939TIP3    H123774   3.808   0.777   2.975
 7939TIP3    H223775   3.886   0.892   2.914
 7940TIP3   OH223776   1.244   0.813   2.512
 7940TIP3    H123777   1.227   0.719   2.519
 7940TIP3    H223778   1.293   0.823   2.431
 7941TIP3   OH223779   2.604   7.614   5.343
 7941TIP3    H123780   2.650   7.614   5.259
 7941TIP3    H223781   2.514   7.637   5.320
 7942TIP3   OH223782   4.063   2.520   1.641
 7942TIP3    H123783   3.996   2.521   1.710
 7942TIP3    H223784   4.054   2.434   1.600
 7943TIP3   OH223785   6.857   0.838   5.836
 7943TIP3    H123786   6.916   0.820   5.908
 7943TIP3    H223787   6.913   0.846   5.759
 7944TIP3   OH223788   5.013   6.614   1.084
 7944TIP3    H123789   4.977   6.557   1.152
 7944TIP3    H223790   4.966   6.589   1.005
 7945TIP3   OH223791   7.026   3.401   1.106
 7945TIP3    H123792   7.070   3.454   1.040
 7945TIP3    H223793   6.975   3.464   1.157
 7946TIP3   OH223794   6.264   7.085   3.603
 7946TIP3    H123795   6.284   7.010   3.547
 7946TIP3    H223796   6.335   7.086   3.668
 7947TIP3   OH223797   2.660   6.784   2.665
 7947TIP3    H123798   2.575   6.821   2.642
 7947TIP3    H223799   2.655   6.693   2.637
 7948TIP3   OH223800   7.405   1.943   0.264
 7948TIP3    H123801   7.437   1.870   0.317
 7948TIP3    H223802   7.371   1.902   0.184
 7949TIP3   OH223803  -0.023   3.866   5.298
 7949TIP3    H123804   0.011   3.949   5.331
 7949TIP3    H223805   0.054   3.820   5.266
 7950TIP3   OH223806   0.414   7.325   5.261
 7950TIP3    H123807   0.363   7.308   5.182
 7950TIP3    H223808   0.400   7.247   5.315
 7951TIP3   OH223809   4.469   1.240   3.770
 7951TIP3    H123810   4.419   1.251   3.851
 7951TIP3    H223811   4.502   1.328   3.750
 7952TIP3   OH223812   0.234   6.179   2.389
 7952TIP3    H123813   0.264   6.264   2.357
 7952TIP3    H223814   0.265   6.117   2.323
 7953TIP3   OH223815   2.997   4.656   2.354
 7953TIP3    H123816   2.988   4.565   2.384
 7953TIP3    H223817   2.977   4.709   2.431
 7954TIP3   OH223818   7.117   5.743   2.422
 7954TIP3    H123819   7.154   5.689   2.353
 7954TIP3    H223820   7.023   5.728   2.415
 7955TIP3   OH223821   6.245   3.453   4.698
 7955TIP3    H123822   6.323   3.449   4.644
 7955TIP3    H223823   6.191   3.521   4.659
 7956TIP3   OH223824   6.076   5.895   5.976
 7956TIP3    H123825   6.106   5.854   5.895
 7956TIP3    H223826   5.984   5.870   5.983
 7957TIP3   OH223827   0.483   5.531   0.155
 7957TIP3    H123828   0.458   5.480   0.232
 7957TIP3    H223829   0.464   5.474   0.081
 7958TIP3   OH223830   0.409   6.777   5.142
 7958TIP3    H123831   0.439   6.687   5.129
 7958TIP3    H223832   0.445   6.803   5.227
 7959TIP3   OH223833   8.113   2.818   3.986
 7959TIP3    H123834   8.146   2.900   4.022
 7959TIP3    H223835   8.132   2.753   4.053
 7960TIP3   OH223836   4.985   0.481   2.806
 7960TIP3    H123837   4.996   0.569   2.770
 7960TIP3    H223838   4.893   0.461   2.791
 7961TIP3   OH223839   5.249   4.947   1.811
 7961TIP3    H123840   5.215   4.857   1.809
 7961TIP3    H223841   5.198   4.993   1.744
 7962TIP3   OH223842   2.579   2.978   2.175
 7962TIP3    H123843   2.671   2.984   2.148
 7962TIP3    H223844   2.544   3.065   2.159
 7963TIP3   OH223845   1.860   7.134   5.034
 7963TIP3    H123846   1.867   7.108   4.942
 7963TIP3    H223847   1.774   7.175   5.041
 7964TIP3   OH223848   3.635   5.370   2.733
 7964TIP3    H123849   3.627   5.460   2.702
 7964TIP3    H223850   3.559   5.357   2.790
 7965TIP3   OH223851   1.455   1.242   4.162
 7965TIP3    H123852   1.381   1.302   4.161
 7965TIP3    H223853   1.434   1.179   4.230
 7966TIP3   OH223854   4.297   2.765   5.434
 7966TIP3    H123855   4.253   2.704   5.376
 7966TIP3    H223856   4.286   2.727   5.522
 7967TIP3   OH223857   7.040   7.783   5.888
 7967TIP3    H123858   7.056   7.829   5.805
 7967TIP3    H223859   7.015   7.853   5.949
 7968TIP3   OH223860   7.886   3.855   0.158
 7968TIP3    H123861   7.914   3.764   0.145
 7968TIP3    H223862   7.843   3.854   0.244
 7969TIP3   OH223863   6.419   6.936   1.799
 7969TIP3    H123864   6.363   6.937   1.721
 7969TIP3    H223865   6.381   6.867   1.854
 7970TIP3   OH223866   7.213   1.544   5.171
 7970TIP3    H123867   7.182   1.476   5.230
 7970TIP3    H223868   7.134   1.581   5.133
 7971TIP3   OH223869   5.042   4.647   3.694
 7971TIP3    H123870   5.056   4.687   3.779
 7971TIP3    H223871   5.033   4.721   3.634
 7972TIP3   OH223872   3.883   5.757   4.465
 7972TIP3    H123873   3.858   5.712   4.384
 7972TIP3    H223874   3.969   5.721   4.487
 7973TIP3   OH223875   2.648   1.281   4.123
 7973TIP3    H123876   2.703   1.312   4.051
 7973TIP3    H223877   2.621   1.361   4.168
 7974TIP3   OH223878   7.882   1.914   6.561
 7974TIP3    H123879   7.963   1.962   6.542
 7974TIP3    H223880   7.822   1.980   6.595
 7975TIP3   OH223881   5.554   7.617   3.262
 7975TIP3    H123882   5.555   7.704   3.301
 7975TIP3    H223883   5.586   7.630   3.173
 7976TIP3   OH223884   4.045   4.661   1.506
 7976TIP3    H123885   4.062   4.743   1.553
 7976TIP3    H223886   4.035   4.596   1.575
 7977TIP3   OH223887   7.215   6.814   3.474
 7977TIP3    H123888   7.300   6.832   3.514
 7977TIP3    H223889   7.227   6.728   3.432
 7978TIP3   OH223890   3.483   5.773   2.253
 7978TIP3    H123891   3.567   5.768   2.208
 7978TIP3    H223892   3.504   5.759   2.346
 7979TIP3   OH223893   3.080   3.017   6.408
 7979TIP3    H123894   3.159   3.065   6.433
 7979TIP3    H223895   3.012   3.051   6.466
 7980TIP3   OH223896   7.247   5.241   1.369
 7980TIP3    H123897   7.254   5.146   1.361
 7980TIP3    H223898   7.262   5.259   1.461
 7981TIP3   OH223899   6.450   0.268   0.163
 7981TIP3    H123900   6.481   0.179   0.184
 7981TIP3    H223901   6.481   0.284   0.074
 7982TIP3   OH223902   1.831   6.122   0.854
 7982TIP3    H123903   1.850   6.094   0.765
 7982TIP3    H223904   1.917   6.129   0.896
 7983TIP3   OH223905   3.448   0.922   2.811
 7983TIP3    H123906   3.527   0.869   2.801
 7983TIP3    H223907   3.477   0.999   2.860
 7984TIP3   OH223908   6.251   1.543   1.195
 7984TIP3    H123909   6.225   1.575   1.282
 7984TIP3    H223910   6.281   1.454   1.211
 7985TIP3   OH223911   5.571   2.542   6.534
 7985TIP3    H123912   5.566   2.629   6.574
 7985TIP3    H223913   5.655   2.507   6.563
 7986TIP3   OH223914   7.971   4.393   0.020
 7986TIP3    H123915   7.991   4.486   0.008
 7986TIP3    H223916   7.875   4.391   0.026
 7987TIP3   OH223917   0.659   6.922   3.730
 7987TIP3    H123918   0.754   6.932   3.733
 7987TIP3    H223919   0.637   6.870   3.807
 7988TIP3   OH223920   5.615   6.557   6.793
 7988TIP3    H123921   5.703   6.527   6.819
 7988TIP3    H223922   5.588   6.494   6.726
 7989TIP3   OH223923   0.691   6.872   0.844
 7989TIP3    H123924   0.604   6.890   0.879
 7989TIP3    H223925   0.690   6.780   0.820
 7990TIP3   OH223926   0.043   2.235   2.110
 7990TIP3    H123927  -0.026   2.273   2.056
 7990TIP3    H223928   0.001   2.161   2.154
 7991TIP3   OH223929   5.645   0.558   4.164
 7991TIP3    H123930   5.687   0.644   4.156
 7991TIP3    H223931   5.716   0.500   4.192
 7992TIP3   OH223932   1.758   0.571   4.460
 7992TIP3    H123933   1.789   0.624   4.386
 7992TIP3    H223934   1.680   0.617   4.491
 7993TIP3   OH223935   7.724   4.786   1.781
 7993TIP3    H123936   7.648   4.843   1.777
 7993TIP3    H223937   7.796   4.839   1.747
 7994TIP3   OH223938   0.201   1.479   1.442
 7994TIP3    H123939   0.236   1.394   1.470
 7994TIP3    H223940   0.155   1.512   1.519
 7995TIP3   OH223941   5.437   7.509   4.257
 7995TIP3    H123942   5.522   7.465   4.265
 7995TIP3    H223943   5.374   7.438   4.245
 7996TIP3   OH223944   2.824   4.969   6.584
 7996TIP3    H123945   2.758   5.038   6.577
 7996TIP3    H223946   2.886   5.002   6.649
 7997TIP3   OH223947   1.020   1.937   1.819
 7997TIP3    H123948   1.039   1.878   1.745
 7997TIP3    H223949   1.055   1.891   1.895
 7998TIP3   OH223950   0.766   6.557   4.254
 7998TIP3    H123951   0.709   6.518   4.321
 7998TIP3    H223952   0.838   6.595   4.304
 7999TIP3   OH223953   0.720   0.654   5.038
 7999TIP3    H123954   0.787   0.636   5.105
 7999TIP3    H223955   0.639   0.666   5.088
 8000TIP3   OH223956   0.487   5.752   4.908
 8000TIP3    H123957   0.478   5.676   4.851
 8000TIP3    H223958   0.516   5.822   4.851
 8001TIP3   OH223959   8.153   6.166   3.039
 8001TIP3    H123960   8.220   6.123   2.986
 8001TIP3    H223961   8.071   6.122   3.016
 8002TIP3   OH223962   1.392   0.716   0.233
 8002TIP3    H123963   1.384   0.789   0.295
 8002TIP3    H223964   1.486   0.711   0.214
 8003TIP3   OH223965   2.047   0.938   4.670
 8003TIP3    H123966   1.993   0.910   4.596
 8003TIP3    H223967   2.058   1.032   4.658
 8004TIP3   OH223968   1.211   0.846   4.456
 8004TIP3    H123969   1.231   0.901   4.531
 8004TIP3    H223970   1.243   0.759   4.481
 8005TIP3   OH223971   0.444   1.383   0.676
 8005TIP3    H123972   0.370   1.368   0.735
 8005TIP3    H223973   0.518   1.343   0.720
 8006TIP3   OH223974   7.657   2.983   5.612
 8006TIP3    H123975   7.735   2.929   5.596
 8006TIP3    H223976   7.628   2.958   5.699
 8007TIP3   OH223977   7.571   4.728   4.123
 8007TIP3    H123978   7.606   4.641   4.141
 8007TIP3    H223979   7.601   4.748   4.034
 8008TIP3   OH223980   0.619   4.024   6.201
 8008TIP3    H123981   0.665   4.057   6.124
 8008TIP3    H223982   0.689   4.004   6.264
 8009TIP3   OH223983   7.006   3.310   4.045
 8009TIP3    H123984   6.994   3.379   3.981
 8009TIP3    H223985   7.044   3.354   4.121
 8010TIP3   OH223986   0.521   0.190   0.669
 8010TIP3    H123987   0.503   0.102   0.703
 8010TIP3    H223988   0.474   0.194   0.586
 8011TIP3   OH223989   3.940   2.795   3.963
 8011TIP3    H123990   3.847   2.800   3.986
 8011TIP3    H223991   3.972   2.885   3.971
 8012TIP3   OH223992   1.174   6.823   2.087
 8012TIP3    H123993   1.119   6.892   2.050
 8012TIP3    H223994   1.227   6.793   2.014
 8013TIP3   OH223995   8.219   3.477   5.452
 8013TIP3    H123996   8.258   3.564   5.458
 8013TIP3    H223997   8.292   3.416   5.464
 8014TIP3   OH223998   0.201   1.298   0.860
 8014TIP3    H123999   0.148   1.279   0.782
 8014TIP3    H224000   0.206   1.214   0.906
 8015TIP3   OH224001   5.765   5.484   2.142
 8015TIP3    H124002   5.698   5.426   2.180
 8015TIP3    H224003   5.830   5.494   2.211
 8016TIP3   OH224004   5.695   4.029   3.249
 8016TIP3    H124005   5.714   3.942   3.284
 8016TIP3    H224006   5.696   4.087   3.326
 8017TIP3   OH224007   0.193   7.598   1.271
 8017TIP3    H124008   0.265   7.618   1.210
 8017TIP3    H224009   0.178   7.680   1.317
 8018TIP3   OH224010   2.825   3.837   0.761
 8018TIP3    H124011   2.815   3.743   0.770
 8018TIP3    H224012   2.827   3.852   0.666
 8019TIP3   OH224013   0.762   6.622   2.292
 8019TIP3    H124014   0.708   6.695   2.260
 8019TIP3    H224015   0.703   6.546   2.288
 8020TIP3   OH224016   1.060   4.774   2.869
 8020TIP3    H124017   1.116   4.751   2.943
 8020TIP3    H224018   1.120   4.795   2.798
 8021TIP3   OH224019   4.990   2.782   4.572
 8021TIP3    H124020   4.983   2.697   4.615
 8021TIP3    H224021   5.046   2.833   4.630
 8022TIP3   OH224022   3.853   1.360   3.160
 8022TIP3    H124023   3.865   1.420   3.086
 8022TIP3    H224024   3.840   1.275   3.119
 8023TIP3   OH224025   6.365   1.226   5.619
 8023TIP3    H124026   6.270   1.230   5.635
 8023TIP3    H224027   6.396   1.314   5.641
 8024TIP3   OH224028   3.823   2.140   4.366
 8024TIP3    H124029   3.860   2.131   4.454
 8024TIP3    H224030   3.844   2.058   4.322
 8025TIP3   OH224031   5.236   1.374   2.173
 8025TIP3    H124032   5.310   1.346   2.227
 8025TIP3    H224033   5.276   1.402   2.090
 8026TIP3   OH224034   1.812   5.441   2.514
 8026TIP3    H124035   1.875   5.485   2.457
 8026TIP3    H224036   1.862   5.416   2.592
 8027TIP3   OH224037   0.869   0.166   2.111
 8027TIP3    H124038   0.792   0.222   2.127
 8027TIP3    H224039   0.840   0.104   2.044
 8028TIP3   OH224040   5.449   6.506   5.084
 8028TIP3    H124041   5.474   6.443   5.016
 8028TIP3    H224042   5.353   6.511   5.078
 8029TIP3   OH224043   6.176   0.877   1.443
 8029TIP3    H124044   6.120   0.891   1.520
 8029TIP3    H224045   6.130   0.809   1.392
 8030TIP3   OH224046   6.679   6.644   2.522
 8030TIP3    H124047   6.716   6.593   2.450
 8030TIP3    H224048   6.612   6.699   2.480
 8031TIP3   OH224049   4.129   4.482   0.671
 8031TIP3    H124050   4.057   4.421   0.681
 8031TIP3    H224051   4.206   4.427   0.653
 8032TIP3   OH224052   6.712   2.137   1.851
 8032TIP3    H124053   6.730   2.045   1.871
 8032TIP3    H224054   6.788   2.185   1.885
 8033TIP3   OH224055   2.719   2.400   3.519
 8033TIP3    H124056   2.645   2.431   3.571
 8033TIP3    H224057   2.704   2.306   3.510
 8034TIP3   OH224058   5.834   1.286   2.970
 8034TIP3    H124059   5.911   1.315   2.920
 8034TIP3    H224060   5.849   1.320   3.058
 8035TIP3   OH224061   0.966   3.776   0.727
 8035TIP3    H124062   1.028   3.841   0.695
 8035TIP3    H224063   0.930   3.736   0.648
 8036TIP3   OH224064   7.370   2.676   2.269
 8036TIP3    H124065   7.395   2.716   2.352
 8036TIP3    H224066   7.436   2.608   2.254
 8037TIP3   OH224067   1.844   2.194   5.089
 8037TIP3    H124068   1.921   2.137   5.079
 8037TIP3    H224069   1.878   2.282   5.074
 8038TIP3   OH224070   2.238   1.018   1.791
 8038TIP3    H124071   2.291   1.088   1.753
 8038TIP3    H224072   2.300   0.968   1.845
 8039TIP3   OH224073   0.147   4.434   2.295
 8039TIP3    H124074   0.166   4.486   2.216
 8039TIP3    H224075   0.231   4.396   2.320
 8040TIP3   OH224076   4.552   6.987   3.258
 8040TIP3    H124077   4.459   7.009   3.264
 8040TIP3    H224078   4.596   7.057   3.306
 8041TIP3   OH224079   6.178   4.460   5.878
 8041TIP3    H124080   6.147   4.424   5.796
 8041TIP3    H224081   6.115   4.530   5.899
 8042TIP3   OH224082   7.236   7.456   1.304
 8042TIP3    H124083   7.248   7.430   1.212
 8042TIP3    H224084   7.270   7.545   1.307
 8043TIP3   OH224085   6.604   7.079   1.541
 8043TIP3    H124086   6.554   7.146   1.587
 8043TIP3    H224087   6.696   7.105   1.554
 8044TIP3   OH224088   7.631   6.922   0.948
 8044TIP3    H124089   7.588   6.932   1.033
 8044TIP3    H224090   7.692   6.849   0.961
 8045TIP3   OH224091   4.579   6.911   4.223
 8045TIP3    H124092   4.643   6.971   4.185
 8045TIP3    H224093   4.545   6.957   4.300
 8046TIP3   OH224094   6.781   0.648   6.342
 8046TIP3    H124095   6.874   0.642   6.324
 8046TIP3    H224096   6.776   0.684   6.431
 8047TIP3   OH224097   5.395   2.144   2.071
 8047TIP3    H124098   5.362   2.229   2.101
 8047TIP3    H224099   5.467   2.166   2.012
 8048TIP3   OH224100   5.912   6.685   5.625
 8048TIP3    H124101   6.007   6.681   5.622
 8048TIP3    H224102   5.884   6.654   5.539
 8049TIP3   OH224103   2.758   1.602   1.473
 8049TIP3    H124104   2.717   1.519   1.497
 8049TIP3    H224105   2.750   1.656   1.552
 8050TIP3   OH224106   4.408   5.516   3.628
 8050TIP3    H124107   4.459   5.566   3.564
 8050TIP3    H224108   4.317   5.537   3.608
 8051TIP3   OH224109   1.163   0.254   4.567
 8051TIP3    H124110   1.168   0.267   4.661
 8051TIP3    H224111   1.231   0.312   4.531
 8052TIP3   OH224112   7.465   6.552   1.672
 8052TIP3    H124113   7.421   6.559   1.756
 8052TIP3    H224114   7.456   6.459   1.647
 8053TIP3   OH224115   2.722   0.567   4.321
 8053TIP3    H124116   2.631   0.582   4.347
 8053TIP3    H224117   2.773   0.592   4.398
 8054TIP3   OH224118   7.068   3.277   0.403
 8054TIP3    H124119   6.980   3.244   0.417
 8054TIP3    H224120   7.069   3.306   0.311
 8055TIP3   OH224121   7.735   4.461   4.157
 8055TIP3    H124122   7.751   4.427   4.245
 8055TIP3    H224123   7.689   4.391   4.112
 8056TIP3   OH224124   2.740   7.228   4.501
 8056TIP3    H124125   2.699   7.144   4.480
 8056TIP3    H224126   2.812   7.235   4.439
 8057TIP3   OH224127   1.513   4.420   0.266
 8057TIP3    H124128   1.526   4.430   0.361
 8057TIP3    H224129   1.566   4.491   0.228
 8058TIP3   OH224130   7.337   1.004   3.196
 8058TIP3    H124131   7.315   1.087   3.238
 8058TIP3    H224132   7.368   1.029   3.108
 8059TIP3   OH224133   3.807   5.550   3.014
 8059TIP3    H124134   3.740   5.482   3.019
 8059TIP3    H224135   3.757   5.632   3.013
 8060TIP3   OH224136   2.863   4.304   3.063
 8060TIP3    H124137   2.852   4.227   3.119
 8060TIP3    H224138   2.947   4.342   3.091
 8061TIP3   OH224139   3.919   7.568   6.650
 8061TIP3    H124140   3.977   7.493   6.661
 8061TIP3    H224141   3.951   7.612   6.571
 8062TIP3   OH224142   6.603   5.954   5.894
 8062TIP3    H124143   6.644   5.891   5.953
 8062TIP3    H224144   6.541   5.903   5.843
 8063TIP3   OH224145   1.991   6.065   2.047
 8063TIP3    H124146   1.898   6.073   2.028
 8063TIP3    H224147   2.018   5.983   2.004
 8064TIP3   OH224148   5.809   4.740   5.682
 8064TIP3    H124149   5.857   4.669   5.639
 8064TIP3    H224150   5.737   4.760   5.622
 8065TIP3   OH224151   5.581   2.519   0.504
 8065TIP3    H124152   5.521   2.450   0.534
 8065TIP3    H224153   5.524   2.588   0.471
 8066TIP3   OH224154   1.846   4.622   1.675
 8066TIP3    H124155   1.923   4.618   1.619
 8066TIP3    H224156   1.774   4.591   1.619
 8067TIP3   OH224157   2.759   3.338   1.434
 8067TIP3    H124158   2.696   3.407   1.412
 8067TIP3    H224159   2.731   3.263   1.381
 8068TIP3   OH224160   8.213   1.770   6.365
 8068TIP3    H124161   8.296   1.755   6.320
 8068TIP3    H224162   8.205   1.865   6.371
 8069TIP3   OH224163   3.499   0.334   4.450
 8069TIP3    H124164   3.459   0.255   4.486
 8069TIP3    H224165   3.426   0.386   4.417
 8070TIP3   OH224166   2.647   0.976   4.412
 8070TIP3    H124167   2.613   0.942   4.496
 8070TIP3    H224168   2.708   1.045   4.437
 8071TIP3   OH224169   5.776   3.284   5.205
 8071TIP3    H124170   5.729   3.305   5.124
 8071TIP3    H224171   5.867   3.273   5.178
 8072TIP3   OH224172   7.876   1.717   4.047
 8072TIP3    H124173   7.874   1.756   4.135
 8072TIP3    H224174   7.828   1.780   3.992
 8073TIP3   OH224175   4.481   1.258   6.703
 8073TIP3    H124176   4.459   1.257   6.796
 8073TIP3    H224177   4.502   1.166   6.683
 8074TIP3   OH224178   0.991   7.342   6.735
 8074TIP3    H124179   0.960   7.323   6.823
 8074TIP3    H224180   0.911   7.355   6.684
 8075TIP3   OH224181   1.374   6.598   2.849
 8075TIP3    H124182   1.453   6.652   2.850
 8075TIP3    H224183   1.302   6.661   2.852
 8076TIP3   OH224184   4.583   5.410   1.034
 8076TIP3    H124185   4.617   5.368   1.113
 8076TIP3    H224186   4.510   5.356   1.007
 8077TIP3   OH224187   6.644   5.929   5.061
 8077TIP3    H124188   6.595   6.010   5.071
 8077TIP3    H224189   6.705   5.929   5.135
 8078TIP3   OH224190   3.162   2.386   3.605
 8078TIP3    H124191   3.170   2.468   3.556
 8078TIP3    H224192   3.077   2.391   3.648
 8079TIP3   OH224193   1.450   0.662   5.625
 8079TIP3    H124194   1.396   0.610   5.566
 8079TIP3    H224195   1.408   0.653   5.711
 8080TIP3   OH224196   6.118   7.198   2.453
 8080TIP3    H124197   6.184   7.170   2.516
 8080TIP3    H224198   6.035   7.187   2.500
 8081TIP3   OH224199   6.381   3.211   3.171
 8081TIP3    H124200   6.476   3.207   3.183
 8081TIP3    H224201   6.348   3.249   3.252
 8082TIP3   OH224202   1.546   3.019   0.644
 8082TIP3    H124203   1.543   3.025   0.548
 8082TIP3    H224204   1.595   3.096   0.671
 8083TIP3   OH224205   4.138   0.179   6.159
 8083TIP3    H124206   4.055   0.139   6.129
 8083TIP3    H224207   4.160   0.132   6.239
 8084TIP3   OH224208   6.038   4.621   3.030
 8084TIP3    H124209   5.943   4.614   3.043
 8084TIP3    H224210   6.048   4.693   2.968
 8085TIP3   OH224211   7.713   7.333   5.100
 8085TIP3    H124212   7.717   7.399   5.170
 8085TIP3    H224213   7.679   7.381   5.025
 8086TIP3   OH224214   3.696   2.109   5.175
 8086TIP3    H124215   3.689   2.064   5.091
 8086TIP3    H224216   3.753   2.184   5.158
 8087TIP3   OH224217   1.939   5.074   3.388
 8087TIP3    H124218   1.944   5.160   3.430
 8087TIP3    H224219   1.942   5.093   3.294
 8088TIP3   OH224220   2.587   0.309   2.694
 8088TIP3    H124221   2.630   0.275   2.772
 8088TIP3    H224222   2.525   0.375   2.726
 8089TIP3   OH224223   5.925   0.423   0.319
 8089TIP3    H124224   5.840   0.379   0.315
 8089TIP3    H224225   5.907   0.512   0.288
 8090TIP3   OH224226   3.878   6.929   4.189
 8090TIP3    H124227   3.797   6.880   4.203
 8090TIP3    H224228   3.941   6.889   4.249
 8091TIP3   OH224229   0.579   1.718   5.605
 8091TIP3    H124230   0.635   1.657   5.558
 8091TIP3    H224231   0.542   1.775   5.537
 8092TIP3   OH224232   7.631   0.615   2.315
 8092TIP3    H124233   7.542   0.610   2.350
 8092TIP3    H224234   7.683   0.558   2.372
 8093TIP3   OH224235   1.267   5.408   0.952
 8093TIP3    H124236   1.225   5.337   1.000
 8093TIP3    H224237   1.333   5.365   0.897
 8094TIP3   OH224238   7.572   0.912   5.435
 8094TIP3    H124239   7.647   0.871   5.393
 8094TIP3    H224240   7.496   0.875   5.389
 8095TIP3   OH224241   4.129   3.049   0.274
 8095TIP3    H124242   4.174   3.079   0.353
 8095TIP3    H224243   4.097   2.961   0.295
 8096TIP3   OH224244   7.854   1.360   4.779
 8096TIP3    H124245   7.921   1.311   4.826
 8096TIP3    H224246   7.899   1.440   4.751
 8097TIP3   OH224247   4.180   6.851   3.509
 8097TIP3    H124248   4.170   6.935   3.553
 8097TIP3    H224249   4.192   6.788   3.579
 8098TIP3   OH224250   3.928   4.977   4.598
 8098TIP3    H124251   4.006   4.928   4.574
 8098TIP3    H224252   3.903   4.942   4.684
 8099TIP3   OH224253   3.571   0.214   5.247
 8099TIP3    H124254   3.547   0.186   5.336
 8099TIP3    H224255   3.648   0.162   5.225
 8100TIP3   OH224256   0.452   0.991   0.523
 8100TIP3    H124257   0.371   0.967   0.569
 8100TIP3    H224258   0.516   1.005   0.593
 8101TIP3   OH224259   1.886   2.489   1.899
 8101TIP3    H124260   1.884   2.580   1.930
 8101TIP3    H224261   1.811   2.448   1.941
 8102TIP3   OH224262   2.502   4.359   3.648
 8102TIP3    H124263   2.443   4.407   3.705
 8102TIP3    H224264   2.475   4.267   3.657
 8103TIP3   OH224265   1.652   0.394   6.184
 8103TIP3    H124266   1.704   0.354   6.253
 8103TIP3    H224267   1.600   0.461   6.229
 8104TIP3   OH224268   3.666   3.322   0.971
 8104TIP3    H124269   3.582   3.290   0.941
 8104TIP3    H224270   3.707   3.362   0.894
 8105TIP3   OH224271   5.545   2.017   4.077
 8105TIP3    H124272   5.549   2.100   4.126
 8105TIP3    H224273   5.560   1.950   4.143
 8106TIP3   OH224274   2.049   4.642   6.718
 8106TIP3    H124275   2.101   4.652   6.639
 8106TIP3    H224276   2.014   4.729   6.735
 8107TIP3   OH224277   2.111   0.192   4.818
 8107TIP3    H124278   2.144   0.237   4.895
 8107TIP3    H224279   2.016   0.185   4.832
 8108TIP3   OH224280   1.946   2.113   1.480
 8108TIP3    H124281   1.946   2.051   1.408
 8108TIP3    H224282   2.035   2.109   1.515
 8109TIP3   OH224283   2.898   6.866   2.536
 8109TIP3    H124284   2.822   6.834   2.585
 8109TIP3    H224285   2.972   6.856   2.596
 8110TIP3   OH224286   6.726   2.405   2.097
 8110TIP3    H124287   6.787   2.348   2.050
 8110TIP3    H224288   6.776   2.436   2.173
 8111TIP3   OH224289   7.577   7.555   4.950
 8111TIP3    H124290   7.647   7.611   4.984
 8111TIP3    H224291   7.618   7.504   4.880
 8112TIP3   OH224292   3.188   0.773   3.892
 8112TIP3    H124293   3.262   0.736   3.939
 8112TIP3    H224294   3.175   0.860   3.932
 8113TIP3   OH224295   3.816   1.100   3.128
 8113TIP3    H124296   3.749   1.032   3.138
 8113TIP3    H224297   3.893   1.065   3.173
 8114TIP3   OH224298   4.244   2.024   0.490
 8114TIP3    H124299   4.207   1.957   0.548
 8114TIP3    H224300   4.204   2.106   0.520
 8115TIP3   OH224301   3.567   4.311   5.450
 8115TIP3    H124302   3.493   4.280   5.502
 8115TIP3    H224303   3.641   4.308   5.510
 8116TIP3   OH224304   1.106   3.524   4.981
 8116TIP3    H124305   1.059   3.488   5.057
 8116TIP3    H224306   1.142   3.447   4.936
 8117TIP3   OH224307   0.617   3.232   1.169
 8117TIP3    H124308   0.585   3.149   1.131
 8117TIP3    H224309   0.659   3.277   1.096
 8118TIP3   OH224310   4.499   7.516   4.363
 8118TIP3    H124311   4.515   7.436   4.313
 8118TIP3    H224312   4.538   7.586   4.311
 8119TIP3   OH224313   7.033   5.780   0.921
 8119TIP3    H124314   7.010   5.719   0.991
 8119TIP3    H224315   7.124   5.759   0.900
 8120TIP3   OH224316   1.239   1.824   6.410
 8120TIP3    H124317   1.327   1.861   6.416
 8120TIP3    H224318   1.250   1.731   6.431
 8121TIP3   OH224319   5.564   3.088   4.904
 8121TIP3    H124320   5.617   3.129   4.836
 8121TIP3    H224321   5.605   3.003   4.920
 8122TIP3   OH224322   0.862   3.053   4.282
 8122TIP3    H124323   0.890   2.961   4.286
 8122TIP3    H224324   0.917   3.097   4.346
 8123TIP3   OH224325   1.551   3.280   3.324
 8123TIP3    H124326   1.517   3.315   3.406
 8123TIP3    H224327   1.631   3.234   3.348
 8124TIP3   OH224328   8.363   5.195   1.827
 8124TIP3    H124329   8.297   5.160   1.888
 8124TIP3    H224330   8.313   5.222   1.750
 8125TIP3   OH224331   5.325   0.141   0.343
 8125TIP3    H124332   5.234   0.121   0.321
 8125TIP3    H224333   5.340   0.095   0.426
 8126TIP3   OH224334   7.711   2.333   2.019
 8126TIP3    H124335   7.721   2.335   1.924
 8126TIP3    H224336   7.793   2.369   2.053
 8127TIP3   OH224337   2.869   6.123   1.427
 8127TIP3    H124338   2.825   6.047   1.464
 8127TIP3    H224339   2.801   6.169   1.378
 8128TIP3   OH224340   7.277   2.368   2.401
 8128TIP3    H124341   7.293   2.434   2.469
 8128TIP3    H224342   7.356   2.316   2.399
 8129TIP3   OH224343   5.270   6.917   1.359
 8129TIP3    H124344   5.215   6.942   1.433
 8129TIP3    H224345   5.233   6.963   1.284
 8130TIP3   OH224346   6.121   3.497   5.492
 8130TIP3    H124347   6.197   3.460   5.537
 8130TIP3    H224348   6.158   3.541   5.415
 8131TIP3   OH224349   7.991   2.718   1.452
 8131TIP3    H124350   7.990   2.813   1.445
 8131TIP3    H224351   8.044   2.700   1.530
 8132TIP3   OH224352   3.784   4.768   6.520
 8132TIP3    H124353   3.764   4.771   6.614
 8132TIP3    H224354   3.796   4.860   6.495
 8133TIP3   OH224355   8.212   4.864   2.838
 8133TIP3    H124356   8.162   4.789   2.870
 8133TIP3    H224357   8.166   4.892   2.760
 8134TIP3   OH224358   1.112   1.003   5.559
 8134TIP3    H124359   1.181   0.991   5.493
 8134TIP3    H224360   1.108   1.098   5.572
 8135TIP3   OH224361   7.328   4.329   4.537
 8135TIP3    H124362   7.233   4.339   4.530
 8135TIP3    H224363   7.361   4.417   4.554
 8136TIP3   OH224364   5.421   4.842   3.607
 8136TIP3    H124365   5.401   4.780   3.536
 8136TIP3    H224366   5.472   4.790   3.670
 8137TIP3   OH224367   4.558   1.387   4.341
 8137TIP3    H124368   4.492   1.348   4.284
 8137TIP3    H224369   4.587   1.315   4.397
 8138TIP3   OH224370   0.519   5.995   2.661
 8138TIP3    H124371   0.530   5.964   2.751
 8138TIP3    H224372   0.596   5.961   2.615
 8139TIP3   OH224373   1.369   3.749   1.903
 8139TIP3    H124374   1.400   3.775   1.990
 8139TIP3    H224375   1.386   3.826   1.848
 8140TIP3   OH224376   1.661   1.938   4.132
 8140TIP3    H124377   1.629   1.854   4.100
 8140TIP3    H224378   1.589   1.971   4.186
 8141TIP3   OH224379   2.074   0.764   5.073
 8141TIP3    H124380   2.043   0.724   4.992
 8141TIP3    H224381   2.074   0.858   5.055
 8142TIP3   OH224382   4.453   3.786   4.311
 8142TIP3    H124383   4.467   3.771   4.217
 8142TIP3    H224384   4.477   3.703   4.352
 8143TIP3   OH224385   6.965   5.141   3.439
 8143TIP3    H124386   6.987   5.143   3.346
 8143TIP3    H224387   6.921   5.225   3.454
 8144TIP3   OH224388   2.950   3.302   3.933
 8144TIP3    H124389   3.037   3.342   3.929
 8144TIP3    H224390   2.967   3.210   3.953
 8145TIP3   OH224391   5.381   7.123   5.861
 8145TIP3    H124392   5.452   7.081   5.908
 8145TIP3    H224393   5.327   7.163   5.929
 8146TIP3   OH224394   4.723   6.419   4.715
 8146TIP3    H124395   4.807   6.464   4.718
 8146TIP3    H224396   4.723   6.372   4.632
 8147TIP3   OH224397   6.969   1.774   2.612
 8147TIP3    H124398   6.992   1.799   2.702
 8147TIP3    H224399   6.948   1.681   2.617
 8148TIP3   OH224400   7.515   6.733   0.178
 8148TIP3    H124401   7.533   6.763   0.089
 8148TIP3    H224402   7.545   6.805   0.235
 8149TIP3   OH224403   0.677   7.582   0.712
 8149TIP3    H124404   0.627   7.545   0.784
 8149TIP3    H224405   0.715   7.663   0.748
 8150TIP3   OH224406   7.389   4.011   5.639
 8150TIP3    H124407   7.335   3.945   5.595
 8150TIP3    H224408   7.450   3.960   5.693
 8151TIP3   OH224409   2.538   3.474   2.491
 8151TIP3    H124410   2.540   3.533   2.566
 8151TIP3    H224411   2.589   3.398   2.519
 8152TIP3   OH224412   1.317   6.204   1.399
 8152TIP3    H124413   1.380   6.137   1.425
 8152TIP3    H224414   1.298   6.252   1.479
 8153TIP3   OH224415   4.609   0.087   3.841
 8153TIP3    H124416   4.692   0.100   3.794
 8153TIP3    H224417   4.592   0.170   3.884
 8154TIP3   OH224418   4.945   4.801   3.443
 8154TIP3    H124419   4.886   4.855   3.391
 8154TIP3    H224420   5.032   4.818   3.405
 8155TIP3   OH224421   5.418   5.838   3.391
 8155TIP3    H124422   5.425   5.837   3.296
 8155TIP3    H224423   5.324   5.842   3.409
 8156TIP3   OH224424   0.970   5.645   0.936
 8156TIP3    H124425   1.047   5.658   0.992
 8156TIP3    H224426   0.909   5.595   0.990
 8157TIP3   OH224427   6.218   1.355   0.819
 8157TIP3    H124428   6.187   1.337   0.730
 8157TIP3    H224429   6.144   1.330   0.875
 8158TIP3   OH224430   3.909   2.730   0.766
 8158TIP3    H124431   3.869   2.707   0.682
 8158TIP3    H224432   3.844   2.706   0.832
 8159TIP3   OH224433   2.672   6.115   3.950
 8159TIP3    H124434   2.663   6.067   3.868
 8159TIP3    H224435   2.584   6.142   3.973
 8160TIP3   OH224436   6.256   6.007   0.573
 8160TIP3    H124437   6.247   5.934   0.634
 8160TIP3    H224438   6.211   5.977   0.494
 8161TIP3   OH224439   0.940   3.570   3.190
 8161TIP3    H124440   0.935   3.515   3.268
 8161TIP3    H224441   1.017   3.625   3.205
 8162TIP3   OH224442   2.363   1.624   6.664
 8162TIP3    H124443   2.387   1.712   6.692
 8162TIP3    H224444   2.443   1.572   6.675
 8163TIP3   OH224445   4.176   2.330   5.706
 8163TIP3    H124446   4.162   2.368   5.793
 8163TIP3    H224447   4.170   2.235   5.720
 8164TIP3   OH224448   4.004   1.740   3.024
 8164TIP3    H124449   4.042   1.753   2.937
 8164TIP3    H224450   4.054   1.798   3.081
 8165TIP3   OH224451   3.309   0.531   3.698
 8165TIP3    H124452   3.281   0.505   3.611
 8165TIP3    H224453   3.240   0.499   3.757
 8166TIP3   OH224454   0.445   4.964   5.952
 8166TIP3    H124455   0.370   5.020   5.972
 8166TIP3    H224456   0.437   4.946   5.858
 8167TIP3   OH224457   4.798   3.509   5.879
 8167TIP3    H124458   4.877   3.504   5.933
 8167TIP3    H224459   4.727   3.489   5.940
 8168TIP3   OH224460   5.062   0.245   2.221
 8168TIP3    H124461   5.151   0.220   2.193
 8168TIP3    H224462   5.069   0.337   2.246
 8169TIP3   OH224463   4.698   5.231   3.606
 8169TIP3    H124464   4.742   5.316   3.608
 8169TIP3    H224465   4.699   5.206   3.513
 8170TIP3   OH224466   2.983   0.873   2.269
 8170TIP3    H124467   3.048   0.878   2.199
 8170TIP3    H224468   2.979   0.962   2.305
 8171TIP3   OH224469   6.106   3.515   1.191
 8171TIP3    H124470   6.099   3.507   1.096
 8171TIP3    H224471   6.124   3.608   1.206
 8172TIP3   OH224472   1.317   4.689   6.142
 8172TIP3    H124473   1.333   4.768   6.194
 8172TIP3    H224474   1.336   4.715   6.052
 8173TIP3   OH224475   7.725   5.520   5.188
 8173TIP3    H124476   7.799   5.555   5.139
 8173TIP3    H224477   7.740   5.549   5.279
 8174TIP3   OH224478   0.049   0.132   3.197
 8174TIP3    H124479   0.053   0.227   3.190
 8174TIP3    H224480   0.014   0.103   3.112
 8175TIP3   OH224481   0.035   7.005   4.867
 8175TIP3    H124482  -0.052   7.010   4.906
 8175TIP3    H224483   0.095   7.023   4.940
 8176TIP3   OH224484   7.093   2.062   3.730
 8176TIP3    H124485   7.068   1.985   3.781
 8176TIP3    H224486   7.182   2.044   3.702
 8177TIP3   OH224487   6.654   6.281   2.491
 8177TIP3    H124488   6.695   6.342   2.431
 8177TIP3    H224489   6.565   6.316   2.504
 8178TIP3   OH224490   1.129   1.999   3.061
 8178TIP3    H124491   1.094   2.063   2.999
 8178TIP3    H224492   1.219   2.028   3.077
 8179TIP3   OH224493   4.356   1.457   6.464
 8179TIP3    H124494   4.384   1.380   6.416
 8179TIP3    H224495   4.261   1.446   6.474
 8180TIP3   OH224496   5.241   0.782   1.146
 8180TIP3    H124497   5.246   0.708   1.086
 8180TIP3    H224498   5.263   0.745   1.232
 8181TIP3   OH224499   5.125   0.893   5.943
 8181TIP3    H124500   5.146   0.986   5.945
 8181TIP3    H224501   5.177   0.858   5.870
 8182TIP3   OH224502   0.408   5.116   5.036
 8182TIP3    H124503   0.324   5.144   4.998
 8182TIP3    H224504   0.398   5.022   5.049
 8183TIP3   OH224505   4.083   1.240   1.970
 8183TIP3    H124506   4.043   1.323   1.945
 8183TIP3    H224507   4.009   1.181   1.986
 8184TIP3   OH224508   3.519   7.374   0.618
 8184TIP3    H124509   3.593   7.330   0.577
 8184TIP3    H224510   3.466   7.405   0.544
 8185TIP3   OH224511   0.706   5.566   6.209
 8185TIP3    H124512   0.626   5.513   6.219
 8185TIP3    H224513   0.764   5.511   6.157
 8186TIP3   OH224514   4.800   4.252   2.270
 8186TIP3    H124515   4.713   4.283   2.297
 8186TIP3    H224516   4.843   4.228   2.352
 8187TIP3   OH224517   0.411   6.265   1.278
 8187TIP3    H124518   0.460   6.223   1.348
 8187TIP3    H224519   0.442   6.222   1.198
 8188TIP3   OH224520   7.651   5.787   4.489
 8188TIP3    H124521   7.723   5.724   4.480
 8188TIP3    H224522   7.694   5.872   4.492
 8189TIP3   OH224523   7.349   6.269   4.321
 8189TIP3    H124524   7.398   6.349   4.304
 8189TIP3    H224525   7.408   6.215   4.373
 8190TIP3   OH224526   0.909   4.030   3.615
 8190TIP3    H124527   0.985   3.989   3.657
 8190TIP3    H224528   0.834   3.983   3.651
 8191TIP3   OH224529   6.938   1.651   6.316
 8191TIP3    H124530   6.890   1.584   6.363
 8191TIP3    H224531   6.882   1.729   6.320
 8192TIP3   OH224532   1.935   6.818   2.411
 8192TIP3    H124533   1.962   6.807   2.502
 8192TIP3    H224534   1.888   6.738   2.390
 8193TIP3   OH224535   0.548   2.311   6.654
 8193TIP3    H124536   0.621   2.347   6.604
 8193TIP3    H224537   0.498   2.260   6.591
 8194TIP3   OH224538   6.175   7.647   0.393
 8194TIP3    H124539   6.088   7.682   0.375
 8194TIP3    H224540   6.235   7.713   0.356
 8195TIP3   OH224541   6.144   2.273   3.633
 8195TIP3    H124542   6.195   2.285   3.713
 8195TIP3    H224543   6.209   2.259   3.565
 8196TIP3   OH224544   6.504   0.234   3.031
 8196TIP3    H124545   6.459   0.252   3.113
 8196TIP3    H224546   6.466   0.152   3.000
 8197TIP3   OH224547   4.685   6.692   5.085
 8197TIP3    H124548   4.705   6.761   5.022
 8197TIP3    H224549   4.770   6.662   5.115
 8198TIP3   OH224550   0.935   5.988   3.150
 8198TIP3    H124551   0.991   5.917   3.181
 8198TIP3    H224552   0.905   5.958   3.064
 8199TIP3   OH224553   0.731   3.019   4.615
 8199TIP3    H124554   0.648   3.010   4.661
 8199TIP3    H224555   0.713   3.083   4.546
 8200TIP3   OH224556   5.120   6.827   0.803
 8200TIP3    H124557   5.151   6.917   0.802
 8200TIP3    H224558   5.200   6.774   0.807
 8201TIP3   OH224559   1.858   0.057   6.113
 8201TIP3    H124560   1.866   0.130   6.174
 8201TIP3    H224561   1.923   0.074   6.045
 8202TIP3   OH224562   3.202   6.495   3.252
 8202TIP3    H124563   3.255   6.420   3.225
 8202TIP3    H224564   3.242   6.570   3.207
 8203TIP3   OH224565   2.543   3.866   4.227
 8203TIP3    H124566   2.592   3.874   4.146
 8203TIP3    H224567   2.593   3.803   4.280
 8204TIP3   OH224568   5.582   4.466   2.317
 8204TIP3    H124569   5.506   4.411   2.302
 8204TIP3    H224570   5.621   4.432   2.398
 8205TIP3   OH224571   1.750   2.315   5.846
 8205TIP3    H124572   1.660   2.336   5.818
 8205TIP3    H224573   1.741   2.234   5.895
 8206TIP3   OH224574   6.983   0.388   1.932
 8206TIP3    H124575   7.023   0.430   1.856
 8206TIP3    H224576   6.889   0.398   1.918
 8207TIP3   OH224577   4.994   7.219   6.048
 8207TIP3    H124578   4.950   7.134   6.053
 8207TIP3    H224579   5.087   7.198   6.052
 8208TIP3   OH224580   2.820   4.511   3.808
 8208TIP3    H124581   2.778   4.595   3.825
 8208TIP3    H224582   2.913   4.528   3.821
 8209TIP3   OH224583   1.601   4.838   2.634
 8209TIP3    H124584   1.575   4.923   2.670
 8209TIP3    H224585   1.533   4.818   2.570
 8210TIP3   OH224586   2.961   3.065   5.772
 8210TIP3    H124587   3.020   3.140   5.771
 8210TIP3    H224588   3.016   2.992   5.801
 8211TIP3   OH224589   5.825   4.197   2.576
 8211TIP3    H124590   5.910   4.211   2.534
 8211TIP3    H224591   5.789   4.121   2.531
 8212TIP3   OH224592   7.042   6.898   4.664
 8212TIP3    H124593   6.971   6.882   4.601
 8212TIP3    H224594   7.117   6.849   4.629
 8213TIP3   OH224595   3.575   2.229   4.265
 8213TIP3    H124596   3.651   2.173   4.283
 8213TIP3    H224597   3.585   2.254   4.173
 8214TIP3   OH224598   0.558   3.582   4.264
 8214TIP3    H124599   0.525   3.591   4.353
 8214TIP3    H224600   0.645   3.544   4.274
 8215TIP3   OH224601   7.954   5.994   1.287
 8215TIP3    H124602   7.889   6.055   1.254
 8215TIP3    H224603   7.904   5.926   1.332
 8216TIP3   OH224604   5.363   3.707   1.138
 8216TIP3    H124605   5.450   3.739   1.114
 8216TIP3    H224606   5.378   3.621   1.177
 8217TIP3   OH224607   0.949   2.696   1.200
 8217TIP3    H124608   0.991   2.716   1.284
 8217TIP3    H224609   0.960   2.775   1.148
 8218TIP3   OH224610   5.528   5.937   4.467
 8218TIP3    H124611   5.495   5.847   4.467
 8218TIP3    H224612   5.548   5.955   4.559
 8219TIP3   OH224613   3.940   2.537   2.331
 8219TIP3    H124614   3.912   2.474   2.264
 8219TIP3    H224615   3.858   2.577   2.360
 8220TIP3   OH224616   2.470   4.677   1.500
 8220TIP3    H124617   2.467   4.601   1.557
 8220TIP3    H224618   2.530   4.738   1.544
 8221TIP3   OH224619   1.065   4.566   3.400
 8221TIP3    H124620   1.140   4.510   3.384
 8221TIP3    H224621   0.991   4.506   3.409
 8222TIP3   OH224622   0.048   7.681   6.189
 8222TIP3    H124623   0.120   7.662   6.250
 8222TIP3    H224624  -0.003   7.600   6.187
 8223TIP3   OH224625   1.699   1.053   2.171
 8223TIP3    H124626   1.685   0.966   2.133
 8223TIP3    H224627   1.636   1.109   2.126
 8224TIP3   OH224628   6.340   7.534   0.566
 8224TIP3    H124629   6.294   7.453   0.587
 8224TIP3    H224630   6.285   7.577   0.500
 8225TIP3   OH224631   1.215   6.022   2.184
 8225TIP3    H124632   1.128   5.988   2.162
 8225TIP3    H224633   1.252   6.047   2.099
 8226TIP3   OH224634   0.836   2.093   5.698
 8226TIP3    H124635   0.797   2.021   5.748
 8226TIP3    H224636   0.797   2.084   5.610
 8227TIP3   OH224637   5.421   7.079   3.422
 8227TIP3    H124638   5.514   7.070   3.402
 8227TIP3    H224639   5.386   6.990   3.417
 8228TIP3   OH224640   0.525   7.197   2.178
 8228TIP3    H124641   0.609   7.204   2.224
 8228TIP3    H224642   0.477   7.276   2.204
 8229TIP3   OH224643   3.827   1.583   2.892
 8229TIP3    H124644   3.891   1.651   2.915
 8229TIP3    H224645   3.751   1.631   2.861
 8230TIP3   OH224646   5.038   5.031   0.688
 8230TIP3    H124647   4.964   5.090   0.673
 8230TIP3    H224648   5.081   5.067   0.766
 8231TIP3   OH224649   4.819   5.693   0.832
 8231TIP3    H124650   4.749   5.636   0.800
 8231TIP3    H224651   4.825   5.763   0.767
 8232TIP3   OH224652   5.989   5.653   1.444
 8232TIP3    H124653   5.991   5.717   1.373
 8232TIP3    H224654   6.034   5.576   1.409
 8233TIP3   OH224655   6.226   2.665   1.734
 8233TIP3    H124656   6.195   2.577   1.713
 8233TIP3    H224657   6.304   2.677   1.679
 8234TIP3   OH224658   6.573   7.832   0.074
 8234TIP3    H124659   6.543   7.771   0.007
 8234TIP3    H224660   6.668   7.823   0.075
 8235TIP3   OH224661   3.262   2.926   1.065
 8235TIP3    H124662   3.355   2.913   1.083
 8235TIP3    H224663   3.257   2.936   0.970
 8236TIP3   OH224664   2.010   4.743   0.154
 8236TIP3    H124665   2.017   4.790   0.071
 8236TIP3    H224666   1.928   4.694   0.147
 8237TIP3   OH224667   3.885   7.505   4.956
 8237TIP3    H124668   3.816   7.472   5.014
 8237TIP3    H224669   3.873   7.455   4.875
 8238TIP3   OH224670   6.661   4.977   3.885
 8238TIP3    H124671   6.702   5.042   3.829
 8238TIP3    H224672   6.690   4.893   3.851
 8239TIP3   OH224673   5.884   0.198   6.511
 8239TIP3    H124674   5.964   0.249   6.524
 8239TIP3    H224675   5.818   0.262   6.486
 8240TIP3   OH224676   5.217   4.178   3.951
 8240TIP3    H124677   5.279   4.205   3.884
 8240TIP3    H224678   5.148   4.133   3.903
 8241TIP3   OH224679   4.742   6.034   0.147
 8241TIP3    H124680   4.821   6.045   0.095
 8241TIP3    H224681   4.672   6.028   0.082
 8242TIP3   OH224682   0.924   0.438   1.628
 8242TIP3    H124683   0.974   0.436   1.547
 8242TIP3    H224684   0.990   0.446   1.697
 8243TIP3   OH224685   4.576   5.406   3.366
 8243TIP3    H124686   4.590   5.444   3.279
 8243TIP3    H224687   4.630   5.460   3.424
 8244TIP3   OH224688   1.710   0.964   4.240
 8244TIP3    H124689   1.664   0.938   4.160
 8244TIP3    H224690   1.652   1.028   4.281
 8245TIP3   OH224691   1.107   0.847   6.054
 8245TIP3    H124692   1.099   0.893   5.971
 8245TIP3    H224693   1.200   0.830   6.064
 8246TIP3   OH224694   0.710   4.281   0.583
 8246TIP3    H124695   0.717   4.330   0.665
 8246TIP3    H224696   0.711   4.189   0.609
 8247TIP3   OH224697   4.008   0.996   2.733
 8247TIP3    H124698   4.088   0.945   2.746
 8247TIP3    H224699   3.937   0.933   2.738
 8248TIP3   OH224700   1.893   0.870   4.449
 8248TIP3    H124701   1.951   0.822   4.390
 8248TIP3    H224702   1.832   0.916   4.391
 8249TIP3   OH224703   2.616   5.300   2.179
 8249TIP3    H124704   2.554   5.229   2.165
 8249TIP3    H224705   2.702   5.259   2.173
 8250TIP3   OH224706   5.069   6.330   4.559
 8250TIP3    H124707   4.995   6.279   4.525
 8250TIP3    H224708   5.125   6.265   4.601
 8251TIP3   OH224709   2.258   6.359   4.451
 8251TIP3    H124710   2.191   6.358   4.520
 8251TIP3    H224711   2.227   6.425   4.389
 8252TIP3   OH224712   4.922   7.024   5.789
 8252TIP3    H124713   4.927   6.963   5.715
 8252TIP3    H224714   4.951   7.107   5.753
 8253TIP3   OH224715   1.815   3.866   0.251
 8253TIP3    H124716   1.721   3.869   0.269
 8253TIP3    H224717   1.847   3.953   0.272
 8254TIP3   OH224718   1.166   5.138   6.583
 8254TIP3    H124719   1.124   5.111   6.501
 8254TIP3    H224720   1.246   5.085   6.588
 8255TIP3   OH224721   4.672   6.447   3.459
 8255TIP3    H124722   4.645   6.538   3.468
 8255TIP3    H224723   4.595   6.403   3.422
 8256TIP3   OH224724   7.221   3.583   2.681
 8256TIP3    H124725   7.257   3.637   2.611
 8256TIP3    H224726   7.133   3.561   2.652
 8257TIP3   OH224727   3.036   4.147   3.936
 8257TIP3    H124728   3.055   4.073   3.993
 8257TIP3    H224729   3.035   4.110   3.848
 8258TIP3   OH224730   1.952   0.280   2.266
 8258TIP3    H124731   1.964   0.374   2.280
 8258TIP3    H224732   2.034   0.240   2.295
 8259TIP3   OH224733   1.408   1.551   5.325
 8259TIP3    H124734   1.424   1.645   5.339
 8259TIP3    H224735   1.461   1.529   5.249
 8260TIP3   OH224736   7.028   5.261   1.763
 8260TIP3    H124737   6.939   5.295   1.751
 8260TIP3    H224738   7.023   5.207   1.841
 8261TIP3   OH224739   1.131   4.087   3.211
 8261TIP3    H124740   1.154   4.167   3.164
 8261TIP3    H224741   1.170   4.099   3.298
 8262TIP3   OH224742   7.645   4.853   0.526
 8262TIP3    H124743   7.632   4.929   0.470
 8262TIP3    H224744   7.561   4.808   0.524
 8263TIP3   OH224745   0.050   1.059   4.971
 8263TIP3    H124746   0.027   1.101   4.888
 8263TIP3    H224747   0.134   1.098   4.996
 8264TIP3   OH224748   5.887   0.838   6.320
 8264TIP3    H124749   5.837   0.889   6.258
 8264TIP3    H224750   5.911   0.759   6.272
 8265TIP3   OH224751   2.266   1.333   4.960
 8265TIP3    H124752   2.304   1.262   5.012
 8265TIP3    H224753   2.176   1.306   4.944
 8266TIP3   OH224754   5.775   0.539   1.942
 8266TIP3    H124755   5.774   0.448   1.913
 8266TIP3    H224756   5.815   0.537   2.029
 8267TIP3   OH224757   4.610   2.309   1.611
 8267TIP3    H124758   4.535   2.276   1.561
 8267TIP3    H224759   4.608   2.404   1.597
 8268TIP3   OH224760   6.950   7.826   6.816
 8268TIP3    H124761   7.023   7.825   6.754
 8268TIP3    H224762   6.873   7.843   6.763
 8269TIP3   OH224763   8.014   4.794   4.501
 8269TIP3    H124764   8.054   4.709   4.519
 8269TIP3    H224765   8.067   4.831   4.431
 8270TIP3   OH224766   2.579   1.020   2.979
 8270TIP3    H124767   2.550   0.957   3.046
 8270TIP3    H224768   2.498   1.049   2.938
 8271TIP3   OH224769   0.794   5.746   4.532
 8271TIP3    H124770   0.875   5.787   4.501
 8271TIP3    H224771   0.798   5.656   4.499
 8272TIP3   OH224772   1.171   3.398   4.276
 8272TIP3    H124773   1.097   3.413   4.219
 8272TIP3    H224774   1.245   3.438   4.231
 8273TIP3   OH224775   6.068   7.722   4.723
 8273TIP3    H124776   5.982   7.740   4.686
 8273TIP3    H224777   6.082   7.792   4.787
 8274TIP3   OH224778   3.444   1.844   4.733
 8274TIP3    H124779   3.372   1.886   4.686
 8274TIP3    H224780   3.522   1.866   4.683
 8275TIP3   OH224781   2.871   4.075   0.525
 8275TIP3    H124782   2.874   4.116   0.611
 8275TIP3    H224783   2.961   4.046   0.509
 8276TIP3   OH224784   2.679   5.483   3.470
 8276TIP3    H124785   2.649   5.392   3.470
 8276TIP3    H224786   2.647   5.519   3.553
 8277TIP3   OH224787   4.690   1.838   5.866
 8277TIP3    H124788   4.614   1.896   5.870
 8277TIP3    H224789   4.717   1.842   5.774
 8278TIP3   OH224790   3.954   7.510   3.637
 8278TIP3    H124791   3.964   7.431   3.690
 8278TIP3    H224792   3.866   7.541   3.655
 8279TIP3   OH224793   7.087   7.760   4.421
 8279TIP3    H124794   7.013   7.717   4.380
 8279TIP3    H224795   7.135   7.801   4.349
 8280TIP3   OH224796   5.855   3.472   3.115
 8280TIP3    H124797   5.925   3.450   3.054
 8280TIP3    H224798   5.879   3.427   3.196
 8281TIP3   OH224799   0.564   6.542   4.913
 8281TIP3    H124800   0.474   6.567   4.934
 8281TIP3    H224801   0.596   6.611   4.855
 8282TIP3   OH224802   4.055   4.473   2.625
 8282TIP3    H124803   4.085   4.539   2.562
 8282TIP3    H224804   3.982   4.515   2.670
 8283TIP3   OH224805   0.664   1.099   4.298
 8283TIP3    H124806   0.738   1.152   4.327
 8283TIP3    H224807   0.605   1.161   4.255
 8284TIP3   OH224808   5.671   3.153   3.245
 8284TIP3    H124809   5.756   3.186   3.273
 8284TIP3    H224810   5.660   3.071   3.293
 8285TIP3   OH224811   2.375   6.506   4.994
 8285TIP3    H124812   2.316   6.580   5.007
 8285TIP3    H224813   2.453   6.544   4.954
 8286TIP3   OH224814   5.963   7.493   0.883
 8286TIP3    H124815   6.025   7.484   0.955
 8286TIP3    H224816   5.897   7.425   0.899
 8287TIP3   OH224817   2.242   3.540   3.136
 8287TIP3    H124818   2.292   3.527   3.056
 8287TIP3    H224819   2.171   3.475   3.130
 8288TIP3   OH224820   0.498   5.660   3.901
 8288TIP3    H124821   0.563   5.725   3.874
 8288TIP3    H224822   0.415   5.707   3.900
 8289TIP3   OH224823   2.115   1.618   1.964
 8289TIP3    H124824   2.194   1.602   1.912
 8289TIP3    H224825   2.052   1.553   1.933
 8290TIP3   OH224826   5.648   4.386   2.626
 8290TIP3    H124827   5.679   4.438   2.699
 8290TIP3    H224828   5.725   4.336   2.597
 8291TIP3   OH224829   4.627   4.956   3.497
 8291TIP3    H124830   4.578   4.989   3.572
 8291TIP3    H224831   4.608   5.019   3.427
 8292TIP3   OH224832   1.533   1.259   5.786
 8292TIP3    H124833   1.520   1.211   5.704
 8292TIP3    H224834   1.445   1.285   5.812
 8293TIP3   OH224835   5.706   7.287   3.585
 8293TIP3    H124836   5.790   7.277   3.541
 8293TIP3    H224837   5.641   7.287   3.514
 8294TIP3   OH224838   6.032   6.912   3.865
 8294TIP3    H124839   5.993   6.866   3.791
 8294TIP3    H224840   6.108   6.857   3.889
 8295TIP3   OH224841   5.094   3.522   4.931
 8295TIP3    H124842   5.032   3.592   4.916
 8295TIP3    H224843   5.047   3.442   4.905
 8296TIP3   OH224844   3.431   5.876   4.354
 8296TIP3    H124845   3.518   5.868   4.314
 8296TIP3    H224846   3.370   5.862   4.281
 8297TIP3   OH224847   7.082   6.254   5.520
 8297TIP3    H124848   7.163   6.243   5.470
 8297TIP3    H224849   7.012   6.239   5.456
 8298TIP3   OH224850   3.545   2.525   0.204
 8298TIP3    H124851   3.457   2.497   0.228
 8298TIP3    H224852   3.565   2.597   0.263
 8299TIP3   OH224853   1.678   7.172   5.639
 8299TIP3    H124854   1.737   7.191   5.566
 8299TIP3    H224855   1.728   7.197   5.717
 8300TIP3   OH224856   7.129   0.786   5.973
 8300TIP3    H124857   7.155   0.863   6.025
 8300TIP3    H224858   7.205   0.767   5.918
 8301TIP3   OH224859   2.532   7.078   1.315
 8301TIP3    H124860   2.473   7.144   1.278
 8301TIP3    H224861   2.617   7.121   1.320
 8302TIP3   OH224862   1.137   4.838   2.135
 8302TIP3    H124863   1.160   4.847   2.042
 8302TIP3    H224864   1.087   4.917   2.155
 8303TIP3   OH224865   4.294   7.517   3.442
 8303TIP3    H124866   4.286   7.454   3.513
 8303TIP3    H224867   4.379   7.498   3.402
 8304TIP3   OH224868   7.570   0.615   6.176
 8304TIP3    H124869   7.608   0.680   6.117
 8304TIP3    H224870   7.626   0.615   6.253
 8305TIP3   OH224871   1.139   7.064   1.197
 8305TIP3    H124872   1.052   7.049   1.159
 8305TIP3    H224873   1.122   7.119   1.274
 8306TIP3   OH224874   6.294   6.630   0.976
 8306TIP3    H124875   6.209   6.675   0.974
 8306TIP3    H224876   6.319   6.629   1.068
 8307TIP3   OH224877   2.066   4.779   4.570
 8307TIP3    H124878   2.161   4.787   4.571
 8307TIP3    H224879   2.035   4.837   4.639
 8308TIP3   OH224880   4.110   2.186   2.284
 8308TIP3    H124881   4.172   2.224   2.221
 8308TIP3    H224882   4.116   2.244   2.361
 8309TIP3   OH224883   5.180   5.932   5.346
 8309TIP3    H124884   5.205   5.896   5.261
 8309TIP3    H224885   5.175   6.027   5.332
 8310TIP3   OH224886   4.108   3.355   0.250
 8310TIP3    H124887   4.156   3.436   0.265
 8310TIP3    H224888   4.124   3.302   0.328
 8311TIP3   OH224889   6.351   5.636   6.699
 8311TIP3    H124890   6.445   5.616   6.695
 8311TIP3    H224891   6.342   5.717   6.648
 8312TIP3   OH224892   5.991   4.985   2.116
 8312TIP3    H124893   6.049   5.041   2.167
 8312TIP3    H224894   5.906   5.030   2.118
 8313TIP3   OH224895   3.067   5.487   2.754
 8313TIP3    H124896   3.143   5.512   2.701
 8313TIP3    H224897   3.100   5.422   2.815
 8314TIP3   OH224898   1.165   5.999   4.861
 8314TIP3    H124899   1.087   6.052   4.846
 8314TIP3    H224900   1.173   5.995   4.956
 8315TIP3   OH224901   6.791   7.824   4.736
 8315TIP3    H124902   6.783   7.896   4.798
 8315TIP3    H224903   6.861   7.769   4.772
 8316TIP3   OH224904   0.638   2.633   2.189
 8316TIP3    H124905   0.679   2.695   2.250
 8316TIP3    H224906   0.583   2.687   2.133
 8317TIP3   OH224907   7.365   3.453   6.518
 8317TIP3    H124908   7.331   3.538   6.543
 8317TIP3    H224909   7.290   3.393   6.527
 8318TIP3   OH224910   3.410   1.126   3.260
 8318TIP3    H124911   3.397   1.065   3.332
 8318TIP3    H224912   3.326   1.173   3.252
 8319TIP3   OH224913   1.850   7.431   2.297
 8319TIP3    H124914   1.817   7.342   2.310
 8319TIP3    H224915   1.901   7.426   2.216
 8320TIP3   OH224916   7.538   2.742   5.016
 8320TIP3    H124917   7.629   2.714   5.016
 8320TIP3    H224918   7.541   2.832   4.983
 8321TIP3   OH224919   2.153   6.019   6.083
 8321TIP3    H124920   2.244   6.024   6.112
 8321TIP3    H224921   2.147   5.936   6.035
 8322TIP3   OH224922   7.395   0.760   5.011
 8322TIP3    H124923   7.441   0.776   5.094
 8322TIP3    H224924   7.378   0.666   5.011
 8323TIP3   OH224925   3.566   1.723   2.804
 8323TIP3    H124926   3.488   1.667   2.804
 8323TIP3    H224927   3.539   1.801   2.853
 8324TIP3   OH224928   1.593   6.987   0.591
 8324TIP3    H124929   1.535   6.977   0.667
 8324TIP3    H224930   1.546   6.943   0.520
 8325TIP3   OH224931   3.745   1.919   1.182
 8325TIP3    H124932   3.840   1.908   1.192
 8325TIP3    H224933   3.727   1.888   1.094
 8326TIP3   OH224934   1.384   3.921   6.804
 8326TIP3    H124935   1.420   3.911   6.717
 8326TIP3    H224936   1.349   3.834   6.826
 8327TIP3   OH224937   5.959   3.153   5.036
 8327TIP3    H124938   5.913   3.084   4.989
 8327TIP3    H224939   5.981   3.217   4.969
 8328TIP3   OH224940   0.603   3.220   6.284
 8328TIP3    H124941   0.688   3.237   6.243
 8328TIP3    H224942   0.596   3.287   6.352
 8329TIP3   OH224943   3.203   6.043   4.089
 8329TIP3    H124944   3.109   6.054   4.080
 8329TIP3    H224945   3.215   5.950   4.109
 8330TIP3   OH224946   1.728   4.557   0.522
 8330TIP3    H124947   1.736   4.582   0.430
 8330TIP3    H224948   1.797   4.607   0.566
 8331TIP3   OH224949   6.153   3.297   0.161
 8331TIP3    H124950   6.195   3.315   0.245
 8331TIP3    H224951   6.201   3.223   0.125
 8332TIP3   OH224952   4.782   4.336   0.598
 8332TIP3    H124953   4.766   4.262   0.657
 8332TIP3    H224954   4.730   4.407   0.634
 8333TIP3   OH224955   7.760   5.431   6.717
 8333TIP3    H124956   7.773   5.521   6.746
 8333TIP3    H224957   7.698   5.438   6.644
 8334TIP3   OH224958   5.059   7.558   2.078
 8334TIP3    H124959   5.151   7.537   2.062
 8334TIP3    H224960   5.038   7.513   2.160
 8335TIP3   OH224961   2.483   6.593   0.403
 8335TIP3    H124962   2.428   6.641   0.464
 8335TIP3    H224963   2.434   6.594   0.320
 8336TIP3   OH224964   6.122   3.460   6.226
 8336TIP3    H124965   6.065   3.529   6.192
 8336TIP3    H224966   6.145   3.408   6.149
 8337TIP3   OH224967   5.057   7.835   3.655
 8337TIP3    H124968   5.098   7.758   3.694
 8337TIP3    H224969   4.984   7.801   3.604
 8338TIP3   OH224970   7.429   0.698   2.992
 8338TIP3    H124971   7.414   0.713   3.086
 8338TIP3    H224972   7.365   0.754   2.949
 8339TIP3   OH224973   0.905   2.859   5.890
 8339TIP3    H124974   0.922   2.948   5.857
 8339TIP3    H224975   0.922   2.865   5.984
 8340TIP3   OH224976   5.263   0.613   0.045
 8340TIP3    H124977   5.235   0.563   0.122
 8340TIP3    H224978   5.207   0.691   0.045
 8341TIP3   OH224979   0.625   1.209   2.197
 8341TIP3    H124980   0.682   1.285   2.211
 8341TIP3    H224981   0.618   1.201   2.102
 8342TIP3   OH224982   1.539   5.774   0.334
 8342TIP3    H124983   1.455   5.730   0.347
 8342TIP3    H224984   1.543   5.841   0.402
 8343TIP3   OH224985   2.831   1.553   6.584
 8343TIP3    H124986   2.870   1.486   6.528
 8343TIP3    H224987   2.764   1.506   6.635
 8344TIP3   OH224988   0.431   5.409   0.721
 8344TIP3    H124989   0.359   5.469   0.739
 8344TIP3    H224990   0.510   5.461   0.735
 8345TIP3   OH224991   1.041   7.251   6.452
 8345TIP3    H124992   0.991   7.313   6.399
 8345TIP3    H224993   1.079   7.304   6.522
 8346TIP3   OH224994   0.877   1.899   2.251
 8346TIP3    H124995   0.837   1.887   2.337
 8346TIP3    H224996   0.902   1.811   2.224
 8347TIP3   OH224997   1.580   7.028   3.545
 8347TIP3    H124998   1.495   7.065   3.519
 8347TIP3    H224999   1.589   6.950   3.490
 8348TIP3   OH225000   3.216   7.782   6.650
 8348TIP3    H125001   3.297   7.731   6.647
 8348TIP3    H225002   3.220   7.837   6.572
 8349TIP3   OH225003   0.651   4.352   1.648
 8349TIP3    H125004   0.620   4.377   1.561
 8349TIP3    H225005   0.648   4.433   1.699
 8350TIP3   OH225006   4.897   0.688   6.111
 8350TIP3    H125007   4.962   0.668   6.179
 8350TIP3    H225008   4.947   0.690   6.029
 8351TIP3   OH225009   2.719   1.652   3.799
 8351TIP3    H125010   2.704   1.562   3.771
 8351TIP3    H225011   2.758   1.644   3.886
 8352TIP3   OH225012   0.881   5.940   0.908
 8352TIP3    H125013   0.942   5.866   0.908
 8352TIP3    H225014   0.911   5.996   0.979
 8353TIP3   OH225015   3.578   4.582   3.466
 8353TIP3    H125016   3.621   4.529   3.533
 8353TIP3    H225017   3.516   4.636   3.514
 8354TIP3   OH225018   0.718   0.628   0.770
 8354TIP3    H125019   0.659   0.662   0.838
 8354TIP3    H225020   0.693   0.536   0.761
 8355TIP3   OH225021   0.554   1.211   4.048
 8355TIP3    H125022   0.544   1.122   4.016
 8355TIP3    H225023   0.537   1.266   3.972
 8356TIP3   OH225024   1.578   6.225   0.837
 8356TIP3    H125025   1.520   6.153   0.864
 8356TIP3    H225026   1.666   6.188   0.843
 8357TIP3   OH225027   8.176   6.938   2.127
 8357TIP3    H125028   8.122   6.894   2.192
 8357TIP3    H225029   8.231   6.998   2.177
 8358TIP3   OH225030   5.059   0.263   4.848
 8358TIP3    H125031   5.122   0.214   4.796
 8358TIP3    H225032   5.036   0.338   4.793
 8359TIP3   OH225033   7.190   6.000   2.529
 8359TIP3    H125034   7.211   5.908   2.515
 8359TIP3    H225035   7.240   6.047   2.462
 8360TIP3   OH225036   3.096   3.523   0.742
 8360TIP3    H125037   3.048   3.570   0.673
 8360TIP3    H225038   3.034   3.519   0.815
 8361TIP3   OH225039   7.414   1.588   6.610
 8361TIP3    H125040   7.475   1.541   6.666
 8361TIP3    H225041   7.447   1.575   6.521
 8362TIP3   OH225042   2.283   3.958   4.629
 8362TIP3    H125043   2.312   3.978   4.540
 8362TIP3    H225044   2.363   3.928   4.674
 8363TIP3   OH225045   0.027   1.416   0.021
 8363TIP3    H125046   0.027   1.330   0.064
 8363TIP3    H225047   0.059   1.477   0.087
 8364TIP3   OH225048   8.179   3.303   1.117
 8364TIP3    H125049   8.242   3.253   1.065
 8364TIP3    H225050   8.100   3.249   1.118
 8365TIP3   OH225051   3.199   7.337   5.717
 8365TIP3    H125052   3.283   7.374   5.744
 8365TIP3    H225053   3.155   7.315   5.798
 8366TIP3   OH225054   6.363   6.104   6.414
 8366TIP3    H125055   6.345   6.057   6.332
 8366TIP3    H225056   6.421   6.175   6.389
 8367TIP3   OH225057   2.876   0.803   0.211
 8367TIP3    H125058   2.808   0.871   0.217
 8367TIP3    H225059   2.827   0.721   0.214
 8368TIP3   OH225060   0.715   6.409   3.278
 8368TIP3    H125061   0.645   6.440   3.221
 8368TIP3    H225062   0.755   6.336   3.231
 8369TIP3   OH225063   0.189   2.884   2.895
 8369TIP3    H125064   0.187   2.932   2.978
 8369TIP3    H225065   0.208   2.952   2.830
 8370TIP3   OH225066   6.524   4.407   3.396
 8370TIP3    H125067   6.547   4.322   3.357
 8370TIP3    H225068   6.484   4.456   3.325
 8371TIP3   OH225069   3.700   3.851   2.108
 8371TIP3    H125070   3.703   3.762   2.072
 8371TIP3    H225071   3.792   3.873   2.123
 8372TIP3   OH225072   5.051   7.477   0.995
 8372TIP3    H125073   5.016   7.513   0.914
 8372TIP3    H225074   5.059   7.552   1.054
 8373TIP3   OH225075   5.219   6.686   1.983
 8373TIP3    H125076   5.202   6.780   1.982
 8373TIP3    H225077   5.279   6.674   2.057
 8374TIP3   OH225078   7.763   7.165   4.791
 8374TIP3    H125079   7.799   7.150   4.878
 8374TIP3    H225080   7.761   7.260   4.782
 8375TIP3   OH225081   0.515   5.192   4.008
 8375TIP3    H125082   0.586   5.190   4.071
 8375TIP3    H225083   0.552   5.154   3.928
 8376TIP3   OH225084   6.881   4.391   6.676
 8376TIP3    H125085   6.860   4.451   6.605
 8376TIP3    H225086   6.866   4.304   6.639
 8377TIP3   OH225087   0.020   0.787   5.979
 8377TIP3    H125088   0.105   0.793   5.936
 8377TIP3    H225089  -0.002   0.877   6.002
 8378TIP3   OH225090   2.806   1.023   5.579
 8378TIP3    H125091   2.807   1.020   5.483
 8378TIP3    H225092   2.898   1.019   5.604
 8379TIP3   OH225093   1.990   5.300   3.546
 8379TIP3    H125094   1.914   5.341   3.504
 8379TIP3    H225095   2.058   5.367   3.543
 8380TIP3   OH225096   2.848   3.951   6.227
 8380TIP3    H125097   2.902   4.024   6.197
 8380TIP3    H225098   2.820   3.976   6.315
 8381TIP3   OH225099   5.237   7.433   0.285
 8381TIP3    H125100   5.175   7.411   0.216
 8381TIP3    H225101   5.302   7.488   0.243
 8382TIP3   OH225102   6.979   5.501   1.554
 8382TIP3    H125103   6.916   5.556   1.507
 8382TIP3    H225104   7.010   5.555   1.626
 8383TIP3   OH225105   1.932   6.012   3.710
 8383TIP3    H125106   2.023   5.993   3.735
 8383TIP3    H225107   1.879   5.957   3.767
 8384TIP3   OH225108   3.635   7.551   4.116
 8384TIP3    H125109   3.557   7.500   4.137
 8384TIP3    H225110   3.708   7.493   4.138
 8385TIP3   OH225111   1.762   2.588   4.865
 8385TIP3    H125112   1.793   2.586   4.774
 8385TIP3    H225113   1.717   2.505   4.877
 8386TIP3   OH225114   0.452   7.380   0.723
 8386TIP3    H125115   0.493   7.334   0.796
 8386TIP3    H225116   0.368   7.411   0.758
 8387TIP3   OH225117   7.273   7.791   4.952
 8387TIP3    H125118   7.203   7.854   4.963
 8387TIP3    H225119   7.280   7.778   4.857
 8388TIP3   OH225120   3.065   4.989   3.307
 8388TIP3    H125121   3.067   5.082   3.283
 8388TIP3    H225122   2.973   4.964   3.300
 8389TIP3   OH225123   6.051   4.760   3.364
 8389TIP3    H125124   6.115   4.692   3.344
 8389TIP3    H225125   6.067   4.782   3.456
 8390TIP3   OH225126   5.713   7.100   3.935
 8390TIP3    H125127   5.695   7.192   3.955
 8390TIP3    H225128   5.776   7.103   3.863
 8391TIP3   OH225129   8.055   4.251   4.825
 8391TIP3    H125130   8.022   4.181   4.881
 8391TIP3    H225131   7.979   4.283   4.778
 8392TIP3   OH225132   2.597   2.354   2.147
 8392TIP3    H125133   2.649   2.352   2.227
 8392TIP3    H225134   2.521   2.298   2.165
 8393TIP3   OH225135   6.637   4.762   0.491
 8393TIP3    H125136   6.668   4.672   0.485
 8393TIP3    H225137   6.712   4.815   0.463
 8394TIP3   OH225138   6.930   2.574   4.274
 8394TIP3    H125139   7.016   2.542   4.246
 8394TIP3    H225140   6.920   2.658   4.230
 8395TIP3   OH225141   6.679   3.873   4.908
 8395TIP3    H125142   6.653   3.782   4.892
 8395TIP3    H225143   6.764   3.882   4.864
 8396TIP3   OH225144   6.347   6.359   0.852
 8396TIP3    H125145   6.334   6.289   0.916
 8396TIP3    H225146   6.357   6.438   0.905
 8397TIP3   OH225147   3.787   0.689   3.394
 8397TIP3    H125148   3.840   0.693   3.315
 8397TIP3    H225149   3.750   0.600   3.394
 8398TIP3   OH225150   4.443   6.290   2.132
 8398TIP3    H125151   4.418   6.338   2.053
 8398TIP3    H225152   4.410   6.201   2.117
 8399TIP3   OH225153   0.887   3.799   1.064
 8399TIP3    H125154   0.937   3.817   1.144
 8399TIP3    H225155   0.871   3.705   1.066
 8400TIP3   OH225156   4.120   6.036   4.079
 8400TIP3    H125157   4.172   6.114   4.058
 8400TIP3    H225158   4.031   6.059   4.054
 8401TIP3   OH225159   3.673   2.314   3.209
 8401TIP3    H125160   3.759   2.350   3.232
 8401TIP3    H225161   3.618   2.336   3.285
 8402TIP3   OH225162   1.617   6.536   0.916
 8402TIP3    H125163   1.595   6.448   0.884
 8402TIP3    H225164   1.540   6.563   0.966
 8403TIP3   OH225165   3.900   1.269   0.947
 8403TIP3    H125166   3.815   1.226   0.954
 8403TIP3    H225167   3.897   1.338   1.013
 8404TIP3   OH225168   1.373   2.144   5.061
 8404TIP3    H125169   1.356   2.235   5.082
 8404TIP3    H225170   1.418   2.147   4.976
 8405TIP3   OH225171   5.060   2.072   2.654
 8405TIP3    H125172   5.000   2.023   2.597
 8405TIP3    H225173   5.126   2.107   2.595
 8406TIP3   OH225174   7.577   0.650   2.062
 8406TIP3    H125175   7.554   0.743   2.060
 8406TIP3    H225176   7.595   0.632   2.154
 8407TIP3   OH225177   2.046   6.223   6.342
 8407TIP3    H125178   2.139   6.234   6.365
 8407TIP3    H225179   2.019   6.308   6.310
 8408TIP3   OH225180   4.358   5.135   0.587
 8408TIP3    H125181   4.392   5.224   0.575
 8408TIP3    H225182   4.394   5.107   0.671
 8409TIP3   OH225183   6.543   0.748   4.067
 8409TIP3    H125184   6.492   0.701   4.001
 8409TIP3    H225185   6.492   0.739   4.148
 8410TIP3   OH225186   7.080   0.157   0.777
 8410TIP3    H125187   7.145   0.223   0.751
 8410TIP3    H225188   7.053   0.117   0.694
 8411TIP3   OH225189   7.946   1.168   3.542
 8411TIP3    H125190   7.967   1.169   3.635
 8411TIP3    H225191   7.871   1.227   3.534
 8412TIP3   OH225192   0.138   5.103   2.446
 8412TIP3    H125193   0.228   5.116   2.474
 8412TIP3    H225194   0.124   5.008   2.452
 8413TIP3   OH225195   2.387   6.633   0.750
 8413TIP3    H125196   2.391   6.678   0.834
 8413TIP3    H225197   2.425   6.547   0.767
 8414TIP3   OH225198   8.241   0.248   4.182
 8414TIP3    H125199   8.169   0.186   4.171
 8414TIP3    H225200   8.319   0.199   4.155
 8415TIP3   OH225201   1.107   1.781   3.368
 8415TIP3    H125202   1.124   1.702   3.419
 8415TIP3    H225203   1.188   1.797   3.321
 8416TIP3   OH225204   0.031   6.776   4.690
 8416TIP3    H125205   0.022   6.854   4.744
 8416TIP3    H225206   0.083   6.804   4.615
 8417TIP3   OH225207   7.613   1.118   4.373
 8417TIP3    H125208   7.635   1.128   4.465
 8417TIP3    H225209   7.559   1.039   4.369
 8418TIP3   OH225210   0.902   0.940   1.916
 8418TIP3    H125211   0.816   0.903   1.936
 8418TIP3    H225212   0.885   1.012   1.856
 8419TIP3   OH225213   3.838   4.776   5.630
 8419TIP3    H125214   3.807   4.755   5.542
 8419TIP3    H225215   3.801   4.707   5.685
 8420TIP3   OH225216   0.046   3.925   1.767
 8420TIP3    H125217   0.012   4.005   1.806
 8420TIP3    H225218  -0.031   3.877   1.738
 8421TIP3   OH225219   2.926   2.095   4.470
 8421TIP3    H125220   2.932   2.023   4.532
 8421TIP3    H225221   2.999   2.081   4.409
 8422TIP3   OH225222   7.667   5.043   4.089
 8422TIP3    H125223   7.573   5.032   4.075
 8422TIP3    H225224   7.684   4.999   4.173
 8423TIP3   OH225225   1.066   0.787   3.330
 8423TIP3    H125226   1.066   0.881   3.315
 8423TIP3    H225227   1.145   0.770   3.381
 8424TIP3   OH225228   2.997   0.930   5.115
 8424TIP3    H125229   2.950   1.013   5.110
 8424TIP3    H225230   3.079   0.946   5.067
 8425TIP3   OH225231   0.165   6.499   4.036
 8425TIP3    H125232   0.128   6.411   4.042
 8425TIP3    H225233   0.252   6.491   4.075
 8426TIP3   OH225234   0.880   5.745   2.090
 8426TIP3    H125235   0.961   5.752   2.040
 8426TIP3    H225236   0.897   5.793   2.171
 8427TIP3   OH225237   5.940   4.117   3.414
 8427TIP3    H125238   5.983   4.132   3.330
 8427TIP3    H225239   5.856   4.163   3.407
 8428TIP3   OH225240   6.637   2.204   1.084
 8428TIP3    H125241   6.728   2.182   1.102
 8428TIP3    H225242   6.596   2.121   1.060
 8429TIP3   OH225243   4.572   6.244   0.188
 8429TIP3    H125244   4.497   6.188   0.170
 8429TIP3    H225245   4.645   6.183   0.201
 8430TIP3   OH225246   0.813   5.372   2.288
 8430TIP3    H125247   0.890   5.426   2.305
 8430TIP3    H225248   0.801   5.320   2.367
 8431TIP3   OH225249   6.330   6.269   5.980
 8431TIP3    H125250   6.267   6.198   5.993
 8431TIP3    H225251   6.329   6.285   5.886
 8432TIP3   OH225252   4.544   2.900   0.840
 8432TIP3    H125253   4.490   2.905   0.918
 8432TIP3    H225254   4.626   2.943   0.864
 8433TIP3   OH225255   5.546   5.216   0.759
 8433TIP3    H125256   5.516   5.305   0.775
 8433TIP3    H225257   5.639   5.217   0.781
 8434TIP3   OH225258   0.811   0.683   3.299
 8434TIP3    H125259   0.748   0.749   3.328
 8434TIP3    H225260   0.897   0.722   3.317
 8435TIP3   OH225261   0.328   5.894   1.931
 8435TIP3    H125262   0.341   5.921   2.022
 8435TIP3    H225263   0.262   5.825   1.936
 8436TIP3   OH225264   5.626   1.490   2.792
 8436TIP3    H125265   5.557   1.550   2.762
 8436TIP3    H225266   5.641   1.431   2.719
 8437TIP3   OH225267   7.800   6.400   3.451
 8437TIP3    H125268   7.875   6.348   3.423
 8437TIP3    H225269   7.835   6.487   3.466
 8438TIP3   OH225270   6.086   2.065   4.754
 8438TIP3    H125271   5.995   2.066   4.725
 8438TIP3    H225272   6.136   2.091   4.677
 8439TIP3   OH225273   3.099   2.703   5.132
 8439TIP3    H125274   3.052   2.644   5.073
 8439TIP3    H225275   3.187   2.707   5.097
 8440TIP3   OH225276   7.515   6.775   2.202
 8440TIP3    H125277   7.443   6.824   2.163
 8440TIP3    H225278   7.585   6.839   2.212
 8441TIP3   OH225279   1.696   3.905   4.939
 8441TIP3    H125280   1.625   3.932   4.997
 8441TIP3    H225281   1.658   3.834   4.886
 8442TIP3   OH225282   6.986   5.992   0.524
 8442TIP3    H125283   7.011   6.084   0.534
 8442TIP3    H225284   7.066   5.943   0.543
 8443TIP3   OH225285   5.728   4.614   6.423
 8443TIP3    H125286   5.682   4.599   6.505
 8443TIP3    H225287   5.815   4.575   6.437
 8444TIP3   OH225288   6.028   7.208   2.820
 8444TIP3    H125289   6.038   7.148   2.893
 8444TIP3    H225290   6.024   7.295   2.860
 8445TIP3   OH225291   3.235   6.403   4.176
 8445TIP3    H125292   3.176   6.382   4.104
 8445TIP3    H225293   3.298   6.465   4.139
 8446TIP3   OH225294   5.512   3.789   4.863
 8446TIP3    H125295   5.538   3.878   4.840
 8446TIP3    H225296   5.450   3.800   4.936
 8447TIP3   OH225297   1.763   7.822   5.565
 8447TIP3    H125298   1.701   7.764   5.610
 8447TIP3    H225299   1.849   7.792   5.596
 8448TIP3   OH225300   2.131   2.780   6.084
 8448TIP3    H125301   2.123   2.685   6.075
 8448TIP3    H225302   2.207   2.792   6.140
 8449TIP3   OH225303   2.354   5.145   6.635
 8449TIP3    H125304   2.282   5.179   6.583
 8449TIP3    H225305   2.335   5.173   6.724
 8450TIP3   OH225306   0.099   3.289   0.814
 8450TIP3    H125307   0.051   3.369   0.792
 8450TIP3    H225308   0.162   3.316   0.880
 8451TIP3   OH225309   1.521   3.113   6.562
 8451TIP3    H125310   1.508   3.189   6.620
 8451TIP3    H225311   1.610   3.084   6.580
 8452TIP3   OH225312   7.791   1.783   3.554
 8452TIP3    H125313   7.884   1.781   3.577
 8452TIP3    H225314   7.749   1.829   3.627
 8453TIP3   OH225315   1.300   3.165   5.071
 8453TIP3    H125316   1.238   3.221   5.024
 8453TIP3    H225317   1.277   3.076   5.045
 8454TIP3   OH225318   5.181   4.621   3.189
 8454TIP3    H125319   5.169   4.660   3.102
 8454TIP3    H225320   5.233   4.686   3.237
 8455TIP3   OH225321   1.430   2.028   1.027
 8455TIP3    H125322   1.505   1.974   1.053
 8455TIP3    H225323   1.421   2.092   1.097
 8456TIP3   OH225324   6.180   3.668   2.047
 8456TIP3    H125325   6.153   3.675   1.956
 8456TIP3    H225326   6.243   3.739   2.059
 8457TIP3   OH225327   6.103   4.863   0.835
 8457TIP3    H125328   6.107   4.948   0.879
 8457TIP3    H225329   6.018   4.827   0.861
 8458TIP3   OH225330   6.392   0.153   0.583
 8458TIP3    H125331   6.314   0.186   0.539
 8458TIP3    H225332   6.465   0.199   0.541
 8459TIP3   OH225333   2.382   0.988   0.507
 8459TIP3    H125334   2.412   1.078   0.501
 8459TIP3    H225335   2.326   0.977   0.430
 8460TIP3   OH225336   1.419   3.996   6.194
 8460TIP3    H125337   1.383   4.082   6.176
 8460TIP3    H225338   1.466   4.006   6.277
 8461TIP3   OH225339   3.110   0.740   5.506
 8461TIP3    H125340   3.097   0.683   5.582
 8461TIP3    H225341   3.178   0.698   5.455
 8462TIP3   OH225342   5.132   6.941   4.908
 8462TIP3    H125343   5.155   6.850   4.925
 8462TIP3    H225344   5.156   6.988   4.988
 8463TIP3   OH225345   4.314   7.446   0.553
 8463TIP3    H125346   4.238   7.474   0.604
 8463TIP3    H225347   4.384   7.434   0.617
 8464TIP3   OH225348   1.661   2.028   5.637
 8464TIP3    H125349   1.686   2.049   5.548
 8464TIP3    H225350   1.659   2.112   5.683
 8465TIP3   OH225351   3.531   4.869   6.313
 8465TIP3    H125352   3.443   4.860   6.277
 8465TIP3    H225353   3.532   4.810   6.389
 8466TIP3   OH225354   7.555   2.266   6.280
 8466TIP3    H125355   7.549   2.272   6.185
 8466TIP3    H225356   7.645   2.240   6.297
 8467TIP3   OH225357   2.798   6.932   0.100
 8467TIP3    H125358   2.863   6.988   0.057
 8467TIP3    H225359   2.843   6.899   0.177
 8468TIP3   OH225360   6.195   6.640   2.863
 8468TIP3    H125361   6.133   6.575   2.897
 8468TIP3    H225362   6.209   6.614   2.772
 8469TIP3   OH225363   4.923   5.659   6.178
 8469TIP3    H125364   4.975   5.650   6.258
 8469TIP3    H225365   4.869   5.737   6.193
 8470TIP3   OH225366   1.372   6.432   4.927
 8470TIP3    H125367   1.310   6.406   4.995
 8470TIP3    H225368   1.457   6.402   4.960
 8471TIP3   OH225369   1.588   1.373   0.339
 8471TIP3    H125370   1.642   1.315   0.393
 8471TIP3    H225371   1.569   1.322   0.261
 8472TIP3   OH225372   1.546   5.490   4.041
 8472TIP3    H125373   1.611   5.420   4.040
 8472TIP3    H225374   1.465   5.447   4.068
 8473TIP3   OH225375   3.752   7.356   1.533
 8473TIP3    H125376   3.753   7.268   1.494
 8473TIP3    H225377   3.723   7.414   1.463
 8474TIP3   OH225378   3.957   5.212   6.454
 8474TIP3    H125379   4.011   5.255   6.388
 8474TIP3    H225380   4.017   5.153   6.500
 8475TIP3   OH225381   3.214   1.183   0.751
 8475TIP3    H125382   3.229   1.218   0.838
 8475TIP3    H225383   3.139   1.232   0.718
 8476TIP3   OH225384   5.201   2.203   6.504
 8476TIP3    H125385   5.181   2.232   6.593
 8476TIP3    H225386   5.277   2.255   6.478
 8477TIP3   OH225387   0.423   6.912   0.939
 8477TIP3    H125388   0.435   6.913   1.034
 8477TIP3    H225389   0.362   6.841   0.923
 8478TIP3   OH225390   4.487   2.005   5.528
 8478TIP3    H125391   4.561   2.045   5.574
 8478TIP3    H225392   4.470   1.924   5.576
 8479TIP3   OH225393   4.597   2.187   0.525
 8479TIP3    H125394   4.563   2.108   0.484
 8479TIP3    H225395   4.685   2.197   0.490
 8480TIP3   OH225396   1.376   2.766   1.430
 8480TIP3    H125397   1.456   2.790   1.383
 8480TIP3    H225398   1.358   2.842   1.486
 8481TIP3   OH225399   7.781   6.881   6.597
 8481TIP3    H125400   7.828   6.836   6.527
 8481TIP3    H225401   7.714   6.819   6.625
 8482TIP3   OH225402   3.957   0.125   2.099
 8482TIP3    H125403   3.962   0.165   2.186
 8482TIP3    H225404   3.888   0.060   2.106
 8483TIP3   OH225405   6.276   3.559   0.432
 8483TIP3    H125406   6.304   3.638   0.386
 8483TIP3    H225407   6.180   3.562   0.429
 8484TIP3   OH225408   1.560   1.545   5.556
 8484TIP3    H125409   1.527   1.547   5.467
 8484TIP3    H225410   1.485   1.567   5.610
 8485TIP3   OH225411   4.617   1.583   2.926
 8485TIP3    H125412   4.662   1.500   2.945
 8485TIP3    H225413   4.563   1.564   2.849
 8486TIP3   OH225414   4.375   2.983   3.715
 8486TIP3    H125415   4.323   2.916   3.759
 8486TIP3    H225416   4.371   3.059   3.773
 8487TIP3   OH225417   2.862   6.472   4.155
 8487TIP3    H125418   2.902   6.419   4.224
 8487TIP3    H225419   2.789   6.517   4.199
 8488TIP3   OH225420   6.129   2.050   6.665
 8488TIP3    H125421   6.044   2.037   6.707
 8488TIP3    H225422   6.110   2.056   6.572
 8489TIP3   OH225423   0.632   1.850   2.751
 8489TIP3    H125424   0.676   1.936   2.746
 8489TIP3    H225425   0.686   1.800   2.812
 8490TIP3   OH225426   1.594   5.848   2.465
 8490TIP3    H125427   1.567   5.939   2.468
 8490TIP3    H225428   1.611   5.831   2.372
 8491TIP3   OH225429   7.140   2.196   0.956
 8491TIP3    H125430   7.178   2.198   0.869
 8491TIP3    H225431   7.128   2.103   0.975
 8492TIP3   OH225432   2.708   1.323   5.996
 8492TIP3    H125433   2.782   1.323   6.057
 8492TIP3    H225434   2.649   1.256   6.031
 8493TIP3   OH225435   1.925   5.944   6.271
 8493TIP3    H125436   1.987   5.962   6.201
 8493TIP3    H225437   1.886   5.859   6.248
 8494TIP3   OH225438   2.472   7.157   5.083
 8494TIP3    H125439   2.407   7.087   5.087
 8494TIP3    H225440   2.490   7.178   5.175
 8495TIP3   OH225441   3.898   6.071   4.620
 8495TIP3    H125442   3.957   5.995   4.618
 8495TIP3    H225443   3.828   6.046   4.680
 8496TIP3   OH225444   7.719   6.361   4.199
 8496TIP3    H125445   7.722   6.270   4.230
 8496TIP3    H225446   7.743   6.413   4.275
 8497TIP3   OH225447   2.123   6.412   3.077
 8497TIP3    H125448   2.184   6.363   3.132
 8497TIP3    H225449   2.105   6.492   3.127
 8498TIP3   OH225450   5.205   5.142   6.441
 8498TIP3    H125451   5.132   5.176   6.389
 8498TIP3    H225452   5.183   5.165   6.531
 8499TIP3   OH225453   7.771   5.465   2.490
 8499TIP3    H125454   7.782   5.436   2.400
 8499TIP3    H225455   7.846   5.522   2.506
 8500TIP3   OH225456   7.493   7.266   3.656
 8500TIP3    H125457   7.498   7.195   3.720
 8500TIP3    H225458   7.401   7.290   3.654
 8501TIP3   OH225459   0.757   1.494   2.821
 8501TIP3    H125460   0.830   1.550   2.794
 8501TIP3    H225461   0.725   1.456   2.740
 8502TIP3   OH225462   4.791   4.783   2.642
 8502TIP3    H125463   4.772   4.834   2.563
 8502TIP3    H225464   4.762   4.694   2.622
 8503TIP3   OH225465   4.379   2.223   2.186
 8503TIP3    H125466   4.414   2.309   2.164
 8503TIP3    H225467   4.454   2.164   2.181
 8504TIP3   OH225468   2.946   7.016   4.867
 8504TIP3    H125469   2.863   7.063   4.875
 8504TIP3    H225470   3.013   7.085   4.873
 8505TIP3   OH225471  -0.003   5.149   6.223
 8505TIP3    H125472  -0.002   5.054   6.214
 8505TIP3    H225473   0.016   5.165   6.316
 8506TIP3   OH225474   6.373   0.824   1.751
 8506TIP3    H125475   6.290   0.828   1.799
 8506TIP3    H225476   6.390   0.730   1.741
 8507TIP3   OH225477   7.773   1.006   2.543
 8507TIP3    H125478   7.757   1.008   2.449
 8507TIP3    H225479   7.687   0.991   2.582
 8508TIP3   OH225480   1.892   3.834   1.481
 8508TIP3    H125481   1.829   3.904   1.460
 8508TIP3    H225482   1.916   3.796   1.397
 8509TIP3   OH225483   7.271   7.078   1.607
 8509TIP3    H125484   7.343   7.038   1.559
 8509TIP3    H225485   7.268   7.168   1.575
 8510TIP3   OH225486   1.864   0.270   5.091
 8510TIP3    H125487   1.930   0.338   5.081
 8510TIP3    H225488   1.827   0.259   5.004
 8511TIP3   OH225489   4.822   0.166   3.208
 8511TIP3    H125490   4.849   0.130   3.124
 8511TIP3    H225491   4.904   0.178   3.256
 8512TIP3   OH225492   2.655   6.083   0.502
 8512TIP3    H125493   2.652   6.174   0.473
 8512TIP3    H225494   2.716   6.041   0.441
 8513TIP3   OH225495   1.983   0.343   3.577
 8513TIP3    H125496   1.941   0.416   3.622
 8513TIP3    H225497   2.022   0.290   3.648
 8514TIP3   OH225498   6.735   1.287   2.651
 8514TIP3    H125499   6.685   1.337   2.716
 8514TIP3    H225500   6.693   1.201   2.648
 8515TIP3   OH225501   7.464   1.246   5.591
 8515TIP3    H125502   7.477   1.301   5.514
 8515TIP3    H225503   7.382   1.199   5.573
 8516TIP3   OH225504   7.468   7.692   1.796
 8516TIP3    H125505   7.475   7.598   1.811
 8516TIP3    H225506   7.545   7.729   1.838
 8517TIP3   OH225507   2.998   6.215   1.140
 8517TIP3    H125508   2.978   6.164   1.062
 8517TIP3    H225509   2.949   6.297   1.128
 8518TIP3   OH225510   3.958   3.382   6.598
 8518TIP3    H125511   3.904   3.342   6.531
 8518TIP3    H225512   4.001   3.308   6.641
 8519TIP3   OH225513   3.383   7.704   6.331
 8519TIP3    H125514   3.369   7.643   6.258
 8519TIP3    H225515   3.378   7.650   6.409
 8520TIP3   OH225516   4.545   7.131   0.120
 8520TIP3    H125517   4.544   7.147   0.214
 8520TIP3    H225518   4.453   7.116   0.097
 8521TIP3   OH225519   7.283   4.775   5.271
 8521TIP3    H125520   7.315   4.688   5.249
 8521TIP3    H225521   7.338   4.803   5.345
 8522TIP3   OH225522   2.379   6.462   3.468
 8522TIP3    H125523   2.315   6.494   3.531
 8522TIP3    H225524   2.455   6.437   3.521
 8523TIP3   OH225525   2.071   2.270   0.648
 8523TIP3    H125526   2.024   2.338   0.697
 8523TIP3    H225527   2.108   2.213   0.716
 8524TIP3   OH225528   4.834   3.279   0.556
 8524TIP3    H125529   4.752   3.256   0.599
 8524TIP3    H225530   4.897   3.216   0.590
 8525TIP3   OH225531   3.981   4.460   4.273
 8525TIP3    H125532   3.983   4.505   4.358
 8525TIP3    H225533   4.067   4.420   4.265
 8526TIP3   OH225534   5.112   3.500   1.336
 8526TIP3    H125535   5.101   3.595   1.327
 8526TIP3    H225536   5.194   3.481   1.291
 8527TIP3   OH225537   2.807   0.048   1.357
 8527TIP3    H125538   2.780   0.038   1.266
 8527TIP3    H225539   2.732   0.021   1.408
 8528TIP3   OH225540   0.155   2.054   5.710
 8528TIP3    H125541   0.136   2.146   5.728
 8528TIP3    H225542   0.072   2.009   5.724
 8529TIP3   OH225543   3.570   3.925   5.873
 8529TIP3    H125544   3.658   3.951   5.899
 8529TIP3    H225545   3.577   3.830   5.857
 8530TIP3   OH225546   5.922   0.025   1.185
 8530TIP3    H125547   5.832   0.050   1.203
 8530TIP3    H225548   5.923   0.003   1.092
 8531TIP3   OH225549   4.707   5.299   1.244
 8531TIP3    H125550   4.786   5.329   1.289
 8531TIP3    H225551   4.738   5.230   1.186
 8532TIP3   OH225552   6.494   6.358   2.885
 8532TIP3    H125553   6.465   6.342   2.975
 8532TIP3    H225554   6.570   6.301   2.874
 8533TIP3   OH225555   7.495   5.142   2.299
 8533TIP3    H125556   7.453   5.123   2.383
 8533TIP3    H225557   7.552   5.067   2.283
 8534TIP3   OH225558   8.197   4.855   4.024
 8534TIP3    H125559   8.243   4.773   4.009
 8534TIP3    H225560   8.252   4.922   3.983
 8535TIP3   OH225561   1.936   4.059   5.552
 8535TIP3    H125562   1.983   4.119   5.610
 8535TIP3    H225563   1.915   4.112   5.475
 8536TIP3   OH225564   0.184   1.286   0.567
 8536TIP3    H125565   0.123   1.353   0.534
 8536TIP3    H225566   0.268   1.308   0.525
 8537TIP3   OH225567   7.145   5.357   6.281
 8537TIP3    H125568   7.234   5.384   6.304
 8537TIP3    H225569   7.093   5.438   6.284
 8538TIP3   OH225570   2.067   4.794   2.600
 8538TIP3    H125571   1.975   4.773   2.587
 8538TIP3    H225572   2.112   4.709   2.598
 8539TIP3   OH225573   0.929   2.221   5.128
 8539TIP3    H125574   0.863   2.291   5.123
 8539TIP3    H225575   0.891   2.150   5.076
 8540TIP3   OH225576   1.644   3.060   3.570
 8540TIP3    H125577   1.556   3.049   3.535
 8540TIP3    H225578   1.694   3.099   3.498
 8541TIP3   OH225579   5.965   2.579   1.856
 8541TIP3    H125580   6.039   2.568   1.796
 8541TIP3    H225581   6.000   2.558   1.943
 8542TIP3   OH225582   2.501   5.455   2.730
 8542TIP3    H125583   2.480   5.362   2.743
 8542TIP3    H225584   2.596   5.458   2.725
 8543TIP3   OH225585   2.730   1.411   0.607
 8543TIP3    H125586   2.713   1.484   0.548
 8543TIP3    H225587   2.646   1.393   0.649
 8544TIP3   OH225588   1.821   3.189   6.184
 8544TIP3    H125589   1.864   3.217   6.103
 8544TIP3    H225590   1.883   3.127   6.222
 8545TIP3   OH225591   3.337   1.971   0.720
 8545TIP3    H125592   3.402   2.041   0.722
 8545TIP3    H225593   3.305   1.966   0.810
 8546TIP3   OH225594   8.163   6.978   5.919
 8546TIP3    H125595   8.195   6.953   5.833
 8546TIP3    H225596   8.224   7.046   5.948
 8547TIP3   OH225597   1.344   3.392   2.785
 8547TIP3    H125598   1.428   3.381   2.740
 8547TIP3    H225599   1.283   3.418   2.716
 8548TIP3   OH225600   2.146   3.233   0.395
 8548TIP3    H125601   2.094   3.310   0.420
 8548TIP3    H225602   2.196   3.261   0.319
 8549TIP3   OH225603   3.216   1.515   4.338
 8549TIP3    H125604   3.136   1.488   4.294
 8549TIP3    H225605   3.282   1.453   4.308
 8550TIP3   OH225606   4.720   4.998   5.237
 8550TIP3    H125607   4.673   5.081   5.227
 8550TIP3    H225608   4.716   4.959   5.150
 8551TIP3   OH225609   3.725   4.425   4.908
 8551TIP3    H125610   3.758   4.513   4.895
 8551TIP3    H225611   3.632   4.437   4.931
 8552TIP3   OH225612   5.099   2.631   2.300
 8552TIP3    H125613   5.086   2.660   2.391
 8552TIP3    H225614   5.182   2.673   2.274
 8553TIP3   OH225615   4.559   0.729   4.598
 8553TIP3    H125616   4.508   0.693   4.671
 8553TIP3    H225617   4.542   0.670   4.525
 8554TIP3   OH225618   1.763   0.253   6.458
 8554TIP3    H125619   1.795   0.342   6.449
 8554TIP3    H225620   1.840   0.202   6.484
 8555TIP3   OH225621   7.139   5.716   4.597
 8555TIP3    H125622   7.152   5.661   4.519
 8555TIP3    H225623   7.203   5.786   4.589
 8556TIP3   OH225624   0.311   2.326   0.768
 8556TIP3    H125625   0.274   2.243   0.798
 8556TIP3    H225626   0.372   2.302   0.698
 8557TIP3   OH225627   0.488   6.596   5.863
 8557TIP3    H125628   0.487   6.590   5.958
 8557TIP3    H225629   0.401   6.565   5.836
 8558TIP3   OH225630   5.803   7.116   6.623
 8558TIP3    H125631   5.825   7.060   6.698
 8558TIP3    H225632   5.798   7.057   6.549
 8559TIP3   OH225633   4.703   7.106   3.927
 8559TIP3    H125634   4.662   7.033   3.880
 8559TIP3    H225635   4.796   7.083   3.930
 8560TIP3   OH225636   6.316   2.932   3.662
 8560TIP3    H125637   6.410   2.920   3.671
 8560TIP3    H225638   6.305   2.974   3.576
 8561TIP3   OH225639   3.936   7.089   2.687
 8561TIP3    H125640   3.887   7.009   2.667
 8561TIP3    H225641   3.990   7.104   2.609
 8562TIP3   OH225642   0.647   5.077   3.774
 8562TIP3    H125643   0.586   5.141   3.736
 8562TIP3    H225644   0.734   5.112   3.753
 8563TIP3   OH225645   8.254   4.060   5.569
 8563TIP3    H125646   8.340   4.088   5.538
 8563TIP3    H225647   8.200   4.139   5.568
 8564TIP3   OH225648   2.450   0.224   1.186
 8564TIP3    H125649   2.434   0.161   1.115
 8564TIP3    H225650   2.462   0.308   1.141
 8565TIP3   OH225651   7.974   5.669   2.468
 8565TIP3    H125652   7.940   5.707   2.387
 8565TIP3    H225653   7.999   5.745   2.522
 8566TIP3   OH225654   1.995   5.904   4.933
 8566TIP3    H125655   2.053   5.925   5.006
 8566TIP3    H225656   2.048   5.848   4.876
 8567TIP3   OH225657   1.380   2.063   3.115
 8567TIP3    H125658   1.421   2.118   3.049
 8567TIP3    H225659   1.349   2.124   3.181
 8568TIP3   OH225660   3.746   4.877   1.082
 8568TIP3    H125661   3.786   4.876   0.995
 8568TIP3    H225662   3.696   4.795   1.087
 8569TIP3   OH225663   7.646   1.311   1.105
 8569TIP3    H125664   7.726   1.360   1.087
 8569TIP3    H225665   7.676   1.223   1.129
 8570TIP3   OH225666   0.629   5.640   2.661
 8570TIP3    H125667   0.723   5.626   2.650
 8570TIP3    H225668   0.601   5.684   2.580
 8571TIP3   OH225669   1.567   2.659   6.734
 8571TIP3    H125670   1.516   2.733   6.702
 8571TIP3    H225671   1.564   2.668   6.830
 8572TIP3   OH225672   4.246   1.674   4.445
 8572TIP3    H125673   4.308   1.634   4.506
 8572TIP3    H225674   4.186   1.723   4.501
 8573TIP3   OH225675   4.410   5.696   6.621
 8573TIP3    H125676   4.431   5.660   6.535
 8573TIP3    H225677   4.403   5.790   6.606
 8574TIP3   OH225678   6.892   2.861   5.249
 8574TIP3    H125679   6.963   2.874   5.186
 8574TIP3    H225680   6.896   2.937   5.306
 8575TIP3   OH225681   6.034   1.698   5.152
 8575TIP3    H125682   6.129   1.703   5.163
 8575TIP3    H225683   6.014   1.605   5.162
 8576TIP3   OH225684   2.392   0.694   1.727
 8576TIP3    H125685   2.435   0.671   1.810
 8576TIP3    H225686   2.460   0.682   1.661
 8577TIP3   OH225687   2.229   7.514   2.052
 8577TIP3    H125688   2.299   7.448   2.047
 8577TIP3    H225689   2.266   7.592   2.010
 8578TIP3   OH225690   3.275   0.408   2.992
 8578TIP3    H125691   3.291   0.448   2.907
 8578TIP3    H225692   3.247   0.481   3.048
 8579TIP3   OH225693   5.324   0.664   3.659
 8579TIP3    H125694   5.346   0.712   3.739
 8579TIP3    H225695   5.244   0.706   3.628
 8580TIP3   OH225696   2.359   7.663   5.639
 8580TIP3    H125697   2.272   7.690   5.609
 8580TIP3    H225698   2.347   7.645   5.733
 8581TIP3   OH225699   6.331   0.977   2.682
 8581TIP3    H125700   6.255   0.930   2.649
 8581TIP3    H225701   6.341   0.946   2.772
 8582TIP3   OH225702   3.516   7.004  -0.026
 8582TIP3    H125703   3.526   7.023   0.067
 8582TIP3    H225704   3.501   7.090  -0.066
 8583TIP3   OH225705   2.808   2.474   5.406
 8583TIP3    H125706   2.880   2.529   5.435
 8583TIP3    H225707   2.817   2.471   5.311
 8584TIP3   OH225708   0.809   3.459   5.744
 8584TIP3    H125709   0.771   3.540   5.779
 8584TIP3    H225710   0.733   3.402   5.728
 8585TIP3   OH225711   1.893   7.637   0.107
 8585TIP3    H125712   1.798   7.643   0.100
 8585TIP3    H225713   1.909   7.554   0.153
 8586TIP3   OH225714   6.573   5.478   6.558
 8586TIP3    H125715   6.619   5.399   6.587
 8586TIP3    H225716   6.620   5.550   6.600
 8587TIP3   OH225717   4.969   5.174   5.163
 8587TIP3    H125718   4.928   5.142   5.083
 8587TIP3    H225719   4.911   5.145   5.234
 8588TIP3   OH225720   3.013   2.604   2.339
 8588TIP3    H125721   3.028   2.510   2.329
 8588TIP3    H225722   3.045   2.624   2.427
 8589TIP3   OH225723   2.097   1.256   6.024
 8589TIP3    H125724   2.093   1.223   5.934
 8589TIP3    H225725   2.078   1.179   6.078
 8590TIP3   OH225726   0.739   0.951   1.543
 8590TIP3    H125727   0.766   1.038   1.574
 8590TIP3    H225728   0.647   0.963   1.517
 8591TIP3   OH225729   0.710   1.569   6.220
 8591TIP3    H125730   0.733   1.514   6.145
 8591TIP3    H225731   0.779   1.636   6.222
 8592TIP3   OH225732   7.626   7.720   0.420
 8592TIP3    H125733   7.561   7.788   0.401
 8592TIP3    H225734   7.706   7.752   0.377
 8593TIP3   OH225735   1.088   4.979   1.294
 8593TIP3    H125736   1.013   4.924   1.272
 8593TIP3    H225737   1.165   4.924   1.280
 8594TIP3   OH225738   5.613   1.799   3.378
 8594TIP3    H125739   5.705   1.775   3.373
 8594TIP3    H225740   5.605   1.849   3.460
 8595TIP3   OH225741   5.349   5.810   5.804
 8595TIP3    H125742   5.431   5.763   5.793
 8595TIP3    H225743   5.281   5.746   5.783
 8596TIP3   OH225744   8.017   2.391   3.092
 8596TIP3    H125745   8.093   2.370   3.146
 8596TIP3    H225746   8.053   2.441   3.019
 8597TIP3   OH225747   4.463   6.113   2.419
 8597TIP3    H125748   4.488   6.049   2.485
 8597TIP3    H225749   4.369   6.122   2.429
 8598TIP3   OH225750   1.628   0.149   3.745
 8598TIP3    H125751   1.648   0.241   3.727
 8598TIP3    H225752   1.549   0.152   3.799
 8599TIP3   OH225753   2.927   2.443   0.528
 8599TIP3    H125754   2.960   2.357   0.503
 8599TIP3    H225755   2.883   2.429   0.612
 8600TIP3   OH225756   2.512   5.568   4.644
 8600TIP3    H125757   2.606   5.586   4.647
 8600TIP3    H225758   2.472   5.655   4.641
 8601TIP3   OH225759   6.371   4.851   1.371
 8601TIP3    H125760   6.342   4.936   1.403
 8601TIP3    H225761   6.348   4.851   1.278
 8602TIP3   OH225762   3.166   0.850   0.715
 8602TIP3    H125763   3.197   0.828   0.627
 8602TIP3    H225764   3.246   0.859   0.767
 8603TIP3   OH225765   4.439   1.224   6.341
 8603TIP3    H125766   4.436   1.224   6.246
 8603TIP3    H225767   4.523   1.185   6.364
 8604TIP3   OH225768   4.189   5.094   3.462
 8604TIP3    H125769   4.249   5.076   3.390
 8604TIP3    H225770   4.241   5.079   3.541
 8605TIP3   OH225771   6.608   3.702   5.797
 8605TIP3    H125772   6.608   3.779   5.854
 8605TIP3    H225773   6.657   3.636   5.845
 8606TIP3   OH225774   4.300   4.866   2.152
 8606TIP3    H125775   4.231   4.920   2.114
 8606TIP3    H225776   4.362   4.929   2.190
 8607TIP3   OH225777   0.780   0.976   2.317
 8607TIP3    H125778   0.729   1.036   2.263
 8607TIP3    H225779   0.730   0.894   2.316
 8608TIP3   OH225780   7.341   1.743   5.018
 8608TIP3    H125781   7.301   1.678   5.076
 8608TIP3    H225782   7.376   1.692   4.945
 8609TIP3   OH225783   7.953   0.585   3.954
 8609TIP3    H125784   8.036   0.631   3.938
 8609TIP3    H225785   7.960   0.506   3.901
 8610TIP3   OH225786   4.376   4.461   6.771
 8610TIP3    H125787   4.466   4.448   6.741
 8610TIP3    H225788   4.356   4.381   6.820
 8611TIP3   OH225789   3.986   2.342   4.374
 8611TIP3    H125790   3.954   2.419   4.421
 8611TIP3    H225791   3.915   2.278   4.380
 8612TIP3   OH225792   0.079   3.144   1.602
 8612TIP3    H125793   0.033   3.158   1.519
 8612TIP3    H225794   0.107   3.231   1.629
 8613TIP3   OH225795   6.862   3.188   4.860
 8613TIP3    H125796   6.816   3.105   4.876
 8613TIP3    H225797   6.931   3.165   4.797
 8614TIP3   OH225798   4.485   4.199   1.145
 8614TIP3    H125799   4.399   4.173   1.111
 8614TIP3    H225800   4.508   4.276   1.094
 8615TIP3   OH225801   4.391   0.334   2.708
 8615TIP3    H125802   4.417   0.363   2.621
 8615TIP3    H225803   4.321   0.271   2.692
 8616TIP3   OH225804   0.153   7.148   3.069
 8616TIP3    H125805   0.105   7.083   3.122
 8616TIP3    H225806   0.102   7.229   3.080
 8617TIP3   OH225807   6.007   0.165   0.155
 8617TIP3    H125808   5.980   0.127   0.072
 8617TIP3    H225809   5.958   0.246   0.162
 8618TIP3   OH225810   3.676   6.221   3.488
 8618TIP3    H125811   3.633   6.142   3.521
 8618TIP3    H225812   3.636   6.237   3.402
 8619TIP3   OH225813   5.269   7.339   2.811
 8619TIP3    H125814   5.258   7.426   2.772
 8619TIP3    H225815   5.356   7.341   2.850
 8620TIP3   OH225816   6.984   2.304   5.415
 8620TIP3    H125817   7.030   2.318   5.332
 8620TIP3    H225818   7.015   2.375   5.471
 8621TIP3   OH225819   2.732   5.704   2.102
 8621TIP3    H125820   2.718   5.635   2.036
 8621TIP3    H225821   2.761   5.779   2.051
 8622TIP3   OH225822   6.744   5.813   1.135
 8622TIP3    H125823   6.807   5.883   1.117
 8622TIP3    H225824   6.662   5.859   1.154
 8623TIP3   OH225825   0.287   7.747   3.374
 8623TIP3    H125826   0.320   7.752   3.285
 8623TIP3    H225827   0.338   7.678   3.415
 8624TIP3   OH225828   2.027   0.166   1.420
 8624TIP3    H125829   1.966   0.204   1.357
 8624TIP3    H225830   2.099   0.132   1.366
 8625TIP3   OH225831   1.337   2.466   6.570
 8625TIP3    H125832   1.403   2.522   6.530
 8625TIP3    H225833   1.306   2.410   6.498
 8626TIP3   OH225834   6.596   0.515   5.839
 8626TIP3    H125835   6.500   0.519   5.843
 8626TIP3    H225836   6.621   0.590   5.785
 8627TIP3   OH225837   3.579   6.777   2.807
 8627TIP3    H125838   3.588   6.691   2.766
 8627TIP3    H225839   3.499   6.771   2.859
 8628TIP3   OH225840   3.261   5.849   5.311
 8628TIP3    H125841   3.267   5.782   5.380
 8628TIP3    H225842   3.352   5.876   5.296
 8629TIP3   OH225843   3.651   5.731   6.312
 8629TIP3    H125844   3.698   5.806   6.348
 8629TIP3    H225845   3.569   5.768   6.278
 8630TIP3   OH225846   3.781   5.808   4.088
 8630TIP3    H125847   3.715   5.876   4.100
 8630TIP3    H225848   3.822   5.829   4.004
 8631TIP3   OH225849   6.889   4.345   5.341
 8631TIP3    H125850   6.860   4.306   5.259
 8631TIP3    H225851   6.889   4.272   5.404
 8632TIP3   OH225852   6.358   0.673   5.675
 8632TIP3    H125853   6.452   0.685   5.666
 8632TIP3    H225854   6.324   0.678   5.586
 8633TIP3   OH225855   6.798   2.862   1.746
 8633TIP3    H125856   6.858   2.797   1.784
 8633TIP3    H225857   6.838   2.946   1.768
 8634TIP3   OH225858   6.154   1.925   0.050
 8634TIP3    H125859   6.189   1.881   0.127
 8634TIP3    H225860   6.140   2.016   0.079
 8635TIP3   OH225861   5.189   5.687   1.600
 8635TIP3    H125862   5.226   5.628   1.534
 8635TIP3    H225863   5.249   5.762   1.602
 8636TIP3   OH225864   7.711   2.089   4.030
 8636TIP3    H125865   7.726   2.015   4.088
 8636TIP3    H225866   7.620   2.077   4.000
 8637TIP3   OH225867   2.950   3.171   5.271
 8637TIP3    H125868   2.937   3.126   5.354
 8637TIP3    H225869   2.865   3.212   5.252
 8638TIP3   OH225870   8.118   2.169   0.252
 8638TIP3    H125871   8.150   2.157   0.341
 8638TIP3    H225872   8.034   2.215   0.262
 8639TIP3   OH225873   0.715   6.053   3.993
 8639TIP3    H125874   0.626   6.071   3.962
 8639TIP3    H225875   0.757   6.138   3.997
 8640TIP3   OH225876   2.538   5.987   4.443
 8640TIP3    H125877   2.619   5.966   4.490
 8640TIP3    H225878   2.567   6.010   4.355
 8641TIP3   OH225879   1.779   3.862   2.463
 8641TIP3    H125880   1.753   3.953   2.477
 8641TIP3    H225881   1.706   3.824   2.414
 8642TIP3   OH225882   6.845   0.139   1.512
 8642TIP3    H125883   6.814   0.129   1.422
 8642TIP3    H225884   6.801   0.069   1.561
 8643TIP3   OH225885   6.832   6.843   3.873
 8643TIP3    H125886   6.747   6.827   3.830
 8643TIP3    H225887   6.888   6.877   3.803
 8644TIP3   OH225888   4.981   7.702   3.951
 8644TIP3    H125889   5.058   7.655   3.920
 8644TIP3    H225890   5.017   7.776   4.001
 8645TIP3   OH225891   8.155   4.842   5.914
 8645TIP3    H125892   8.246   4.842   5.885
 8645TIP3    H225893   8.143   4.929   5.953
 8646TIP3   OH225894   0.399   4.770   1.325
 8646TIP3    H125895   0.364   4.697   1.375
 8646TIP3    H225896   0.414   4.734   1.237
 8647TIP3   OH225897   4.218   7.611   2.862
 8647TIP3    H125898   4.284   7.556   2.820
 8647TIP3    H225899   4.267   7.683   2.901
 8648TIP3   OH225900   7.183   5.426   5.778
 8648TIP3    H125901   7.158   5.358   5.840
 8648TIP3    H225902   7.203   5.502   5.832
 8649TIP3   OH225903   3.288   2.301   0.970
 8649TIP3    H125904   3.362   2.334   1.022
 8649TIP3    H225905   3.210   2.327   1.019
 8650TIP3   OH225906   8.048   4.621   2.630
 8650TIP3    H125907   7.988   4.692   2.653
 8650TIP3    H225908   8.008   4.581   2.553
 8651TIP3   OH225909   1.254   5.958   2.834
 8651TIP3    H125910   1.206   5.876   2.848
 8651TIP3    H225911   1.194   6.027   2.864
 8652TIP3   OH225912   1.124   7.593   3.850
 8652TIP3    H125913   1.064   7.577   3.777
 8652TIP3    H225914   1.151   7.684   3.840
 8653TIP3   OH225915   4.973   7.307   5.339
 8653TIP3    H125916   4.896   7.359   5.364
 8653TIP3    H225917   4.937   7.232   5.292
 8654TIP3   OH225918   6.876   7.128   1.566
 8654TIP3    H125919   6.922   7.210   1.582
 8654TIP3    H225920   6.888   7.112   1.472
 8655TIP3   OH225921   3.344   6.294   0.695
 8655TIP3    H125922   3.310   6.216   0.738
 8655TIP3    H225923   3.278   6.314   0.628
 8656TIP3   OH225924   6.385   7.359   4.299
 8656TIP3    H125925   6.290   7.372   4.302
 8656TIP3    H225926   6.420   7.426   4.358
 8657TIP3   OH225927   0.103   4.031   4.284
 8657TIP3    H125928   0.029   4.006   4.228
 8657TIP3    H225929   0.136   4.111   4.244
 8658TIP3   OH225930   1.397   2.981   3.485
 8658TIP3    H125931   1.420   2.909   3.427
 8658TIP3    H225932   1.301   2.981   3.486
 8659TIP3   OH225933   2.545   3.103   4.601
 8659TIP3    H125934   2.637   3.082   4.584
 8659TIP3    H225935   2.513   3.140   4.519
 8660TIP3   OH225936   4.074   5.879   2.192
 8660TIP3    H125937   4.054   5.832   2.274
 8660TIP3    H225938   4.089   5.809   2.128
 8661TIP3   OH225939   5.725   0.484   3.804
 8661TIP3    H125940   5.714   0.577   3.824
 8661TIP3    H225941   5.685   0.473   3.718
 8662TIP3   OH225942   7.123   2.999   1.468
 8662TIP3    H125943   7.113   3.009   1.374
 8662TIP3    H225944   7.154   3.084   1.498
 8663TIP3   OH225945   7.255   0.820   5.359
 8663TIP3    H125946   7.302   0.780   5.286
 8663TIP3    H225947   7.242   0.748   5.421
 8664TIP3   OH225948   2.092   1.803   5.383
 8664TIP3    H125949   2.109   1.710   5.397
 8664TIP3    H225950   2.035   1.829   5.455
 8665TIP3   OH225951   0.931   6.471   5.099
 8665TIP3    H125952   0.933   6.482   5.004
 8665TIP3    H225953   0.867   6.535   5.129
 8666TIP3   OH225954   6.583   6.980   2.783
 8666TIP3    H125955   6.615   7.058   2.828
 8666TIP3    H225956   6.643   6.911   2.810
 8667TIP3   OH225957   8.211   4.929   4.702
 8667TIP3    H125958   8.165   4.921   4.619
 8667TIP3    H225959   8.290   4.979   4.681
 8668TIP3   OH225960   8.162   5.094   5.161
 8668TIP3    H125961   8.075   5.079   5.199
 8668TIP3    H225962   8.199   5.165   5.214
 8669TIP3   OH225963   3.560   7.023   1.562
 8669TIP3    H125964   3.476   7.069   1.559
 8669TIP3    H225965   3.551   6.951   1.501
 8670TIP3   OH225966   7.852   7.766   5.294
 8670TIP3    H125967   7.828   7.677   5.320
 8670TIP3    H225968   7.833   7.819   5.372
 8671TIP3   OH225969   5.457   1.516   6.299
 8671TIP3    H125970   5.533   1.553   6.253
 8671TIP3    H225971   5.385   1.575   6.278
 8672TIP3   OH225972   4.141   6.777   2.665
 8672TIP3    H125973   4.055   6.745   2.637
 8672TIP3    H225974   4.177   6.704   2.716
 8673TIP3   OH225975   5.897   3.318   6.305
 8673TIP3    H125976   5.895   3.227   6.275
 8673TIP3    H225977   5.989   3.344   6.300
 8674TIP3   OH225978   0.101   2.488   4.617
 8674TIP3    H125979   0.107   2.393   4.608
 8674TIP3    H225980   0.188   2.515   4.646
 8675TIP3   OH225981   5.363   0.298   3.887
 8675TIP3    H125982   5.393   0.368   3.944
 8675TIP3    H225983   5.436   0.236   3.884
 8676TIP3   OH225984   4.444   3.087   6.652
 8676TIP3    H125985   4.432   3.141   6.574
 8676TIP3    H225986   4.524   3.121   6.693
 8677TIP3   OH225987   0.971   4.121   3.895
 8677TIP3    H125988   0.997   4.150   3.808
 8677TIP3    H225989   1.049   4.078   3.931
 8678TIP3   OH225990   5.226   3.896   1.325
 8678TIP3    H125991   5.289   3.939   1.383
 8678TIP3    H225992   5.276   3.826   1.283
 8679TIP3   OH225993   2.608   3.044   3.365
 8679TIP3    H125994   2.622   3.044   3.270
 8679TIP3    H225995   2.681   3.097   3.399
 8680TIP3   OH225996   3.114   6.831   0.954
 8680TIP3    H125997   3.097   6.879   1.035
 8680TIP3    H225998   3.111   6.897   0.885
 8681TIP3   OH225999   1.951   5.095   3.751
 8681TIP3    H126000   1.942   5.161   3.682
 8681TIP3    H226001   2.045   5.083   3.761
 8682TIP3   OH226002   1.361   7.657   1.646
 8682TIP3    H126003   1.320   7.687   1.728
 8682TIP3    H226004   1.377   7.737   1.597
 8683TIP3   OH226005   8.042   3.346   0.424
 8683TIP3    H126006   8.071   3.291   0.496
 8683TIP3    H226007   8.083   3.431   0.440
 8684TIP3   OH226008   2.691   1.129   0.472
 8684TIP3    H126009   2.609   1.179   0.472
 8684TIP3    H226010   2.665   1.040   0.493
 8685TIP3   OH226011   6.486   3.130   1.098
 8685TIP3    H126012   6.392   3.124   1.115
 8685TIP3    H226013   6.526   3.083   1.171
 8686TIP3   OH226014   6.272   3.121   0.008
 8686TIP3    H126015   6.216   3.053  -0.028
 8686TIP3    H226016   6.357   3.079   0.018
 8687TIP3   OH226017   3.669   3.121   5.261
 8687TIP3    H126018   3.696   3.100   5.350
 8687TIP3    H226019   3.662   3.216   5.260
 8688TIP3   OH226020   6.304   5.211   0.578
 8688TIP3    H126021   6.341   5.125   0.598
 8688TIP3    H226022   6.298   5.212   0.482
 8689TIP3   OH226023   1.959   0.598   1.532
 8689TIP3    H126024   1.985   0.582   1.441
 8689TIP3    H226025   1.953   0.511   1.571
 8690TIP3   OH226026   6.183   0.779   4.520
 8690TIP3    H126027   6.167   0.729   4.600
 8690TIP3    H226028   6.148   0.866   4.538
 8691TIP3   OH226029   7.475   2.406   5.046
 8691TIP3    H126030   7.504   2.319   5.072
 8691TIP3    H226031   7.477   2.457   5.127
 8692TIP3   OH226032   2.413   7.263   1.164
 8692TIP3    H126033   2.320   7.240   1.153
 8692TIP3    H226034   2.419   7.352   1.129
 8693TIP3   OH226035   7.157   7.500   4.410
 8693TIP3    H126036   7.162   7.596   4.412
 8693TIP3    H226037   7.208   7.475   4.333
 8694TIP3   OH226038   3.982   6.337   0.277
 8694TIP3    H126039   3.997   6.243   0.269
 8694TIP3    H226040   4.022   6.374   0.198
 8695TIP3   OH226041   7.057   0.571   1.483
 8695TIP3    H126042   6.992   0.641   1.493
 8695TIP3    H226043   7.076   0.542   1.572
 8696TIP3   OH226044   0.498   5.011   1.403
 8696TIP3    H126045   0.543   5.040   1.323
 8696TIP3    H226046   0.446   4.935   1.376
 8697TIP3   OH226047   0.974   0.701   5.635
 8697TIP3    H126048   1.009   0.616   5.661
 8697TIP3    H226049   1.015   0.763   5.695
 8698TIP3   OH226050   7.718   2.815   2.883
 8698TIP3    H126051   7.811   2.832   2.867
 8698TIP3    H226052   7.705   2.725   2.855
 8699TIP3   OH226053   4.677   5.711   4.335
 8699TIP3    H126054   4.707   5.704   4.426
 8699TIP3    H226055   4.640   5.626   4.316
 8700TIP3   OH226056   3.753   6.792   5.882
 8700TIP3    H126057   3.711   6.721   5.930
 8700TIP3    H226058   3.812   6.747   5.820
 8701TIP3   OH226059   4.238   4.373   4.290
 8701TIP3    H126060   4.291   4.422   4.354
 8701TIP3    H226061   4.282   4.389   4.206
 8702TIP3   OH226062   5.505   4.989   2.818
 8702TIP3    H126063   5.421   4.948   2.837
 8702TIP3    H226064   5.561   4.917   2.788
 8703TIP3   OH226065   1.065   2.163   5.841
 8703TIP3    H126066   0.992   2.145   5.782
 8703TIP3    H226067   1.024   2.177   5.927
 8704TIP3   OH226068   5.821   6.869   1.542
 8704TIP3    H126069   5.738   6.824   1.553
 8704TIP3    H226070   5.832   6.875   1.447
 8705TIP3   OH226071   0.398   6.480   6.462
 8705TIP3    H126072   0.325   6.419   6.449
 8705TIP3    H226073   0.357   6.562   6.489
 8706TIP3   OH226074   6.291   2.453   3.921
 8706TIP3    H126075   6.302   2.439   4.015
 8706TIP3    H226076   6.377   2.433   3.884
 8707TIP3   OH226077   4.512   7.531   2.002
 8707TIP3    H126078   4.566   7.464   1.961
 8707TIP3    H226079   4.424   7.493   2.004
 8708TIP3   OH226080   2.720   5.448   6.072
 8708TIP3    H126081   2.647   5.429   6.012
 8708TIP3    H226082   2.677   5.476   6.153
 8709TIP3   OH226083   3.901   6.045   5.032
 8709TIP3    H126084   3.832   6.080   5.087
 8709TIP3    H226085   3.928   5.964   5.075
 8710TIP3   OH226086   2.743   7.450   3.401
 8710TIP3    H126087   2.773   7.530   3.358
 8710TIP3    H226088   2.649   7.447   3.382
 8711TIP3   OH226089   7.222   1.128   3.980
 8711TIP3    H126090   7.225   1.209   3.930
 8711TIP3    H226091   7.270   1.065   3.927
 8712TIP3   OH226092   8.169   1.045   5.586
 8712TIP3    H126093   8.243   0.988   5.567
 8712TIP3    H226094   8.207   1.133   5.593
 8713TIP3   OH226095   4.834   6.661   3.260
 8713TIP3    H126096   4.741   6.666   3.236
 8713TIP3    H226097   4.847   6.569   3.285
 8714TIP3   OH226098   1.822   5.792   4.696
 8714TIP3    H126099   1.884   5.845   4.746
 8714TIP3    H226100   1.771   5.855   4.647
 8715TIP3   OH226101   4.550   6.360   0.700
 8715TIP3    H126102   4.602   6.439   0.685
 8715TIP3    H226103   4.517   6.336   0.613
 8716TIP3   OH226104   3.622   2.773   6.066
 8716TIP3    H126105   3.553   2.709   6.083
 8716TIP3    H226106   3.628   2.776   5.970
 8717TIP3   OH226107   2.543   4.775   2.385
 8717TIP3    H126108   2.529   4.684   2.411
 8717TIP3    H226109   2.600   4.811   2.453
 8718TIP3   OH226110   4.293   3.126   0.897
 8718TIP3    H126111   4.318   3.050   0.949
 8718TIP3    H226112   4.310   3.099   0.806
 8719TIP3   OH226113   1.522   3.444   2.997
 8719TIP3    H126114   1.449   3.450   2.935
 8719TIP3    H226115   1.531   3.350   3.014
 8720TIP3   OH226116   2.335   1.494   2.901
 8720TIP3    H126117   2.279   1.521   2.974
 8720TIP3    H226118   2.310   1.403   2.884
 8721TIP3   OH226119   0.887   2.675   4.820
 8721TIP3    H126120   0.831   2.695   4.896
 8721TIP3    H226121   0.913   2.761   4.786
 8722TIP3   OH226122   0.589   0.684   3.579
 8722TIP3    H126123   0.600   0.779   3.577
 8722TIP3    H226124   0.537   0.664   3.501
 8723TIP3   OH226125   6.112   6.570   6.170
 8723TIP3    H126126   6.061   6.508   6.117
 8723TIP3    H226127   6.131   6.522   6.251
 8724TIP3   OH226128   6.276   6.549   4.612
 8724TIP3    H126129   6.354   6.503   4.643
 8724TIP3    H226130   6.306   6.603   4.539
 8725TIP3   OH226131   7.933   3.225   4.962
 8725TIP3    H126132   7.882   3.149   4.934
 8725TIP3    H226133   7.952   3.209   5.055
 8726TIP3   OH226134   2.878   1.884   0.130
 8726TIP3    H126135   2.806   1.910   0.074
 8726TIP3    H226136   2.844   1.891   0.219
 8727TIP3   OH226137   3.695   2.299   2.328
 8727TIP3    H126138   3.632   2.357   2.284
 8727TIP3    H226139   3.751   2.267   2.257
 8728TIP3   OH226140   0.319   1.008   4.734
 8728TIP3    H126141   0.322   1.040   4.824
 8728TIP3    H226142   0.367   1.073   4.683
 8729TIP3   OH226143   2.238   5.359   0.715
 8729TIP3    H126144   2.233   5.331   0.806
 8729TIP3    H226145   2.204   5.449   0.715
 8730TIP3   OH226146   4.859   3.221   5.449
 8730TIP3    H126147   4.854   3.316   5.456
 8730TIP3    H226148   4.895   3.193   5.533
 8731TIP3   OH226149   2.693   2.709   5.587
 8731TIP3    H126150   2.739   2.688   5.668
 8731TIP3    H226151   2.762   2.715   5.521
 8732TIP3   OH226152   4.639   7.145   5.386
 8732TIP3    H126153   4.686   7.219   5.424
 8732TIP3    H226154   4.576   7.185   5.325
 8733TIP3   OH226155   7.801   2.648   2.622
 8733TIP3    H126156   7.711   2.631   2.594
 8733TIP3    H226157   7.823   2.575   2.680
 8734TIP3   OH226158   0.741   2.106   3.869
 8734TIP3    H126159   0.645   2.117   3.871
 8734TIP3    H226160   0.772   2.180   3.817
 8735TIP3   OH226161   7.268   6.197   0.270
 8735TIP3    H126162   7.331   6.183   0.340
 8735TIP3    H226163   7.296   6.138   0.200
 8736TIP3   OH226164   1.332   4.675   5.870
 8736TIP3    H126165   1.353   4.620   5.794
 8736TIP3    H226166   1.369   4.761   5.849
 8737TIP3   OH226167   1.668   5.780   6.027
 8737TIP3    H126168   1.584   5.773   6.072
 8737TIP3    H226169   1.656   5.853   5.966
 8738TIP3   OH226170   8.223   4.350   4.489
 8738TIP3    H126171   8.165   4.422   4.515
 8738TIP3    H226172   8.306   4.393   4.470
 8739TIP3   OH226173   1.927   5.010   0.839
 8739TIP3    H126174   1.940   5.095   0.798
 8739TIP3    H226175   1.836   4.987   0.819
 8740TIP3   OH226176   7.451   2.358   3.893
 8740TIP3    H126177   7.469   2.264   3.897
 8740TIP3    H226178   7.490   2.386   3.811
 8741TIP3   OH226179   1.487   3.191   1.596
 8741TIP3    H126180   1.447   3.236   1.522
 8741TIP3    H226181   1.581   3.209   1.587
 8742TIP3   OH226182   5.551   5.085   5.648
 8742TIP3    H126183   5.500   5.005   5.635
 8742TIP3    H226184   5.610   5.088   5.573
 8743TIP3   OH226185   6.165   3.161   0.424
 8743TIP3    H126186   6.261   3.159   0.432
 8743TIP3    H226187   6.138   3.072   0.447
 8744TIP3   OH226188   6.697   1.985   6.431
 8744TIP3    H126189   6.734   1.954   6.348
 8744TIP3    H226190   6.713   2.079   6.430
 8745TIP3   OH226191   6.747   1.686   1.984
 8745TIP3    H126192   6.669   1.733   1.954
 8745TIP3    H226193   6.819   1.747   1.967
 8746TIP3   OH226194   0.570   2.254   5.367
 8746TIP3    H126195   0.503   2.306   5.412
 8746TIP3    H226196   0.528   2.226   5.285
 8747TIP3   OH226197   4.399   6.036   1.982
 8747TIP3    H126198   4.447   6.005   1.905
 8747TIP3    H226199   4.370   5.956   2.025
 8748TIP3   OH226200   0.279   7.447   5.606
 8748TIP3    H126201   0.314   7.491   5.684
 8748TIP3    H226202   0.239   7.517   5.555
 8749TIP3   OH226203   0.076   1.302   4.539
 8749TIP3    H126204   0.059   1.210   4.519
 8749TIP3    H226205  -0.011   1.342   4.544
 8750TIP3   OH226206   7.308   0.306   0.305
 8750TIP3    H126207   7.349   0.284   0.221
 8750TIP3    H226208   7.382   0.331   0.361
 8751TIP3   OH226209   6.654   4.191   3.841
 8751TIP3    H126210   6.721   4.212   3.906
 8751TIP3    H226211   6.576   4.237   3.872
 8752TIP3   OH226212   5.194   1.897   3.142
 8752TIP3    H126213   5.150   1.921   3.224
 8752TIP3    H226214   5.166   1.964   3.079
 8753TIP3   OH226215   2.496   5.348   4.918
 8753TIP3    H126216   2.564   5.282   4.929
 8753TIP3    H226217   2.456   5.328   4.833
 8754TIP3   OH226218   2.301   6.901   3.561
 8754TIP3    H126219   2.207   6.892   3.575
 8754TIP3    H226220   2.312   6.991   3.529
 8755TIP3   OH226221   5.229   7.419   5.735
 8755TIP3    H126222   5.246   7.500   5.687
 8755TIP3    H226223   5.212   7.446   5.825
 8756TIP3   OH226224   2.341   6.309   6.105
 8756TIP3    H126225   2.378   6.394   6.080
 8756TIP3    H226226   2.377   6.247   6.042
 8757TIP3   OH226227   5.643   6.049   1.447
 8757TIP3    H126228   5.673   6.065   1.357
 8757TIP3    H226229   5.709   6.092   1.502
 8758TIP3   OH226230   0.835   3.231   1.398
 8758TIP3    H126231   0.818   3.170   1.469
 8758TIP3    H226232   0.761   3.220   1.338
 8759TIP3   OH226233   3.494   0.376   2.617
 8759TIP3    H126234   3.433   0.429   2.668
 8759TIP3    H226235   3.491   0.414   2.529
 8760TIP3   OH226236   3.004   3.281   2.250
 8760TIP3    H126237   3.067   3.209   2.260
 8760TIP3    H226238   2.972   3.272   2.161
 8761TIP3   OH226239   3.321   1.024   6.162
 8761TIP3    H126240   3.337   0.955   6.226
 8761TIP3    H226241   3.346   0.986   6.078
 8762TIP3   OH226242   1.198   5.786   6.490
 8762TIP3    H126243   1.129   5.742   6.440
 8762TIP3    H226244   1.151   5.852   6.542
 8763TIP3   OH226245   5.413   2.814   5.135
 8763TIP3    H126246   5.441   2.737   5.184
 8763TIP3    H226247   5.436   2.793   5.044
 8764TIP3   OH226248   4.063   0.276   0.826
 8764TIP3    H126249   4.123   0.227   0.882
 8764TIP3    H226250   3.980   0.230   0.833
 8765TIP3   OH226251   2.503   0.827   0.140
 8765TIP3    H126252   2.492   0.913   0.178
 8765TIP3    H226253   2.481   0.766   0.210
 8766TIP3   OH226254   7.496   1.595   2.068
 8766TIP3    H126255   7.425   1.612   2.129
 8766TIP3    H226256   7.456   1.602   1.982
 8767TIP3   OH226257   7.433   6.496   0.311
 8767TIP3    H126258   7.450   6.558   0.382
 8767TIP3    H226259   7.416   6.551   0.235
 8768TIP3   OH226260   3.506   3.408   3.916
 8768TIP3    H126261   3.577   3.395   3.853
 8768TIP3    H226262   3.457   3.326   3.913
 8769TIP3   OH226263   0.073   3.127   4.749
 8769TIP3    H126264   0.149   3.069   4.750
 8769TIP3    H226265   0.093   3.192   4.682
 8770TIP3   OH226266   3.839   7.420   6.090
 8770TIP3    H126267   3.808   7.493   6.144
 8770TIP3    H226268   3.832   7.344   6.148
 8771TIP3   OH226269   5.812   1.006   4.965
 8771TIP3    H126270   5.815   1.071   5.035
 8771TIP3    H226271   5.778   0.927   5.008
 8772TIP3   OH226272   6.744   6.219   0.676
 8772TIP3    H126273   6.683   6.149   0.699
 8772TIP3    H226274   6.802   6.179   0.611
 8773TIP3   OH226275   1.084   3.855   1.295
 8773TIP3    H126276   1.075   3.947   1.319
 8773TIP3    H226277   1.029   3.809   1.359
 8774TIP3   OH226278   1.324   3.984   2.625
 8774TIP3    H126279   1.320   4.070   2.667
 8774TIP3    H226280   1.235   3.968   2.594
 8775TIP3   OH226281   0.547   5.555   1.884
 8775TIP3    H126282   0.522   5.463   1.876
 8775TIP3    H226283   0.577   5.563   1.975
 8776TIP3   OH226284   4.823   1.273   0.959
 8776TIP3    H126285   4.863   1.232   1.035
 8776TIP3    H226286   4.731   1.247   0.964
 8777TIP3   OH226287   7.929   0.682   6.036
 8777TIP3    H126288   7.926   0.589   6.011
 8777TIP3    H226289   7.884   0.727   5.964
 8778TIP3   OH226290   6.832   3.503   5.696
 8778TIP3    H126291   6.805   3.457   5.775
 8778TIP3    H226292   6.798   3.592   5.707
 8779TIP3   OH226293   3.155   1.637   4.701
 8779TIP3    H126294   3.223   1.589   4.748
 8779TIP3    H226295   3.081   1.577   4.698
 8780TIP3   OH226296   1.429   6.492   0.161
 8780TIP3    H126297   1.352   6.529   0.117
 8780TIP3    H226298   1.492   6.564   0.164
 8781TIP3   OH226299   7.489   5.732   5.471
 8781TIP3    H126300   7.536   5.764   5.548
 8781TIP3    H226301   7.497   5.636   5.476
 8782TIP3   OH226302   1.207   0.719   1.061
 8782TIP3    H126303   1.175   0.751   0.976
 8782TIP3    H226304   1.131   0.725   1.119
 8783TIP3   OH226305   0.011   0.789   5.049
 8783TIP3    H126306   0.034   0.733   4.975
 8783TIP3    H226307   0.043   0.876   5.025
 8784TIP3   OH226308   0.082   6.356   3.323
 8784TIP3    H126309   0.113   6.339   3.412
 8784TIP3    H226310  -0.011   6.333   3.325
 8785TIP3   OH226311   5.748   3.720   5.147
 8785TIP3    H126312   5.670   3.671   5.172
 8785TIP3    H226313   5.714   3.808   5.125
 8786TIP3   OH226314   7.095   5.628   0.333
 8786TIP3    H126315   7.119   5.644   0.424
 8786TIP3    H226316   7.147   5.552   0.307
 8787TIP3   OH226317   1.280   1.639   5.599
 8787TIP3    H126318   1.319   1.722   5.571
 8787TIP3    H226319   1.229   1.611   5.523
 8788TIP3   OH226320   8.133   2.972   5.146
 8788TIP3    H126321   8.145   2.954   5.053
 8788TIP3    H226322   8.106   2.888   5.183
 8789TIP3   OH226323   5.843   3.771   4.721
 8789TIP3    H126324   5.893   3.783   4.802
 8789TIP3    H226325   5.798   3.854   4.708
 8790TIP3   OH226326   6.854   2.327   2.496
 8790TIP3    H126327   6.865   2.410   2.542
 8790TIP3    H226328   6.938   2.311   2.454
 8791TIP3   OH226329   0.351   3.294   5.432
 8791TIP3    H126330   0.385   3.206   5.413
 8791TIP3    H226331   0.411   3.353   5.386
 8792TIP3   OH226332   2.328   4.496   3.832
 8792TIP3    H126333   2.246   4.466   3.871
 8792TIP3    H226334   2.352   4.574   3.881
 8793TIP3   OH226335   5.644   4.506   2.876
 8793TIP3    H126336   5.550   4.495   2.891
 8793TIP3    H226337   5.677   4.539   2.960
 8794TIP3   OH226338   1.016   6.159   4.105
 8794TIP3    H126339   1.103   6.123   4.085
 8794TIP3    H226340   0.987   6.107   4.181
 8795TIP3   OH226341   3.356   6.720   1.231
 8795TIP3    H126342   3.308   6.643   1.262
 8795TIP3    H226343   3.378   6.699   1.140
 8796TIP3   OH226344   8.057   2.081   3.296
 8796TIP3    H126345   8.064   2.116   3.207
 8796TIP3    H226346   8.071   2.156   3.353
 8797TIP3   OH226347   7.337   5.648   3.175
 8797TIP3    H126348   7.369   5.688   3.256
 8797TIP3    H226349   7.403   5.582   3.153
 8798TIP3   OH226350   7.976   3.057   4.610
 8798TIP3    H126351   7.993   3.045   4.704
 8798TIP3    H226352   7.890   3.099   4.606
 8799TIP3   OH226353   0.386   0.926   2.539
 8799TIP3    H126354   0.416   0.938   2.449
 8799TIP3    H226355   0.454   0.968   2.592
 8800TIP3   OH226356   4.423   1.891   3.302
 8800TIP3    H126357   4.460   1.843   3.228
 8800TIP3    H226358   4.411   1.980   3.269
 8801TIP3   OH226359   5.634   0.679   3.077
 8801TIP3    H126360   5.629   0.645   2.988
 8801TIP3    H226361   5.554   0.731   3.088
 8802TIP3   OH226362   4.195   0.807   6.297
 8802TIP3    H126363   4.273   0.790   6.349
 8802TIP3    H226364   4.204   0.750   6.220
 8803TIP3   OH226365   7.637   6.690   1.508
 8803TIP3    H126366   7.637   6.780   1.539
 8803TIP3    H226367   7.591   6.641   1.576
 8804TIP3   OH226368   5.556   0.389   0.662
 8804TIP3    H126369   5.585   0.470   0.619
 8804TIP3    H226370   5.497   0.419   0.731
 8805TIP3   OH226371   6.816   0.805   0.527
 8805TIP3    H126372   6.887   0.845   0.478
 8805TIP3    H226373   6.809   0.858   0.606
 8806TIP3   OH226374   8.066   7.526   2.958
 8806TIP3    H126375   8.069   7.581   3.035
 8806TIP3    H226376   8.023   7.445   2.987
 8807TIP3   OH226377   4.520   2.484   6.064
 8807TIP3    H126378   4.606   2.468   6.026
 8807TIP3    H226379   4.474   2.400   6.056
 8808TIP3   OH226380   0.440   3.267   4.724
 8808TIP3    H126381   0.398   3.348   4.697
 8808TIP3    H226382   0.449   3.275   4.819
 8809TIP3   OH226383   2.314   6.271   3.217
 8809TIP3    H126384   2.377   6.340   3.237
 8809TIP3    H226385   2.354   6.220   3.147
 8810TIP3   OH226386   5.177  -0.016   6.241
 8810TIP3    H126387   5.182   0.004   6.148
 8810TIP3    H226388   5.245   0.039   6.282
 8811TIP3   OH226389   7.597   0.811   4.283
 8811TIP3    H126390   7.561   0.835   4.198
 8811TIP3    H226391   7.527   0.831   4.346
 8812TIP3   OH226392   6.737   5.625   6.165
 8812TIP3    H126393   6.670   5.667   6.111
 8812TIP3    H226394   6.690   5.560   6.216
 8813TIP3   OH226395   7.481   2.900   1.789
 8813TIP3    H126396   7.492   2.975   1.730
 8813TIP3    H226397   7.444   2.937   1.869
 8814TIP3   OH226398   7.135   5.575   2.937
 8814TIP3    H126399   7.206   5.600   2.996
 8814TIP3    H226400   7.090   5.657   2.917
 8815TIP3   OH226401   1.091   5.200   0.319
 8815TIP3    H126402   1.129   5.286   0.300
 8815TIP3    H226403   1.162   5.138   0.301
 8816TIP3   OH226404   3.492   5.109   2.816
 8816TIP3    H126405   3.425   5.166   2.778
 8816TIP3    H226406   3.461   5.093   2.905
 8817TIP3   OH226407   4.845   3.951   6.304
 8817TIP3    H126408   4.783   4.020   6.281
 8817TIP3    H226409   4.929   3.996   6.313
 8818TIP3   OH226410   8.164   3.136   1.946
 8818TIP3    H126411   8.149   3.062   1.888
 8818TIP3    H226412   8.238   3.109   2.002
 8819TIP3   OH226413   4.617   7.142   6.153
 8819TIP3    H126414   4.706   7.109   6.168
 8819TIP3    H226415   4.561   7.065   6.165
 8820TIP3   OH226416   6.621   4.172   4.792
 8820TIP3    H126417   6.636   4.108   4.862
 8820TIP3    H226418   6.561   4.128   4.732
 8821TIP3   OH226419   4.624   7.247   6.671
 8821TIP3    H126420   4.578   7.176   6.627
 8821TIP3    H226421   4.623   7.320   6.608
 8822TIP3   OH226422   2.245   4.211   5.185
 8822TIP3    H126423   2.249   4.205   5.089
 8822TIP3    H226424   2.231   4.304   5.202
 8823TIP3   OH226425   7.410   5.204   1.088
 8823TIP3    H126426   7.428   5.110   1.090
 8823TIP3    H226427   7.435   5.236   1.174
 8824TIP3   OH226428   3.242   3.130   2.209
 8824TIP3    H126429   3.314   3.179   2.248
 8824TIP3    H226430   3.285   3.060   2.159
 8825TIP3   OH226431   5.778   0.436   3.147
 8825TIP3    H126432   5.716   0.386   3.199
 8825TIP3    H226433   5.735   0.520   3.130
 8826TIP3   OH226434   0.053   6.534   3.787
 8826TIP3    H126435   0.109   6.515   3.862
 8826TIP3    H226436  -0.035   6.512   3.818
 8827TIP3   OH226437   2.007   5.951   3.017
 8827TIP3    H126438   1.921   5.910   3.011
 8827TIP3    H226439   1.995   6.023   3.080
 8828TIP3   OH226440   1.117   4.659   3.774
 8828TIP3    H126441   1.059   4.583   3.770
 8828TIP3    H226442   1.140   4.668   3.866
 8829TIP3   OH226443   5.934   0.230   0.882
 8829TIP3    H126444   5.934   0.164   0.813
 8829TIP3    H226445   6.021   0.224   0.921
 8830TIP3   OH226446   4.965   2.600   5.110
 8830TIP3    H126447   4.981   2.679   5.059
 8830TIP3    H226448   4.900   2.551   5.060
 8831TIP3   OH226449   6.960   5.076   4.273
 8831TIP3    H126450   6.991   4.993   4.309
 8831TIP3    H226451   6.960   5.137   4.347
 8832TIP3   OH226452   8.155   7.372   1.660
 8832TIP3    H126453   8.120   7.446   1.709
 8832TIP3    H226454   8.155   7.401   1.569
 8833TIP3   OH226455   8.263   2.592   2.865
 8833TIP3    H126456   8.321   2.518   2.887
 8833TIP3    H226457   8.297   2.665   2.917
 8834TIP3   OH226458   0.391   1.934   4.500
 8834TIP3    H126459   0.343   1.852   4.512
 8834TIP3    H226460   0.401   1.942   4.405
 8835TIP3   OH226461   4.943   7.123   2.919
 8835TIP3    H126462   4.947   7.054   2.986
 8835TIP3    H226463   4.875   7.183   2.951
 8836TIP3   OH226464   5.328   3.918   0.869
 8836TIP3    H126465   5.282   3.904   0.787
 8836TIP3    H226466   5.271   3.878   0.936
 8837TIP3   OH226467   5.139   5.090   1.215
 8837TIP3    H126468   5.173   5.012   1.258
 8837TIP3    H226469   5.200   5.160   1.241
 8838TIP3   OH226470   6.508   5.998   2.911
 8838TIP3    H126471   6.509   5.931   2.842
 8838TIP3    H226472   6.599   6.002   2.942
 8839TIP3   OH226473   5.943   2.015   3.368
 8839TIP3    H126474   6.013   1.964   3.328
 8839TIP3    H226475   5.939   1.983   3.458
 8840TIP3   OH226476   6.652   6.365   6.037
 8840TIP3    H126477   6.639   6.444   5.985
 8840TIP3    H226478   6.568   6.349   6.079
 8841TIP3   OH226479   3.669   3.152   2.110
 8841TIP3    H126480   3.687   3.239   2.146
 8841TIP3    H226481   3.678   3.163   2.015
 8842TIP3   OH226482   3.373   7.464   3.324
 8842TIP3    H126483   3.445   7.404   3.306
 8842TIP3    H226484   3.382   7.487   3.416
 8843TIP3   OH226485   6.810   2.566   5.811
 8843TIP3    H126486   6.790   2.654   5.842
 8843TIP3    H226487   6.786   2.508   5.884
 8844TIP3   OH226488   3.594   2.212   0.277
 8844TIP3    H126489   3.518   2.271   0.273
 8844TIP3    H226490   3.655   2.256   0.336
 8845TIP3   OH226491   2.842   5.081   0.637
 8845TIP3    H126492   2.770   5.113   0.581
 8845TIP3    H226493   2.897   5.030   0.578
 8846TIP3   OH226494   4.563   5.848   2.203
 8846TIP3    H126495   4.540   5.824   2.113
 8846TIP3    H226496   4.491   5.814   2.256
 8847TIP3   OH226497   3.519   3.486   5.162
 8847TIP3    H126498   3.490   3.445   5.081
 8847TIP3    H226499   3.440   3.498   5.213
 8848TIP3   OH226500   5.774   6.377   4.844
 8848TIP3    H126501   5.850   6.425   4.811
 8848TIP3    H226502   5.778   6.292   4.801
 8849TIP3   OH226503   0.819   0.873   1.264
 8849TIP3    H126504   0.762   0.915   1.199
 8849TIP3    H226505   0.789   0.907   1.348
 8850TIP3   OH226506   0.001   4.961   3.612
 8850TIP3    H126507   0.085   4.998   3.639
 8850TIP3    H226508  -0.004   4.877   3.658
 8851TIP3   OH226509   5.368   4.570   0.581
 8851TIP3    H126510   5.374   4.636   0.512
 8851TIP3    H226511   5.366   4.620   0.662
 8852TIP3   OH226512   5.366   2.693   2.169
 8852TIP3    H126513   5.445   2.731   2.208
 8852TIP3    H226514   5.309   2.768   2.153
 8853TIP3   OH226515   7.470   1.501   5.703
 8853TIP3    H126516   7.558   1.531   5.729
 8853TIP3    H226517   7.486   1.422   5.652
 8854TIP3   OH226518   0.970   4.022   5.405
 8854TIP3    H126519   1.034   4.012   5.335
 8854TIP3    H226520   1.013   4.077   5.470
 8855TIP3   OH226521   4.152   4.299   1.783
 8855TIP3    H126522   4.215   4.371   1.784
 8855TIP3    H226523   4.195   4.231   1.730
 8856TIP3   OH226524   3.553   3.576   6.119
 8856TIP3    H126525   3.542   3.482   6.103
 8856TIP3    H226526   3.563   3.614   6.032
 8857TIP3   OH226527   5.011   7.821   6.706
 8857TIP3    H126528   4.996   7.914   6.688
 8857TIP3    H226529   4.987   7.776   6.625
 8858TIP3   OH226530   5.072   5.195   3.584
 8858TIP3    H126531   5.018   5.133   3.535
 8858TIP3    H226532   5.126   5.141   3.641
 8859TIP3   OH226533   6.757   7.067   3.253
 8859TIP3    H126534   6.844   7.070   3.213
 8859TIP3    H226535   6.715   6.991   3.213
 8860TIP3   OH226536   4.365   2.970   5.290
 8860TIP3    H126537   4.391   3.034   5.357
 8860TIP3    H226538   4.336   2.894   5.340
 8861TIP3   OH226539   1.357   0.386   2.744
 8861TIP3    H126540   1.300   0.339   2.683
 8861TIP3    H226541   1.408   0.317   2.787
 8862TIP3   OH226542   7.217   7.556   5.783
 8862TIP3    H126543   7.310   7.568   5.762
 8862TIP3    H226544   7.177   7.640   5.766
 8863TIP3   OH226545   8.138   7.372   0.279
 8863TIP3    H126546   8.174   7.443   0.226
 8863TIP3    H226547   8.213   7.334   0.324
 8864TIP3   OH226548   4.934   3.824   2.804
 8864TIP3    H126549   4.922   3.910   2.844
 8864TIP3    H226550   5.025   3.802   2.822
 8865TIP3   OH226551   3.573   6.391   3.679
 8865TIP3    H126552   3.541   6.461   3.622
 8865TIP3    H226553   3.603   6.323   3.619
 8866TIP3   OH226554   5.235   5.103   0.297
 8866TIP3    H126555   5.216   5.147   0.214
 8866TIP3    H226556   5.322   5.066   0.285
 8867TIP3   OH226557   3.830   1.353   5.095
 8867TIP3    H126558   3.837   1.429   5.037
 8867TIP3    H226559   3.737   1.329   5.091
 8868TIP3   OH226560   7.865   1.044   4.781
 8868TIP3    H126561   7.859   0.979   4.711
 8868TIP3    H226562   7.888   1.125   4.736
 8869TIP3   OH226563   6.070   3.647   3.598
 8869TIP3    H126564   5.978   3.628   3.581
 8869TIP3    H226565   6.090   3.721   3.540
 8870TIP3   OH226566   4.931   4.802   4.530
 8870TIP3    H126567   5.015   4.761   4.507
 8870TIP3    H226568   4.952   4.895   4.538
 8871TIP3   OH226569   5.106   0.695   3.037
 8871TIP3    H126570   5.191   0.714   3.077
 8871TIP3    H226571   5.058   0.646   3.105
 8872TIP3   OH226572   2.873   2.226   0.789
 8872TIP3    H126573   2.831   2.311   0.797
 8872TIP3    H226574   2.961   2.245   0.756
 8873TIP3   OH226575   6.405   7.746   4.264
 8873TIP3    H126576   6.469   7.813   4.288
 8873TIP3    H226577   6.323   7.795   4.256
 8874TIP3   OH226578   5.586   1.024   3.980
 8874TIP3    H126579   5.575   1.003   4.073
 8874TIP3    H226580   5.681   1.028   3.968
 8875TIP3   OH226581   6.114   4.079   0.103
 8875TIP3    H126582   6.089   4.022   0.030
 8875TIP3    H226583   6.200   4.113   0.077
 8876TIP3   OH226584   7.466   6.763   5.858
 8876TIP3    H126585   7.530   6.695   5.837
 8876TIP3    H226586   7.406   6.722   5.919
 8877TIP3   OH226587   1.228   6.680   0.099
 8877TIP3    H126588   1.201   6.690   0.190
 8877TIP3    H226589   1.171   6.740   0.050
 8878TIP3   OH226590   1.569   5.385   3.245
 8878TIP3    H126591   1.664   5.386   3.249
 8878TIP3    H226592   1.548   5.399   3.153
 8879TIP3   OH226593   1.259   6.345   0.926
 8879TIP3    H126594   1.245   6.342   1.020
 8879TIP3    H226595   1.269   6.254   0.899
 8880TIP3   OH226596   0.996   4.717   3.188
 8880TIP3    H126597   1.034   4.683   3.269
 8880TIP3    H226598   1.065   4.770   3.150
 8881TIP3   OH226599   2.832   2.849   1.522
 8881TIP3    H126600   2.791   2.764   1.511
 8881TIP3    H226601   2.915   2.841   1.475
 8882TIP3   OH226602   6.723   7.208   0.363
 8882TIP3    H126603   6.795   7.262   0.397
 8882TIP3    H226604   6.675   7.180   0.441
 8883TIP3   OH226605   5.887   7.129   0.144
 8883TIP3    H126606   5.809   7.183   0.138
 8883TIP3    H226607   5.949   7.169   0.083
 8884TIP3   OH226608   7.157   2.997   2.780
 8884TIP3    H126609   7.184   2.911   2.810
 8884TIP3    H226610   7.234   3.052   2.790
 8885TIP3   OH226611   1.056   7.533   4.670
 8885TIP3    H126612   1.030   7.534   4.578
 8885TIP3    H226613   1.033   7.620   4.702
 8886TIP3   OH226614   3.370   2.300   1.287
 8886TIP3    H126615   3.446   2.247   1.264
 8886TIP3    H226616   3.403   2.364   1.349
 8887TIP3   OH226617   0.302   7.034   4.388
 8887TIP3    H126618   0.263   7.082   4.315
 8887TIP3    H226619   0.228   7.001   4.438
 8888TIP3   OH226620   3.515   5.642   5.008
 8888TIP3    H126621   3.576   5.632   4.935
 8888TIP3    H226622   3.519   5.558   5.055
 8889TIP3   OH226623   1.473   2.711   4.964
 8889TIP3    H126624   1.437   2.636   4.917
 8889TIP3    H226625   1.549   2.677   5.011
 8890TIP3   OH226626   3.271   4.196   5.026
 8890TIP3    H126627   3.192   4.145   5.042
 8890TIP3    H226628   3.322   4.187   5.106
 8891TIP3   OH226629   4.586   5.458   3.094
 8891TIP3    H126630   4.629   5.389   3.043
 8891TIP3    H226631   4.522   5.496   3.035
 8892TIP3   OH226632   1.590   0.324   3.040
 8892TIP3    H126633   1.683   0.308   3.030
 8892TIP3    H226634   1.550   0.284   2.963
 8893TIP3   OH226635   2.672   2.057   2.572
 8893TIP3    H126636   2.593   2.009   2.598
 8893TIP3    H226637   2.720   2.068   2.654
 8894TIP3   OH226638   7.393   5.087   4.423
 8894TIP3    H126639   7.330   5.152   4.392
 8894TIP3    H226640   7.406   5.028   4.348
 8895TIP3   OH226641   5.838   5.698   0.131
 8895TIP3    H126642   5.924   5.656   0.132
 8895TIP3    H226643   5.852   5.782   0.088
 8896TIP3   OH226644   1.937   2.685   5.725
 8896TIP3    H126645   1.953   2.771   5.685
 8896TIP3    H226646   1.894   2.706   5.808
 8897TIP3   OH226647   3.714   3.947   3.539
 8897TIP3    H126648   3.629   3.932   3.581
 8897TIP3    H226649   3.730   4.041   3.549
 8898TIP3   OH226650   6.769   1.118   5.549
 8898TIP3    H126651   6.682   1.089   5.577
 8898TIP3    H226652   6.776   1.091   5.458
 8899TIP3   OH226653   0.251   3.906   4.892
 8899TIP3    H126654   0.201   3.987   4.879
 8899TIP3    H226655   0.274   3.877   4.804
 8900TIP3   OH226656   6.926   4.125   2.005
 8900TIP3    H126657   6.970   4.048   1.968
 8900TIP3    H226658   6.891   4.172   1.929
 8901TIP3   OH226659   1.062   2.247   1.921
 8901TIP3    H126660   1.059   2.168   1.867
 8901TIP3    H226661   1.132   2.230   1.984
 8902TIP3   OH226662   7.554   7.260   1.146
 8902TIP3    H126663   7.573   7.282   1.237
 8902TIP3    H226664   7.513   7.339   1.110
 8903TIP3   OH226665   4.779   5.251   5.429
 8903TIP3    H126666   4.713   5.238   5.361
 8903TIP3    H226667   4.821   5.334   5.405
 8904TIP3   OH226668   4.878   6.183   2.971
 8904TIP3    H126669   4.902   6.120   3.038
 8904TIP3    H226670   4.881   6.133   2.889
 8905TIP3   OH226671   0.312   6.093   3.678
 8905TIP3    H126672   0.335   6.080   3.770
 8905TIP3    H226673   0.382   6.149   3.644
 8906TIP3   OH226674   4.416   5.541   2.253
 8906TIP3    H126675   4.424   5.586   2.337
 8906TIP3    H226676   4.501   5.553   2.211
 8907TIP3   OH226677   0.715   6.658   5.183
 8907TIP3    H126678   0.637   6.603   5.194
 8907TIP3    H226679   0.719   6.710   5.263
 8908TIP3   OH226680   0.901   4.081   0.804
 8908TIP3    H126681   0.813   4.045   0.804
 8908TIP3    H226682   0.923   4.091   0.711
 8909TIP3   OH226683   2.347   6.696   1.911
 8909TIP3    H126684   2.320   6.729   1.825
 8909TIP3    H226685   2.268   6.660   1.949
 8910TIP3   OH226686   1.664   4.907   0.785
 8910TIP3    H126687   1.680   4.914   0.691
 8910TIP3    H226688   1.573   4.937   0.796
 8911TIP3   OH226689   4.340   0.738   3.088
 8911TIP3    H126690   4.368   0.662   3.036
 8911TIP3    H226691   4.422   0.775   3.122
 8912TIP3   OH226692   2.304   7.467   4.864
 8912TIP3    H126693   2.370   7.471   4.933
 8912TIP3    H226694   2.316   7.549   4.815
 8913TIP3   OH226695   7.995   4.268   3.738
 8913TIP3    H126696   7.993   4.333   3.809
 8913TIP3    H226697   7.996   4.183   3.783
 8914TIP3   OH226698   0.996   5.811   2.323
 8914TIP3    H126699   1.057   5.737   2.330
 8914TIP3    H226700   0.999   5.852   2.409
 8915TIP3   OH226701   0.586   7.274   0.474
 8915TIP3    H126702   0.530   7.311   0.542
 8915TIP3    H226703   0.530   7.268   0.397
 8916TIP3   OH226704   3.373   5.198   2.103
 8916TIP3    H126705   3.384   5.179   2.196
 8916TIP3    H226706   3.278   5.192   2.089
 8917TIP3   OH226707   1.294   4.669   5.373
 8917TIP3    H126708   1.259   4.662   5.461
 8917TIP3    H226709   1.288   4.762   5.351
 8918TIP3   OH226710   8.074   3.447   3.115
 8918TIP3    H126711   8.066   3.424   3.207
 8918TIP3    H226712   8.167   3.468   3.104
 8919TIP3   OH226713   5.601   3.801   3.039
 8919TIP3    H126714   5.658   3.878   3.043
 8919TIP3    H226715   5.528   3.823   3.097
 8920TIP3   OH226716   5.445   7.405   2.483
 8920TIP3    H126717   5.491   7.461   2.546
 8920TIP3    H226718   5.475   7.317   2.503
 8921TIP3   OH226719   2.276   5.406   5.098
 8921TIP3    H126720   2.334   5.329   5.095
 8921TIP3    H226721   2.246   5.416   5.008
 8922TIP3   OH226722   4.448   2.441   0.117
 8922TIP3    H126723   4.400   2.472   0.193
 8922TIP3    H226724   4.381   2.429   0.050
 8923TIP3   OH226725   0.510   2.958   0.338
 8923TIP3    H126726   0.536   3.012   0.413
 8923TIP3    H226727   0.418   2.937   0.354
 8924TIP3   OH226728   6.982   5.870   6.393
 8924TIP3    H126729   6.906   5.919   6.424
 8924TIP3    H226730   7.057   5.927   6.412
 8925TIP3   OH226731   8.047   6.769   2.299
 8925TIP3    H126732   8.053   6.779   2.394
 8925TIP3    H226733   8.092   6.687   2.281
 8926TIP3   OH226734   3.175   7.242   0.968
 8926TIP3    H126735   3.164   7.335   0.952
 8926TIP3    H226736   3.158   7.231   1.061
 8927TIP3   OH226737   1.275   2.917   4.251
 8927TIP3    H126738   1.295   2.962   4.168
 8927TIP3    H226739   1.310   2.975   4.318
 8928TIP3   OH226740   8.315   5.543   1.333
 8928TIP3    H126741   8.342   5.632   1.357
 8928TIP3    H226742   8.231   5.530   1.377
 8929TIP3   OH226743   3.411   2.632   5.661
 8929TIP3    H126744   3.478   2.681   5.707
 8929TIP3    H226745   3.401   2.677   5.577
 8930TIP3   OH226746   7.094   3.538   1.917
 8930TIP3    H126747   7.043   3.486   1.855
 8930TIP3    H226748   7.171   3.485   1.936
 8931TIP3   OH226749   7.143   0.713   0.974
 8931TIP3    H126750   7.157   0.647   1.042
 8931TIP3    H226751   7.226   0.716   0.926
 8932TIP3   OH226752   8.202   5.733   6.405
 8932TIP3    H126753   8.108   5.748   6.391
 8932TIP3    H226754   8.238   5.725   6.317
 8933TIP3   OH226755   8.147   3.246   5.694
 8933TIP3    H126756   8.203   3.271   5.621
 8933TIP3    H226757   8.195   3.275   5.772
 8934TIP3   OH226758   7.509   7.386   3.942
 8934TIP3    H126759   7.524   7.450   3.873
 8934TIP3    H226760   7.416   7.364   3.936
 8935TIP3   OH226761   6.647   5.121   4.277
 8935TIP3    H126762   6.647   5.170   4.360
 8935TIP3    H226763   6.736   5.089   4.268
 8936TIP3   OH226764   1.973   0.201   0.454
 8936TIP3    H126765   1.924   0.279   0.481
 8936TIP3    H226766   2.019   0.174   0.534
 8937TIP3   OH226767   6.018   2.535   2.144
 8937TIP3    H126768   5.981   2.447   2.150
 8937TIP3    H226769   5.980   2.582   2.218
 8938TIP3   OH226770   4.974   3.157   3.701
 8938TIP3    H126771   5.001   3.249   3.694
 8938TIP3    H226772   5.027   3.123   3.773
 8939TIP3   OH226773   7.253   4.184   2.906
 8939TIP3    H126774   7.204   4.202   2.986
 8939TIP3    H226775   7.250   4.266   2.857
 8940TIP3   OH226776   8.090   1.239   5.273
 8940TIP3    H126777   8.047   1.280   5.348
 8940TIP3    H226778   8.141   1.309   5.234
 8941TIP3   OH226779   6.862   3.600   5.429
 8941TIP3    H126780   6.881   3.681   5.478
 8941TIP3    H226781   6.829   3.540   5.495
 8942TIP3   OH226782   0.840   2.666   2.574
 8942TIP3    H126783   0.920   2.645   2.527
 8942TIP3    H226784   0.865   2.668   2.666
 8943TIP3   OH226785   7.699   3.858   4.765
 8943TIP3    H126786   7.711   3.903   4.682
 8943TIP3    H226787   7.785   3.821   4.785
 8944TIP3   OH226788   0.592   6.376   2.337
 8944TIP3    H126789   0.666   6.341   2.287
 8944TIP3    H226790   0.600   6.337   2.424
 8945TIP3   OH226791   7.045   4.710   6.260
 8945TIP3    H126792   7.054   4.696   6.354
 8945TIP3    H226793   7.113   4.655   6.221
 8946TIP3   OH226794   6.749   5.396   2.834
 8946TIP3    H126795   6.653   5.403   2.835
 8946TIP3    H226796   6.780   5.484   2.854
 8947TIP3   OH226797   3.776   7.280   0.501
 8947TIP3    H126798   3.774   7.235   0.585
 8947TIP3    H226799   3.855   7.247   0.458
 8948TIP3   OH226800   7.665   2.613   4.493
 8948TIP3    H126801   7.727   2.686   4.500
 8948TIP3    H226802   7.716   2.535   4.515
 8949TIP3   OH226803   3.698   1.489   4.764
 8949TIP3    H126804   3.715   1.525   4.677
 8949TIP3    H226805   3.685   1.395   4.750
 8950TIP3   OH226806   7.268   6.915   4.372
 8950TIP3    H126807   7.303   6.980   4.433
 8950TIP3    H226808   7.175   6.935   4.366
 8951TIP3   OH226809   0.787   2.324   3.698
 8951TIP3    H126810   0.873   2.361   3.679
 8951TIP3    H226811   0.742   2.325   3.614
 8952TIP3   OH226812   0.378   0.360   5.197
 8952TIP3    H126813   0.431   0.311   5.260
 8952TIP3    H226814   0.366   0.302   5.123
 8953TIP3   OH226815   6.657   7.006   2.483
 8953TIP3    H126816   6.614   6.938   2.432
 8953TIP3    H226817   6.637   6.985   2.574
 8954TIP3   OH226818   7.263   2.213   0.672
 8954TIP3    H126819   7.328   2.284   0.670
 8954TIP3    H226820   7.195   2.242   0.612
 8955TIP3   OH226821   8.064   6.064   4.974
 8955TIP3    H126822   7.996   6.099   4.915
 8955TIP3    H226823   8.086   6.139   5.030
 8956TIP3   OH226824   2.158   3.554   4.076
 8956TIP3    H126825   2.238   3.518   4.037
 8956TIP3    H226826   2.138   3.495   4.149
 8957TIP3   OH226827   2.937   6.815   1.308
 8957TIP3    H126828   2.879   6.742   1.286
 8957TIP3    H226829   3.025   6.779   1.297
 8958TIP3   OH226830   7.816   5.758   1.113
 8958TIP3    H126831   7.912   5.766   1.112
 8958TIP3    H226832   7.796   5.734   1.204
 8959TIP3   OH226833   0.275   1.162   3.895
 8959TIP3    H126834   0.244   1.235   3.843
 8959TIP3    H226835   0.265   1.086   3.838
 8960TIP3   OH226836   0.458   1.017   1.551
 8960TIP3    H126837   0.415   1.103   1.545
 8960TIP3    H226838   0.387   0.957   1.575
 8961TIP3   OH226839   6.340   6.874   3.973
 8961TIP3    H126840   6.392   6.951   3.996
 8961TIP3    H226841   6.391   6.800   4.006
 8962TIP3   OH226842   5.302   1.286   3.211
 8962TIP3    H126843   5.297   1.207   3.157
 8962TIP3    H226844   5.387   1.324   3.189
 8963TIP3   OH226845   4.914   2.043   5.914
 8963TIP3    H126846   4.898   1.950   5.926
 8963TIP3    H226847   4.887   2.061   5.823
 8964TIP3   OH226848   5.647   0.576   0.445
 8964TIP3    H126849   5.713   0.612   0.386
 8964TIP3    H226850   5.658   0.624   0.527
 8965TIP3   OH226851   1.374   5.854   1.972
 8965TIP3    H126852   1.420   5.930   2.008
 8965TIP3    H226853   1.371   5.791   2.045
 8966TIP3   OH226854   8.066   6.896   0.489
 8966TIP3    H126855   8.149   6.920   0.448
 8966TIP3    H226856   8.015   6.977   0.488
 8967TIP3   OH226857   3.634   5.026   4.573
 8967TIP3    H126858   3.711   4.994   4.527
 8967TIP3    H226859   3.648   5.000   4.664
 8968TIP3   OH226860   7.544   7.382   5.394
 8968TIP3    H126861   7.582   7.301   5.428
 8968TIP3    H226862   7.451   7.362   5.382
 8969TIP3   OH226863   7.733   2.432   3.977
 8969TIP3    H126864   7.716   2.475   4.062
 8969TIP3    H226865   7.661   2.370   3.968
 8970TIP3   OH226866   6.650   1.701   5.689
 8970TIP3    H126867   6.707   1.635   5.651
 8970TIP3    H226868   6.689   1.784   5.663
 8971TIP3   OH226869   1.112   6.205   2.833
 8971TIP3    H126870   1.132   6.232   2.922
 8971TIP3    H226871   1.134   6.281   2.779
 8972TIP3   OH226872   5.834   3.906   5.630
 8972TIP3    H126873   5.929   3.902   5.627
 8972TIP3    H226874   5.805   3.836   5.572
 8973TIP3   OH226875   7.860   5.801   5.380
 8973TIP3    H126876   7.816   5.867   5.327
 8973TIP3    H226877   7.914   5.852   5.441
 8974TIP3   OH226878   7.923   7.561   0.344
 8974TIP3    H126879   8.008   7.520   0.331
 8974TIP3    H226880   7.943   7.646   0.384
 8975TIP3   OH226881   3.254   0.993   2.299
 8975TIP3    H126882   3.201   0.919   2.270
 8975TIP3    H226883   3.323   0.955   2.353
 8976TIP3   OH226884   1.582   1.587   3.730
 8976TIP3    H126885   1.537   1.504   3.713
 8976TIP3    H226886   1.648   1.593   3.662
 8977TIP3   OH226887   4.529   3.904   6.035
 8977TIP3    H126888   4.516   3.855   6.116
 8977TIP3    H226889   4.441   3.920   6.002
 8978TIP3   OH226890   2.040   2.018   4.667
 8978TIP3    H126891   1.981   1.996   4.739
 8978TIP3    H226892   1.984   2.011   4.589
 8979TIP3   OH226893   4.517   0.450   2.162
 8979TIP3    H126894   4.523   0.542   2.135
 8979TIP3    H226895   4.607   0.421   2.170
 8980TIP3   OH226896   1.455   5.215   3.019
 8980TIP3    H126897   1.380   5.269   3.043
 8980TIP3    H226898   1.423   5.160   2.948
 8981TIP3   OH226899   3.586   5.112   0.502
 8981TIP3    H126900   3.670   5.078   0.532
 8981TIP3    H226901   3.609   5.189   0.451
 8982TIP3   OH226902   3.966   6.545   3.958
 8982TIP3    H126903   3.885   6.524   4.005
 8982TIP3    H226904   4.036   6.524   4.019
 8983TIP3   OH226905   4.787   1.622   1.093
 8983TIP3    H126906   4.720   1.570   1.139
 8983TIP3    H226907   4.756   1.628   1.003
 8984TIP3   OH226908   6.269   0.133   3.672
 8984TIP3    H126909   6.226   0.124   3.757
 8984TIP3    H226910   6.292   0.044   3.647
 8985TIP3   OH226911   5.696   0.640   1.064
 8985TIP3    H126912   5.761   0.649   1.133
 8985TIP3    H226913   5.736   0.580   1.001
 8986TIP3   OH226914   8.052   6.873   0.991
 8986TIP3    H126915   8.097   6.885   0.907
 8986TIP3    H226916   8.115   6.904   1.057
 8987TIP3   OH226917   0.521   5.632   3.335
 8987TIP3    H126918   0.608   5.619   3.297
 8987TIP3    H226919   0.536   5.682   3.414
 8988TIP3   OH226920   3.975   0.483   4.388
 8988TIP3    H126921   3.900   0.426   4.373
 8988TIP3    H226922   3.982   0.536   4.309
 8989TIP3   OH226923   2.214   5.452   3.465
 8989TIP3    H126924   2.145   5.519   3.461
 8989TIP3    H226925   2.282   5.490   3.520
 8990TIP3   OH226926   7.310   5.940   4.517
 8990TIP3    H126927   7.374   5.982   4.460
 8990TIP3    H226928   7.355   5.928   4.601
 8991TIP3   OH226929   7.590   5.431   6.522
 8991TIP3    H126930   7.503   5.464   6.544
 8991TIP3    H226931   7.580   5.336   6.521
 8992TIP3   OH226932   4.413   2.630   2.017
 8992TIP3    H126933   4.378   2.626   2.106
 8992TIP3    H226934   4.351   2.685   1.969
 8993TIP3   OH226935   6.026   2.171   0.746
 8993TIP3    H126936   6.016   2.155   0.652
 8993TIP3    H226937   6.106   2.222   0.753
 8994TIP3   OH226938   4.889   7.787   4.689
 8994TIP3    H126939   4.845   7.807   4.607
 8994TIP3    H226940   4.819   7.773   4.752
 8995TIP3   OH226941   0.989   6.475   6.292
 8995TIP3    H126942   0.932   6.551   6.303
 8995TIP3    H226943   0.958   6.412   6.357
 8996TIP3   OH226944   0.755   7.036   1.140
 8996TIP3    H126945   0.805   7.030   1.059
 8996TIP3    H226946   0.723   6.947   1.155
 8997TIP3   OH226947   0.227   5.800   6.569
 8997TIP3    H126948   0.143   5.753   6.568
 8997TIP3    H226949   0.243   5.820   6.661
 8998TIP3   OH226950   3.349   7.263   2.109
 8998TIP3    H126951   3.265   7.218   2.115
 8998TIP3    H226952   3.358   7.308   2.193
 8999TIP3   OH226953   6.889   0.391   5.704
 8999TIP3    H126954   6.802   0.402   5.743
 8999TIP3    H226955   6.906   0.297   5.711
 9000TIP3   OH226956   1.024   2.230   6.148
 9000TIP3    H126957   0.938   2.204   6.115
 9000TIP3    H226958   1.031   2.323   6.128
 9001TIP3   OH226959   3.163   3.285   1.862
 9001TIP3    H126960   3.080   3.323   1.890
 9001TIP3    H226961   3.138   3.213   1.804
 9002TIP3   OH226962   8.141   0.923   4.385
 9002TIP3    H126963   8.190   0.863   4.440
 9002TIP3    H226964   8.193   0.931   4.305
 9003TIP3   OH226965   5.675   2.720   5.925
 9003TIP3    H126966   5.703   2.809   5.945
 9003TIP3    H226967   5.660   2.721   5.830
 9004TIP3   OH226968   5.206   0.118   4.647
 9004TIP3    H126969   5.191   0.032   4.609
 9004TIP3    H226970   5.253   0.167   4.579
 9005TIP3   OH226971   2.461   3.362   5.040
 9005TIP3    H126972   2.493   3.362   5.130
 9005TIP3    H226973   2.541   3.357   4.986
 9006TIP3   OH226974   3.766   6.913   2.281
 9006TIP3    H126975   3.782   6.999   2.241
 9006TIP3    H226976   3.850   6.867   2.272
 9007TIP3   OH226977   6.628   0.559   5.296
 9007TIP3    H126978   6.605   0.638   5.346
 9007TIP3    H226979   6.615   0.584   5.205
 9008TIP3   OH226980   4.665   4.935   2.448
 9008TIP3    H126981   4.710   5.015   2.420
 9008TIP3    H226982   4.572   4.954   2.434
 9009TIP3   OH226983   1.157   0.341  -0.028
 9009TIP3    H126984   1.199   0.423  -0.002
 9009TIP3    H226985   1.099   0.319   0.045
 9010TIP3   OH226986   0.994   7.715   4.060
 9010TIP3    H126987   1.039   7.652   4.004
 9010TIP3    H226988   0.911   7.672   4.082
 9011TIP3   OH226989   8.173   2.869   5.742
 9011TIP3    H126990   8.247   2.890   5.800
 9011TIP3    H226991   8.107   2.935   5.763
 9012TIP3   OH226992   6.558   1.254   1.748
 9012TIP3    H126993   6.541   1.200   1.671
 9012TIP3    H226994   6.632   1.212   1.791
 9013TIP3   OH226995   2.780   3.365   0.458
 9013TIP3    H126996   2.783   3.405   0.370
 9013TIP3    H226997   2.687   3.356   0.476
 9014TIP3   OH226998   7.889   7.356   3.909
 9014TIP3    H126999   7.955   7.423   3.892
 9014TIP3    H227000   7.805   7.401   3.897
 9015TIP3   OH227001   3.599   4.845   3.333
 9015TIP3    H127002   3.518   4.884   3.365
 9015TIP3    H227003   3.607   4.762   3.381
 9016TIP3   OH227004   2.040   4.387   1.769
 9016TIP3    H127005   2.054   4.450   1.840
 9016TIP3    H227006   2.093   4.421   1.696
 9017TIP3   OH227007   2.469   4.365   0.125
 9017TIP3    H127008   2.495   4.276   0.104
 9017TIP3    H227009   2.544   4.419   0.098
 9018TIP3   OH227010   6.179   7.312   1.444
 9018TIP3    H127011   6.167   7.224   1.406
 9018TIP3    H227012   6.138   7.306   1.531
 9019TIP3   OH227013   7.253   1.806   0.616
 9019TIP3    H127014   7.256   1.710   0.618
 9019TIP3    H227015   7.209   1.827   0.534
 9020TIP3   OH227016   0.067   3.389   0.262
 9020TIP3    H127017   0.125   3.419   0.332
 9020TIP3    H227018  -0.016   3.435   0.279
 9021TIP3   OH227019   7.871   2.510   6.385
 9021TIP3    H127020   7.866   2.473   6.297
 9021TIP3    H227021   7.796   2.474   6.431
 9022TIP3   OH227022   3.815   1.631   3.886
 9022TIP3    H127023   3.902   1.615   3.849
 9022TIP3    H227024   3.762   1.558   3.856
 9023TIP3   OH227025   4.261   3.398   0.863
 9023TIP3    H127026   4.251   3.424   0.954
 9023TIP3    H227027   4.242   3.304   0.863
 9024TIP3   OH227028   0.381   2.551   1.829
 9024TIP3    H127029   0.351   2.484   1.891
 9024TIP3    H227030   0.475   2.559   1.846
 9025TIP3   OH227031   6.748   7.136   4.602
 9025TIP3    H127032   6.837   7.169   4.613
 9025TIP3    H227033   6.732   7.143   4.508
 9026TIP3   OH227034   3.391   1.711   4.203
 9026TIP3    H127035   3.361   1.795   4.169
 9026TIP3    H227036   3.353   1.706   4.291
 9027TIP3   OH227037   7.417   2.449   0.713
 9027TIP3    H127038   7.500   2.482   0.679
 9027TIP3    H227039   7.437   2.426   0.804
 9028TIP3   OH227040   3.756   0.259   1.896
 9028TIP3    H127041   3.812   0.216   1.961
 9028TIP3    H227042   3.748   0.195   1.825
 9029TIP3   OH227043   3.005   5.728   2.861
 9029TIP3    H127044   2.988   5.635   2.849
 9029TIP3    H227045   2.988   5.744   2.954
 9030TIP3   OH227046   1.592   7.542   1.752
 9030TIP3    H127047   1.504   7.563   1.720
 9030TIP3    H227048   1.635   7.626   1.765
 9031TIP3   OH227049   4.956   6.110   4.376
 9031TIP3    H127050   4.903   6.030   4.389
 9031TIP3    H227051   5.044   6.077   4.357
 9032TIP3   OH227052   7.888   7.185   6.145
 9032TIP3    H127053   7.867   7.210   6.235
 9032TIP3    H227054   7.808   7.205   6.095
 9033TIP3   OH227055   1.344   3.836   0.120
 9033TIP3    H127056   1.336   3.857   0.027
 9033TIP3    H227057   1.370   3.744   0.121
 9034TIP3   OH227058   0.714   4.370   0.336
 9034TIP3    H127059   0.698   4.312   0.411
 9034TIP3    H227060   0.800   4.408   0.354
 9035TIP3   OH227061   7.492   0.421   0.479
 9035TIP3    H127062   7.576   0.417   0.526
 9035TIP3    H227063   7.427   0.441   0.546
 9036TIP3   OH227064   7.909   2.152   1.843
 9036TIP3    H127065   7.836   2.201   1.805
 9036TIP3    H227066   7.947   2.212   1.907
 9037TIP3   OH227067   4.760   4.031   0.203
 9037TIP3    H127068   4.722   4.080   0.276
 9037TIP3    H227069   4.819   3.969   0.245
 9038TIP3   OH227070   1.581   0.160   1.113
 9038TIP3    H127071   1.532   0.186   1.035
 9038TIP3    H227072   1.572   0.234   1.173
 9039TIP3   OH227073   6.434   4.482   6.671
 9039TIP3    H127074   6.437   4.466   6.765
 9039TIP3    H227075   6.485   4.410   6.633
 9040TIP3   OH227076   4.040   1.447   6.512
 9040TIP3    H127077   4.069   1.356   6.513
 9040TIP3    H227078   4.006   1.463   6.600
 9041TIP3   OH227079   0.701   1.925   3.384
 9041TIP3    H127080   0.665   1.975   3.311
 9041TIP3    H227081   0.740   1.848   3.344
 9042TIP3   OH227082   1.279   4.302   1.909
 9042TIP3    H127083   1.196   4.312   1.863
 9042TIP3    H227084   1.279   4.374   1.973
 9043TIP3   OH227085   5.586   6.548   0.327
 9043TIP3    H127086   5.521   6.579   0.264
 9043TIP3    H227087   5.658   6.516   0.274
 9044TIP3   OH227088   3.707   3.089   5.987
 9044TIP3    H127089   3.781   3.118   5.933
 9044TIP3    H227090   3.689   3.000   5.958
 9045TIP3   OH227091   7.534   0.984   6.687
 9045TIP3    H127092   7.612   1.025   6.648
 9045TIP3    H227093   7.470   1.055   6.692
 9046TIP3   OH227094   7.912   6.382   1.825
 9046TIP3    H127095   7.866   6.348   1.748
 9046TIP3    H227096   7.841   6.410   1.884
 9047TIP3   OH227097   7.754   3.103   3.967
 9047TIP3    H127098   7.834   3.059   3.939
 9047TIP3    H227099   7.683   3.050   3.931
 9048TIP3   OH227100   2.083   0.451   3.292
 9048TIP3    H127101   2.179   0.449   3.288
 9048TIP3    H227102   2.063   0.500   3.372
 9049TIP3   OH227103   1.668   3.126   5.781
 9049TIP3    H127104   1.700   3.037   5.770
 9049TIP3    H227105   1.722   3.163   5.852
 9050TIP3   OH227106   5.896   7.218   3.439
 9050TIP3    H127107   5.978   7.174   3.460
 9050TIP3    H227108   5.844   7.151   3.394
 9051TIP3   OH227109   1.172   6.777   2.804
 9051TIP3    H127110   1.146   6.868   2.789
 9051TIP3    H227111   1.095   6.725   2.778
 9052TIP3   OH227112   5.339   1.931   3.916
 9052TIP3    H127113   5.402   1.995   3.950
 9052TIP3    H227114   5.305   1.888   3.994
 9053TIP3   OH227115   2.995   0.013   4.589
 9053TIP3    H127116   3.062  -0.050   4.613
 9053TIP3    H227117   3.030   0.056   4.511
 9054TIP3   OH227118   3.797   4.442   0.459
 9054TIP3    H127119   3.768   4.533   0.452
 9054TIP3    H227120   3.724   4.391   0.424
 9055TIP3   OH227121   1.005   1.555   3.548
 9055TIP3    H127122   0.977   1.543   3.457
 9055TIP3    H227123   0.946   1.621   3.583
 9056TIP3   OH227124   1.506   3.852   2.971
 9056TIP3    H127125   1.571   3.855   2.901
 9056TIP3    H227126   1.444   3.784   2.944
 9057TIP3   OH227127   6.998   3.833   1.940
 9057TIP3    H127128   7.001   3.853   1.846
 9057TIP3    H227129   7.009   3.738   1.944
 9058TIP3   OH227130   7.051   2.871   6.330
 9058TIP3    H127131   6.997   2.880   6.252
 9058TIP3    H227132   7.108   2.797   6.312
 9059TIP3   OH227133   7.102   4.563   1.716
 9059TIP3    H127134   7.107   4.551   1.621
 9059TIP3    H227135   7.009   4.563   1.736
 9060TIP3   OH227136   0.871   3.139   5.845
 9060TIP3    H127137   0.785   3.124   5.883
 9060TIP3    H227138   0.898   3.224   5.878
 9061TIP3   OH227139   1.044   7.677   3.436
 9061TIP3    H127140   1.043   7.761   3.482
 9061TIP3    H227141   1.134   7.667   3.405
 9062TIP3   OH227142   5.011   4.678   0.399
 9062TIP3    H127143   5.053   4.614   0.456
 9062TIP3    H227144   5.083   4.726   0.358
 9063TIP3   OH227145   2.476   4.609   4.931
 9063TIP3    H127146   2.542   4.587   4.866
 9063TIP3    H227147   2.428   4.528   4.945
 9064TIP3   OH227148   2.461   4.285   3.355
 9064TIP3    H127149   2.492   4.302   3.444
 9064TIP3    H227150   2.404   4.208   3.364
 9065TIP3   OH227151   0.213   3.151   4.122
 9065TIP3    H127152   0.148   3.219   4.106
 9065TIP3    H227153   0.174   3.070   4.088
 9066TIP3   OH227154   6.697   4.342   2.580
 9066TIP3    H127155   6.783   4.299   2.572
 9066TIP3    H227156   6.668   4.320   2.669
 9067TIP3   OH227157   4.492   4.559   3.625
 9067TIP3    H127158   4.527   4.471   3.609
 9067TIP3    H227159   4.565   4.618   3.604
 9068TIP3   OH227160   7.288   5.317   4.368
 9068TIP3    H127161   7.265   5.334   4.276
 9068TIP3    H227162   7.354   5.383   4.389
 9069TIP3   OH227163   5.892   7.430   2.339
 9069TIP3    H127164   5.886   7.389   2.425
 9069TIP3    H227165   5.828   7.384   2.286
 9070TIP3   OH227166   4.467   4.725   3.320
 9070TIP3    H127167   4.386   4.716   3.269
 9070TIP3    H227168   4.446   4.790   3.387
 9071TIP3   OH227169   1.465   7.347   0.816
 9071TIP3    H127170   1.474   7.353   0.721
 9071TIP3    H227171   1.471   7.253   0.834
 9072TIP3   OH227172   0.968   6.961   6.434
 9072TIP3    H127173   1.026   7.029   6.401
 9072TIP3    H227174   0.934   6.996   6.517
 9073TIP3   OH227175   2.861   0.018   3.860
 9073TIP3    H127176   2.895   0.102   3.888
 9073TIP3    H227177   2.815   0.036   3.778
 9074TIP3   OH227178   7.528   7.359   0.655
 9074TIP3    H127179   7.568   7.299   0.717
 9074TIP3    H227180   7.508   7.306   0.578
 9075TIP3   OH227181   1.183   5.362   4.810
 9075TIP3    H127182   1.257   5.376   4.750
 9075TIP3    H227183   1.223   5.364   4.897
 9076TIP3   OH227184   2.219   5.988   3.349
 9076TIP3    H127185   2.271   6.051   3.300
 9076TIP3    H227186   2.177   6.040   3.418
 9077TIP3   OH227187   2.205   2.136   1.512
 9077TIP3    H127188   2.240   2.102   1.430
 9077TIP3    H227189   2.277   2.185   1.551
 9078TIP3   OH227190   6.829   1.551   3.602
 9078TIP3    H127191   6.861   1.463   3.624
 9078TIP3    H227192   6.774   1.576   3.676
 9079TIP3   OH227193   8.191   7.368   5.931
 9079TIP3    H127194   8.170   7.285   5.888
 9079TIP3    H227195   8.210   7.428   5.860
 9080TIP3   OH227196   6.233   0.615   0.974
 9080TIP3    H127197   6.295   0.550   0.942
 9080TIP3    H227198   6.255   0.627   1.067
 9081TIP3   OH227199   2.116   0.318   3.815
 9081TIP3    H127200   2.111   0.395   3.871
 9081TIP3    H227201   2.151   0.249   3.871
 9082TIP3   OH227202   0.662   4.723   1.458
 9082TIP3    H127203   0.611   4.775   1.396
 9082TIP3    H227204   0.612   4.642   1.469
 9083TIP3   OH227205   4.268   0.112   1.603
 9083TIP3    H127206   4.205   0.179   1.575
 9083TIP3    H227207   4.264   0.114   1.698
 9084TIP3   OH227208   0.733   6.565   1.716
 9084TIP3    H127209   0.701   6.540   1.803
 9084TIP3    H227210   0.688   6.647   1.697
 9085TIP3   OH227211   2.719   0.949   4.141
 9085TIP3    H127212   2.746   0.859   4.122
 9085TIP3    H227213   2.704   0.949   4.236
 9086TIP3   OH227214   8.006   5.014   6.682
 9086TIP3    H127215   8.100   5.022   6.699
 9086TIP3    H227216   7.975   5.104   6.674
 9087TIP3   OH227217   5.968   0.476   0.600
 9087TIP3    H127218   5.954   0.451   0.509
 9087TIP3    H227219   6.054   0.519   0.600
 9088TIP3   OH227220   6.198   4.914   3.110
 9088TIP3    H127221   6.191   5.003   3.078
 9088TIP3    H227222   6.107   4.884   3.118
 9089TIP3   OH227223   2.502   2.312   5.632
 9089TIP3    H127224   2.533   2.332   5.544
 9089TIP3    H227225   2.577   2.331   5.689
 9090TIP3   OH227226   0.384   5.497   4.818
 9090TIP3    H127227   0.355   5.406   4.808
 9090TIP3    H227228   0.308   5.549   4.793
 9091TIP3   OH227229   1.457   5.780   6.207
 9091TIP3    H127230   1.444   5.694   6.248
 9091TIP3    H227231   1.467   5.841   6.280
 9092TIP3   OH227232   2.201   2.943   4.724
 9092TIP3    H127233   2.119   2.988   4.702
 9092TIP3    H227234   2.262   2.970   4.654
 9093TIP3   OH227235   2.712   6.023   0.177
 9093TIP3    H127236   2.779   6.091   0.170
 9093TIP3    H227237   2.760   5.946   0.206
 9094TIP3   OH227238   6.162   0.183   3.031
 9094TIP3    H127239   6.181   0.240   2.957
 9094TIP3    H227240   6.076   0.147   3.012
 9095TIP3   OH227241   2.910   7.210   3.340
 9095TIP3    H127242   2.836   7.153   3.362
 9095TIP3    H227243   2.886   7.295   3.376
 9096TIP3   OH227244   7.128   6.038   5.234
 9096TIP3    H127245   7.191   6.093   5.281
 9096TIP3    H227246   7.163   5.949   5.242
 9097TIP3   OH227247   0.568   4.986   3.074
 9097TIP3    H127248   0.654   4.993   3.033
 9097TIP3    H227249   0.563   4.895   3.103
 9098TIP3   OH227250   7.733   0.241   4.748
 9098TIP3    H127251   7.649   0.287   4.755
 9098TIP3    H227252   7.715   0.167   4.691
 9099TIP3   OH227253   2.263   6.054   1.335
 9099TIP3    H127254   2.175   6.047   1.374
 9099TIP3    H227255   2.277   6.149   1.326
 9100TIP3   OH227256   3.943   7.708   4.052
 9100TIP3    H127257   3.910   7.747   3.971
 9100TIP3    H227258   3.867   7.705   4.110
 9101TIP3   OH227259   1.600   7.033   2.818
 9101TIP3    H127260   1.695   7.047   2.811
 9101TIP3    H227261   1.564   7.121   2.831
 9102TIP3   OH227262   3.064   1.962   0.618
 9102TIP3    H127263   3.007   1.931   0.688
 9102TIP3    H227264   3.151   1.964   0.657
 9103TIP3   OH227265   0.969   3.483   2.041
 9103TIP3    H127266   0.944   3.576   2.045
 9103TIP3    H227267   1.062   3.482   2.064
 9104TIP3   OH227268   4.316   3.734   2.026
 9104TIP3    H127269   4.257   3.783   2.082
 9104TIP3    H227270   4.353   3.799   1.966
 9105TIP3   OH227271   6.916   1.679   0.637
 9105TIP3    H127272   6.960   1.645   0.559
 9105TIP3    H227273   6.946   1.769   0.644
 9106TIP3   OH227274   5.621   6.330   5.242
 9106TIP3    H127275   5.560   6.367   5.178
 9106TIP3    H227276   5.568   6.271   5.295
 9107TIP3   OH227277   3.515   2.404   3.407
 9107TIP3    H127278   3.531   2.384   3.499
 9107TIP3    H227279   3.425   2.436   3.404
 9108TIP3   OH227280   1.287   1.862   4.228
 9108TIP3    H127281   1.300   1.945   4.274
 9108TIP3    H227282   1.195   1.841   4.243
 9109TIP3   OH227283   4.267   2.122   6.716
 9109TIP3    H127284   4.207   2.127   6.791
 9109TIP3    H227285   4.218   2.161   6.644
 9110TIP3   OH227286   6.994   6.241   4.210
 9110TIP3    H127287   7.075   6.238   4.261
 9110TIP3    H227288   7.013   6.301   4.138
 9111TIP3   OH227289   3.703   5.345   4.181
 9111TIP3    H127290   3.765   5.283   4.143
 9111TIP3    H227291   3.624   5.336   4.128
 9112TIP3   OH227292   2.729   2.248   1.201
 9112TIP3    H127293   2.711   2.220   1.111
 9112TIP3    H227294   2.764   2.171   1.244
 9113TIP3   OH227295   5.191   7.271   3.102
 9113TIP3    H127296   5.234   7.347   3.139
 9113TIP3    H227297   5.241   7.252   3.022
 9114TIP3   OH227298   4.194   1.815   5.645
 9114TIP3    H127299   4.285   1.788   5.662
 9114TIP3    H227300   4.141   1.751   5.692
 9115TIP3   OH227301   0.516   1.456   5.306
 9115TIP3    H127302   0.450   1.509   5.350
 9115TIP3    H227303   0.581   1.437   5.373
 9116TIP3   OH227304   4.341   4.832   6.789
 9116TIP3    H127305   4.275   4.800   6.728
 9116TIP3    H227306   4.417   4.852   6.734
 9117TIP3   OH227307   6.602   1.126   3.891
 9117TIP3    H127308   6.560   1.132   3.977
 9117TIP3    H227309   6.567   1.046   3.852
 9118TIP3   OH227310   3.715   7.607   2.723
 9118TIP3    H127311   3.682   7.544   2.659
 9118TIP3    H227312   3.810   7.604   2.714
 9119TIP3   OH227313   8.227   7.788   4.070
 9119TIP3    H127314   8.287   7.800   3.997
 9119TIP3    H227315   8.238   7.866   4.124
 9120TIP3   OH227316   0.606   4.341   6.258
 9120TIP3    H127317   0.635   4.266   6.311
 9120TIP3    H227318   0.687   4.373   6.217
 9121TIP3   OH227319   4.788   1.210   0.409
 9121TIP3    H127320   4.815   1.200   0.500
 9121TIP3    H227321   4.767   1.303   0.400
 9122TIP3   OH227322   3.104   7.045   0.764
 9122TIP3    H127323   3.122   7.100   0.840
 9122TIP3    H227324   3.051   7.100   0.706
 9123TIP3   OH227325   5.817   4.704   4.583
 9123TIP3    H127326   5.885   4.738   4.525
 9123TIP3    H227327   5.745   4.679   4.525
 9124TIP3   OH227328   3.468   5.465   1.463
 9124TIP3    H127329   3.513   5.549   1.472
 9124TIP3    H227330   3.532   5.408   1.419
 9125TIP3   OH227331   1.349   5.697   2.272
 9125TIP3    H127332   1.283   5.632   2.295
 9125TIP3    H227333   1.339   5.766   2.337
 9126TIP3   OH227334   2.606   0.685   2.493
 9126TIP3    H127335   2.615   0.776   2.521
 9126TIP3    H227336   2.645   0.635   2.565
 9127TIP3   OH227337   6.508   1.854   3.874
 9127TIP3    H127338   6.415   1.876   3.873
 9127TIP3    H227339   6.533   1.860   3.966
 9128TIP3   OH227340   0.775   0.106   3.383
 9128TIP3    H127341   0.680   0.108   3.395
 9128TIP3    H227342   0.793   0.021   3.345
 9129TIP3   OH227343   2.584   2.341   5.103
 9129TIP3    H127344   2.621   2.426   5.076
 9129TIP3    H227345   2.538   2.310   5.025
 9130TIP3   OH227346   3.099   4.545   4.202
 9130TIP3    H127347   3.018   4.597   4.201
 9130TIP3    H227348   3.084   4.477   4.136
 9131TIP3   OH227349   6.735   2.934   4.891
 9131TIP3    H127350   6.747   2.905   4.801
 9131TIP3    H227351   6.805   2.892   4.940
 9132TIP3   OH227352   3.530   7.039   3.772
 9132TIP3    H127353   3.465   6.980   3.811
 9132TIP3    H227354   3.569   6.988   3.701
 9133TIP3   OH227355   0.690   1.608   1.811
 9133TIP3    H127356   0.638   1.683   1.841
 9133TIP3    H227357   0.628   1.554   1.762
 9134TIP3   OH227358   5.560   6.941   5.944
 9134TIP3    H127359   5.608   6.914   6.023
 9134TIP3    H227360   5.601   6.891   5.874
 9135TIP3   OH227361   5.198   7.615   5.303
 9135TIP3    H127362   5.155   7.583   5.224
 9135TIP3    H227363   5.197   7.540   5.363
 9136TIP3   OH227364   7.134   6.709   3.805
 9136TIP3    H127365   7.074   6.768   3.759
 9136TIP3    H227366   7.144   6.634   3.745
 9137TIP3   OH227367   0.237   1.996   4.768
 9137TIP3    H127368   0.252   1.924   4.707
 9137TIP3    H227369   0.320   2.041   4.774
 9138TIP3   OH227370   6.461   2.180   2.830
 9138TIP3    H127371   6.484   2.243   2.898
 9138TIP3    H227372   6.532   2.187   2.766
 9139TIP3   OH227373   0.266   1.444   4.791
 9139TIP3    H127374   0.208   1.367   4.789
 9139TIP3    H227375   0.311   1.441   4.707
 9140TIP3   OH227376   2.629   6.356   4.637
 9140TIP3    H127377   2.685   6.405   4.697
 9140TIP3    H227378   2.623   6.411   4.559
 9141TIP3   OH227379   2.412   7.827   0.962
 9141TIP3    H127380   2.500   7.844   0.931
 9141TIP3    H227381   2.361   7.808   0.883
 9142TIP3   OH227382   6.290   2.963   0.713
 9142TIP3    H127383   6.362   2.926   0.764
 9142TIP3    H227384   6.282   3.053   0.745
 9143TIP3   OH227385   1.910   1.117   0.433
 9143TIP3    H127386   1.908   1.022   0.444
 9143TIP3    H227387   1.844   1.150   0.493
 9144TIP3   OH227388   0.091   0.588   3.743
 9144TIP3    H127389   0.056   0.511   3.698
 9144TIP3    H227390   0.141   0.634   3.676
 9145TIP3   OH227391   2.188   6.783   5.288
 9145TIP3    H127392   2.280   6.807   5.274
 9145TIP3    H227393   2.188   6.732   5.369
 9146TIP3   OH227394   4.286   4.034   1.781
 9146TIP3    H127395   4.334   3.998   1.706
 9146TIP3    H227396   4.353   4.076   1.835
 9147TIP3   OH227397   4.499   4.950   6.040
 9147TIP3    H127398   4.462   4.894   5.972
 9147TIP3    H227399   4.471   5.038   6.015
 9148TIP3   OH227400   3.381   2.594   1.801
 9148TIP3    H127401   3.303   2.590   1.746
 9148TIP3    H227402   3.394   2.503   1.829
 9149TIP3   OH227403   5.375   6.371   4.203
 9149TIP3    H127404   5.343   6.427   4.274
 9149TIP3    H227405   5.391   6.286   4.244
 9150TIP3   OH227406   7.412   4.371   0.447
 9150TIP3    H127407   7.385   4.354   0.537
 9150TIP3    H227408   7.362   4.309   0.394
 9151TIP3   OH227409   5.154   5.258   0.066
 9151TIP3    H127410   5.094   5.333   0.062
 9151TIP3    H227411   5.103   5.184   0.033
 9152TIP3   OH227412   4.626   7.293   1.949
 9152TIP3    H127413   4.571   7.300   1.871
 9152TIP3    H227414   4.621   7.201   1.975
 9153TIP3   OH227415   5.670   1.173   0.288
 9153TIP3    H127416   5.653   1.088   0.247
 9153TIP3    H227417   5.731   1.216   0.228
 9154TIP3   OH227418   0.558   4.516   3.999
 9154TIP3    H127419   0.477   4.558   4.029
 9154TIP3    H227420   0.622   4.586   3.995
 9155TIP3   OH227421   4.401   6.168   4.442
 9155TIP3    H127422   4.310   6.191   4.459
 9155TIP3    H227423   4.424   6.217   4.363
 9156TIP3   OH227424   4.763   5.883   6.469
 9156TIP3    H127425   4.763   5.879   6.374
 9156TIP3    H227426   4.751   5.792   6.497
 9157TIP3   OH227427   5.976   2.166   1.937
 9157TIP3    H127428   5.973   2.235   2.004
 9157TIP3    H227429   5.923   2.095   1.974
 9158TIP3   OH227430   1.151   1.154   5.163
 9158TIP3    H127431   1.057   1.150   5.179
 9158TIP3    H227432   1.183   1.066   5.185
 9159TIP3   OH227433   6.471   2.939   0.064
 9159TIP3    H127434   6.427   2.902   0.141
 9159TIP3    H227435   6.534   2.871   0.038
 9160TIP3   OH227436   2.447   3.534   0.049
 9160TIP3    H127437   2.499   3.457   0.028
 9160TIP3    H227438   2.399   3.510   0.129
 9161TIP3   OH227439   4.671   3.293   0.325
 9161TIP3    H127440   4.699   3.301   0.417
 9161TIP3    H227441   4.709   3.370   0.282
 9162TIP3   OH227442   5.304   4.966   0.811
 9162TIP3    H127443   5.235   4.905   0.784
 9162TIP3    H227444   5.257   5.041   0.848
 9163TIP3   OH227445   4.282   1.381   5.136
 9163TIP3    H127446   4.227   1.314   5.095
 9163TIP3    H227447   4.362   1.335   5.160
 9164TIP3   OH227448   7.054   3.365   6.557
 9164TIP3    H127449   6.996   3.288   6.554
 9164TIP3    H227450   7.048   3.403   6.469
 9165TIP3   OH227451   1.066   2.494   6.099
 9165TIP3    H127452   1.129   2.555   6.138
 9165TIP3    H227453   1.037   2.536   6.019
 9166TIP3   OH227454   6.575   3.162   5.833
 9166TIP3    H127455   6.514   3.235   5.827
 9166TIP3    H227456   6.520   3.084   5.826
 9167TIP3   OH227457   0.804   2.387   5.671
 9167TIP3    H127458   0.807   2.292   5.685
 9167TIP3    H227459   0.878   2.405   5.613
 9168TIP3   OH227460   1.909   4.039   6.031
 9168TIP3    H127461   1.831   4.095   6.030
 9168TIP3    H227462   1.884   3.962   5.981
 9169TIP3   OH227463   1.207   2.381   3.571
 9169TIP3    H127464   1.165   2.457   3.611
 9169TIP3    H227465   1.290   2.372   3.618
 9170TIP3   OH227466   2.231   6.698   1.649
 9170TIP3    H127467   2.235   6.714   1.555
 9170TIP3    H227468   2.178   6.619   1.658
 9171TIP3   OH227469   6.069   2.531   4.490
 9171TIP3    H127470   6.096   2.440   4.500
 9171TIP3    H227471   6.124   2.579   4.552
 9172TIP3   OH227472   6.973   7.487   4.651
 9172TIP3    H127473   7.035   7.511   4.582
 9172TIP3    H227474   7.005   7.531   4.729
 9173TIP3   OH227475   5.350   1.694   3.376
 9173TIP3    H127476   5.324   1.686   3.285
 9173TIP3    H227477   5.419   1.760   3.376
 9174TIP3   OH227478   0.303   2.604   1.374
 9174TIP3    H127479   0.269   2.516   1.358
 9174TIP3    H227480   0.371   2.591   1.440
 9175TIP3   OH227481   1.124   7.503   2.349
 9175TIP3    H127482   1.159   7.510   2.438
 9175TIP3    H227483   1.187   7.550   2.294
 9176TIP3   OH227484   0.348   2.889   3.474
 9176TIP3    H127485   0.339   2.929   3.561
 9176TIP3    H227486   0.338   2.962   3.413
 9177TIP3   OH227487   7.579   6.569   2.788
 9177TIP3    H127488   7.662   6.543   2.828
 9177TIP3    H227489   7.556   6.497   2.729
 9178TIP3   OH227490   0.327   7.582   1.972
 9178TIP3    H127491   0.312   7.606   2.064
 9178TIP3    H227492   0.312   7.663   1.924
 9179TIP3   OH227493   8.178   6.115   1.170
 9179TIP3    H127494   8.098   6.092   1.216
 9179TIP3    H227495   8.245   6.119   1.238
 9180TIP3   OH227496   1.993   3.167   2.647
 9180TIP3    H127497   2.053   3.093   2.647
 9180TIP3    H227498   2.048   3.242   2.672
 9181TIP3   OH227499   8.202   6.553   5.962
 9181TIP3    H127500   8.253   6.473   5.962
 9181TIP3    H227501   8.186   6.572   5.870
 9182TIP3   OH227502  -0.019   0.197   5.007
 9182TIP3    H127503  -0.024   0.189   5.102
 9182TIP3    H227504  -0.011   0.107   4.976
 9183TIP3   OH227505   5.444   3.122   6.631
 9183TIP3    H127506   5.506   3.195   6.630
 9183TIP3    H227507   5.380   3.146   6.699
 9184TIP3   OH227508   0.538   5.115   0.579
 9184TIP3    H127509   0.560   5.199   0.539
 9184TIP3    H227510   0.442   5.118   0.588
 9185TIP3   OH227511   2.944   5.021   5.056
 9185TIP3    H127512   2.924   5.108   5.022
 9185TIP3    H227513   2.996   5.037   5.135
 9186TIP3   OH227514   4.516   7.553   2.861
 9186TIP3    H127515   4.591   7.608   2.837
 9186TIP3    H227516   4.505   7.494   2.786
 9187TIP3   OH227517   6.767   3.311   0.347
 9187TIP3    H127518   6.687   3.350   0.384
 9187TIP3    H227519   6.738   3.231   0.305
 9188TIP3   OH227520   5.268   1.248   1.459
 9188TIP3    H127521   5.341   1.311   1.466
 9188TIP3    H227522   5.239   1.256   1.368
 9189TIP3   OH227523   0.703   6.186   4.443
 9189TIP3    H127524   0.758   6.254   4.480
 9189TIP3    H227525   0.764   6.125   4.401
 9190TIP3   OH227526   1.296   3.458   3.179
 9190TIP3    H127527   1.391   3.459   3.186
 9190TIP3    H227528   1.279   3.414   3.096
 9191TIP3   OH227529   7.123   3.498   5.425
 9191TIP3    H127530   7.037   3.533   5.404
 9191TIP3    H227531   7.183   3.547   5.369
 9192TIP3   OH227532   8.241   7.172   2.293
 9192TIP3    H127533   8.328   7.169   2.331
 9192TIP3    H227534   8.224   7.266   2.279
 9193TIP3   OH227535   2.195   3.480   1.286
 9193TIP3    H127536   2.252   3.445   1.217
 9193TIP3    H227537   2.213   3.426   1.362
 9194TIP3   OH227538   7.061   4.371   4.516
 9194TIP3    H127539   7.003   4.392   4.443
 9194TIP3    H227540   7.008   4.316   4.573
 9195TIP3   OH227541   6.824   1.063   6.669
 9195TIP3    H127542   6.795   1.152   6.688
 9195TIP3    H227543   6.877   1.038   6.744
 9196TIP3   OH227544   3.350   0.373   1.888
 9196TIP3    H127545   3.331   0.356   1.796
 9196TIP3    H227546   3.285   0.322   1.936
 9197TIP3   OH227547   6.884   7.765   0.099
 9197TIP3    H127548   6.916   7.721   0.177
 9197TIP3    H227549   6.949   7.744   0.031
 9198TIP3   OH227550   1.984   1.794   6.374
 9198TIP3    H127551   1.942   1.757   6.296
 9198TIP3    H227552   2.023   1.719   6.418
 9199TIP3   OH227553   7.868   6.471   1.063
 9199TIP3    H127554   7.833   6.559   1.049
 9199TIP3    H227555   7.958   6.476   1.033
 9200TIP3   OH227556   0.954   0.175   6.215
 9200TIP3    H127557   0.939   0.268   6.229
 9200TIP3    H227558   0.919   0.133   6.293
 9201TIP3   OH227559   0.853   7.768   5.041
 9201TIP3    H127560   0.896   7.702   4.986
 9201TIP3    H227561   0.865   7.737   5.130
 9202TIP3   OH227562   0.470   1.003   6.733
 9202TIP3    H127563   0.515   0.919   6.739
 9202TIP3    H227564   0.513   1.058   6.798
 9203TIP3   OH227565   5.209   4.718   2.941
 9203TIP3    H127566   5.238   4.808   2.933
 9203TIP3    H227567   5.155   4.703   2.864
 9204TIP3   OH227568   4.869   4.186   5.745
 9204TIP3    H127569   4.798   4.231   5.790
 9204TIP3    H227570   4.945   4.244   5.756
 9205TIP3   OH227571   2.669   2.697   0.984
 9205TIP3    H127572   2.758   2.709   1.018
 9205TIP3    H227573   2.615   2.690   1.063
 9206TIP3   OH227574   7.149   4.110   1.292
 9206TIP3    H127575   7.226   4.055   1.272
 9206TIP3    H227576   7.173   4.197   1.262
 9207TIP3   OH227577   2.970   4.716   1.322
 9207TIP3    H127578   3.042   4.730   1.383
 9207TIP3    H227579   3.010   4.680   1.243
 9208TIP3   OH227580   6.174   4.866   1.965
 9208TIP3    H127581   6.094   4.896   2.007
 9208TIP3    H227582   6.225   4.825   2.035
 9209TIP3   OH227583   3.007   4.523   5.427
 9209TIP3    H127584   3.030   4.434   5.453
 9209TIP3    H227585   3.089   4.571   5.430
 9210TIP3   OH227586   2.753   6.324   0.692
 9210TIP3    H127587   2.686   6.316   0.625
 9210TIP3    H227588   2.718   6.276   0.767
 9211TIP3   OH227589   5.331   1.279   2.508
 9211TIP3    H127590   5.352   1.194   2.470
 9211TIP3    H227591   5.330   1.264   2.603
 9212TIP3   OH227592   7.026   2.478   5.631
 9212TIP3    H127593   7.045   2.565   5.594
 9212TIP3    H227594   6.943   2.489   5.677
 9213TIP3   OH227595   4.029   4.535   1.765
 9213TIP3    H127596   4.025   4.440   1.769
 9213TIP3    H227597   4.020   4.563   1.856
 9214TIP3   OH227598   0.114   0.684   2.087
 9214TIP3    H127599   0.062   0.682   2.167
 9214TIP3    H227600   0.058   0.642   2.021
 9215TIP3   OH227601   7.846   0.119   2.283
 9215TIP3    H127602   7.771   0.121   2.223
 9215TIP3    H227603   7.837   0.036   2.330
 9216TIP3   OH227604   5.367   3.957   2.203
 9216TIP3    H127605   5.366   4.026   2.137
 9216TIP3    H227606   5.308   3.988   2.271
 9217TIP3   OH227607   3.975   7.280   1.294
 9217TIP3    H127608   4.009   7.282   1.384
 9217TIP3    H227609   3.904   7.216   1.297
 9218TIP3   OH227610   4.230   0.405   5.940
 9218TIP3    H127611   4.302   0.381   5.999
 9218TIP3    H227612   4.274   0.444   5.865
 9219TIP3   OH227613   0.954   2.250   0.578
 9219TIP3    H127614   1.021   2.249   0.647
 9219TIP3    H227615   0.991   2.198   0.507
 9220TIP3   OH227616   3.254   3.217   6.511
 9220TIP3    H127617   3.286   3.268   6.585
 9220TIP3    H227618   3.201   3.278   6.460
 9221TIP3   OH227619   6.160   6.986   1.631
 9221TIP3    H127620   6.150   7.059   1.571
 9221TIP3    H227621   6.161   7.025   1.718
 9222TIP3   OH227622   3.541   1.967   6.375
 9222TIP3    H127623   3.569   1.936   6.289
 9222TIP3    H227624   3.533   1.888   6.428
 9223TIP3   OH227625   6.394   7.547   5.942
 9223TIP3    H127626   6.346   7.479   5.894
 9223TIP3    H227627   6.477   7.557   5.894
 9224TIP3   OH227628   7.509   6.772   3.125
 9224TIP3    H127629   7.443   6.715   3.086
 9224TIP3    H227630   7.575   6.711   3.160
 9225TIP3   OH227631   3.133   4.688   3.442
 9225TIP3    H127632   3.086   4.751   3.497
 9225TIP3    H227633   3.064   4.643   3.393
 9226TIP3   OH227634   6.600   7.612   0.574
 9226TIP3    H127635   6.613   7.580   0.664
 9226TIP3    H227636   6.506   7.604   0.559
 9227TIP3   OH227637   6.188   6.971   6.473
 9227TIP3    H127638   6.154   6.914   6.403
 9227TIP3    H227639   6.192   7.057   6.433
 9228TIP3   OH227640   0.197   4.796   5.151
 9228TIP3    H127641   0.123   4.772   5.206
 9228TIP3    H227642   0.268   4.816   5.213
 9229TIP3   OH227643   3.698   3.044   4.010
 9229TIP3    H127644   3.701   3.057   4.105
 9229TIP3    H227645   3.606   3.032   3.990
 9230TIP3   OH227646   5.934   1.942   6.065
 9230TIP3    H127647   5.893   1.882   6.128
 9230TIP3    H227648   5.927   1.896   5.981
 9231TIP3   OH227649   8.188   5.767   0.947
 9231TIP3    H127650   8.279   5.736   0.945
 9231TIP3    H227651   8.137   5.695   0.910
 9232TIP3   OH227652   5.981   6.444   0.322
 9232TIP3    H127653   5.902   6.408   0.362
 9232TIP3    H227654   6.048   6.438   0.390
 9233TIP3   OH227655   3.327   5.680   0.592
 9233TIP3    H127656   3.357   5.605   0.541
 9233TIP3    H227657   3.398   5.744   0.586
 9234TIP3   OH227658   1.420   2.153   0.307
 9234TIP3    H127659   1.505   2.155   0.350
 9234TIP3    H227660   1.440   2.138   0.214
 9235TIP3   OH227661   2.004   1.260   4.901
 9235TIP3    H127662   1.948   1.297   4.834
 9235TIP3    H227663   1.971   1.171   4.913
 9236TIP3   OH227664   0.223   5.677   4.557
 9236TIP3    H127665   0.253   5.594   4.522
 9236TIP3    H227666   0.164   5.653   4.629
 9237TIP3   OH227667   4.589   6.352   2.427
 9237TIP3    H127668   4.574   6.258   2.419
 9237TIP3    H227669   4.502   6.389   2.443
 9238TIP3   OH227670   7.094   5.329   3.016
 9238TIP3    H127671   7.083   5.419   2.988
 9238TIP3    H227672   7.180   5.328   3.059
 9239TIP3   OH227673   2.287   4.618   4.201
 9239TIP3    H127674   2.278   4.611   4.296
 9239TIP3    H227675   2.198   4.614   4.168
 9240TIP3   OH227676   6.315   1.771   1.064
 9240TIP3    H127677   6.253   1.798   0.996
 9240TIP3    H227678   6.284   1.685   1.093
 9241TIP3   OH227679   3.139   3.697   3.737
 9241TIP3    H127680   3.156   3.625   3.797
 9241TIP3    H227681   3.225   3.735   3.720
 9242TIP3   OH227682   5.521   5.995   5.242
 9242TIP3    H127683   5.461   6.062   5.277
 9242TIP3    H227684   5.483   5.912   5.272
 9243TIP3   OH227685   5.739   4.926   0.987
 9243TIP3    H127686   5.818   4.980   0.978
 9243TIP3    H227687   5.669   4.988   1.005
 9244TIP3   OH227688   7.164   7.800   6.269
 9244TIP3    H127689   7.227   7.810   6.197
 9244TIP3    H227690   7.186   7.716   6.309
 9245TIP3   OH227691   1.384   1.742  -0.024
 9245TIP3    H127692   1.419   1.774   0.059
 9245TIP3    H227693   1.460   1.737  -0.082
 9246TIP3   OH227694   4.207   4.106   2.903
 9246TIP3    H127695   4.181   4.196   2.882
 9246TIP3    H227696   4.190   4.057   2.822
 9247TIP3   OH227697   5.701   0.056   5.080
 9247TIP3    H127698   5.658   0.132   5.041
 9247TIP3    H227699   5.761   0.025   5.013
 9248TIP3   OH227700   2.845   4.730   4.488
 9248TIP3    H127701   2.908   4.658   4.488
 9248TIP3    H227702   2.762   4.689   4.511
 9249TIP3   OH227703   2.436   5.435   0.233
 9249TIP3    H127704   2.412   5.352   0.191
 9249TIP3    H227705   2.433   5.416   0.327
 9250TIP3   OH227706   0.339   7.197   3.591
 9250TIP3    H127707   0.387   7.170   3.513
 9250TIP3    H227708   0.252   7.158   3.581
 9251TIP3   OH227709   4.474   0.217   4.139
 9251TIP3    H127710   4.461   0.123   4.128
 9251TIP3    H227711   4.509   0.227   4.227
 9252TIP3   OH227712   5.746   1.615   0.084
 9252TIP3    H127713   5.684   1.596   0.013
 9252TIP3    H227714   5.797   1.534   0.093
 9253TIP3   OH227715   7.784   0.606   1.783
 9253TIP3    H127716   7.725   0.681   1.778
 9253TIP3    H227717   7.840   0.614   1.705
 9254TIP3   OH227718   5.275   2.550   5.737
 9254TIP3    H127719   5.218   2.474   5.746
 9254TIP3    H227720   5.308   2.545   5.647
 9255TIP3   OH227721   4.903   2.551   1.654
 9255TIP3    H127722   4.899   2.609   1.730
 9255TIP3    H227723   4.984   2.574   1.609
 9256TIP3   OH227724   8.202   0.891   6.526
 9256TIP3    H127725   8.212   0.921   6.436
 9256TIP3    H227726   8.289   0.858   6.550
 9257TIP3   OH227727   3.058   3.431   6.536
 9257TIP3    H127728   3.122   3.427   6.607
 9257TIP3    H227729   2.984   3.379   6.568
 9258TIP3   OH227730   3.246   6.612   3.744
 9258TIP3    H127731   3.175   6.644   3.688
 9258TIP3    H227732   3.255   6.680   3.811
 9259TIP3   OH227733   2.014   1.952   5.160
 9259TIP3    H127734   2.031   1.900   5.239
 9259TIP3    H227735   2.100   1.987   5.136
 9260TIP3   OH227736   7.017   7.230   0.451
 9260TIP3    H127737   6.973   7.268   0.527
 9260TIP3    H227738   7.094   7.186   0.488
 9261TIP3   OH227739   8.219   7.455   6.276
 9261TIP3    H127740   8.214   7.461   6.372
 9261TIP3    H227741   8.194   7.364   6.257
 9262TIP3   OH227742   5.618   0.629   0.081
 9262TIP3    H127743   5.548   0.563   0.082
 9262TIP3    H227744   5.572   0.713   0.072
 9263TIP3   OH227745   5.378   5.932   4.827
 9263TIP3    H127746   5.464   5.906   4.794
 9263TIP3    H227747   5.324   5.854   4.818
 9264TIP3   OH227748   7.125   0.494   2.214
 9264TIP3    H127749   7.180   0.429   2.172
 9264TIP3    H227750   7.072   0.530   2.143
 9265TIP3   OH227751   7.782   3.308   2.160
 9265TIP3    H127752   7.845   3.348   2.100
 9265TIP3    H227753   7.707   3.367   2.160
 9266TIP3   OH227754   6.110   3.805   0.536
 9266TIP3    H127755   6.149   3.893   0.536
 9266TIP3    H227756   6.041   3.810   0.471
 9267TIP3   OH227757   5.173   6.936   2.304
 9267TIP3    H127758   5.177   6.957   2.211
 9267TIP3    H227759   5.263   6.945   2.335
 9268TIP3   OH227760   4.578   3.932   3.910
 9268TIP3    H127761   4.584   3.986   3.989
 9268TIP3    H227762   4.526   3.985   3.850
 9269TIP3   OH227763   0.616   4.352   1.045
 9269TIP3    H127764   0.678   4.296   1.091
 9269TIP3    H227765   0.659   4.370   0.961
 9270TIP3   OH227766   3.776   6.344   2.491
 9270TIP3    H127767   3.798   6.291   2.415
 9270TIP3    H227768   3.705   6.401   2.460
 9271TIP3   OH227769   5.636   5.149   3.212
 9271TIP3    H127770   5.687   5.154   3.131
 9271TIP3    H227771   5.667   5.069   3.255
 9272TIP3   OH227772   3.225   4.135   2.013
 9272TIP3    H127773   3.154   4.175   1.963
 9272TIP3    H227774   3.194   4.046   2.031
 9273TIP3   OH227775   8.038   7.705   4.638
 9273TIP3    H127776   7.958   7.736   4.680
 9273TIP3    H227777   8.035   7.743   4.550
 9274TIP3   OH227778   0.822   1.777   3.583
 9274TIP3    H127779   0.762   1.835   3.537
 9274TIP3    H227780   0.890   1.836   3.617
 9275TIP3   OH227781   3.208   2.257   6.675
 9275TIP3    H127782   3.278   2.253   6.610
 9275TIP3    H227783   3.139   2.309   6.633
 9276TIP3   OH227784   1.883   1.905   4.425
 9276TIP3    H127785   1.871   1.949   4.341
 9276TIP3    H227786   1.910   1.816   4.402
 9277TIP3   OH227787   4.396   6.610   6.018
 9277TIP3    H127788   4.443   6.544   5.968
 9277TIP3    H227789   4.436   6.693   5.992
 9278TIP3   OH227790   6.975   4.553   0.011
 9278TIP3    H127791   7.029   4.519   0.082
 9278TIP3    H227792   7.035   4.607  -0.041
 9279TIP3   OH227793   4.026   6.579   6.253
 9279TIP3    H127794   4.104   6.525   6.251
 9279TIP3    H227795   4.055   6.666   6.225
 9280TIP3   OH227796   1.100   6.235   5.828
 9280TIP3    H127797   1.156   6.304   5.791
 9280TIP3    H227798   1.083   6.263   5.918
 9281TIP3   OH227799   4.900   2.040   1.504
 9281TIP3    H127800   4.859   1.968   1.454
 9281TIP3    H227801   4.943   2.094   1.437
 9282TIP3   OH227802   3.550   6.064   0.806
 9282TIP3    H127803   3.498   5.985   0.818
 9282TIP3    H227804   3.523   6.122   0.878
 9283TIP3   OH227805   6.929   7.240   2.272
 9283TIP3    H127806   6.982   7.319   2.284
 9283TIP3    H227807   6.963   7.178   2.337
 9284TIP3   OH227808   6.557   5.362   4.007
 9284TIP3    H127809   6.561   5.304   4.083
 9284TIP3    H227810   6.648   5.369   3.977
 9285TIP3   OH227811   6.256   0.744   5.109
 9285TIP3    H127812   6.178   0.785   5.071
 9285TIP3    H227813   6.248   0.652   5.085
 9286TIP3   OH227814   5.767   3.301   5.857
 9286TIP3    H127815   5.783   3.207   5.866
 9286TIP3    H227816   5.722   3.310   5.773
 9287TIP3   OH227817   4.979   0.244   0.668
 9287TIP3    H127818   4.942   0.318   0.716
 9287TIP3    H227819   5.029   0.284   0.597
 9288TIP3   OH227820   6.800   0.936   2.786
 9288TIP3    H127821   6.830   0.853   2.824
 9288TIP3    H227822   6.715   0.951   2.826
 9289TIP3   OH227823   5.657   3.873   6.112
 9289TIP3    H127824   5.582   3.846   6.059
 9289TIP3    H227825   5.692   3.792   6.148
 9290TIP3   OH227826   6.034   2.310   3.317
 9290TIP3    H127827   6.097   2.300   3.245
 9290TIP3    H227828   6.016   2.220   3.345
 9291TIP3   OH227829   1.381   2.436   0.258
 9291TIP3    H127830   1.380   2.379   0.335
 9291TIP3    H227831   1.317   2.398   0.198
 9292TIP3   OH227832   1.349   7.493   0.490
 9292TIP3    H127833   1.410   7.497   0.563
 9292TIP3    H227834   1.405   7.482   0.413
 9293TIP3   OH227835   3.806   5.582   3.848
 9293TIP3    H127836   3.872   5.563   3.915
 9293TIP3    H227837   3.810   5.676   3.835
 9294TIP3   OH227838   4.617   4.451   6.386
 9294TIP3    H127839   4.551   4.421   6.324
 9294TIP3    H227840   4.696   4.461   6.334
 9295TIP3   OH227841   3.927   3.280   6.118
 9295TIP3    H127842   3.990   3.209   6.130
 9295TIP3    H227843   3.842   3.237   6.119
 9296TIP3   OH227844   0.113   1.913   2.446
 9296TIP3    H127845   0.022   1.941   2.439
 9296TIP3    H227846   0.132   1.914   2.540
 9297TIP3   OH227847   0.433   2.895   3.056
 9297TIP3    H127848   0.465   2.938   2.976
 9297TIP3    H227849   0.463   2.952   3.127
 9298TIP3   OH227850   8.048   7.059   6.421
 9298TIP3    H127851   8.114   7.111   6.375
 9298TIP3    H227852   7.969   7.113   6.418
 9299TIP3   OH227853   0.271   1.444   4.068
 9299TIP3    H127854   0.182   1.433   4.100
 9299TIP3    H227855   0.300   1.355   4.047
 9300TIP3   OH227856   7.247   1.608   1.923
 9300TIP3    H127857   7.282   1.601   1.834
 9300TIP3    H227858   7.278   1.693   1.954
 9301TIP3   OH227859   3.282   4.628   3.101
 9301TIP3    H127860   3.330   4.706   3.128
 9301TIP3    H227861   3.217   4.660   3.038
 9302TIP3   OH227862   7.948   7.199   5.640
 9302TIP3    H127863   7.924   7.110   5.614
 9302TIP3    H227864   7.873   7.252   5.614
 9303TIP3   OH227865   4.055   3.151   2.539
 9303TIP3    H127866   4.134   3.201   2.518
 9303TIP3    H227867   3.991   3.180   2.473
 9304TIP3   OH227868   5.424   3.014   2.698
 9304TIP3    H127869   5.370   3.080   2.741
 9304TIP3    H227870   5.510   3.023   2.740
 9305TIP3   OH227871   6.339   2.938   1.467
 9305TIP3    H127872   6.278   2.919   1.396
 9305TIP3    H227873   6.425   2.933   1.427
 9306TIP3   OH227874   3.451   5.113   6.527
 9306TIP3    H127875   3.497   5.075   6.452
 9306TIP3    H227876   3.521   5.146   6.584
 9307TIP3   OH227877   0.256   6.373   2.127
 9307TIP3    H127878   0.196   6.300   2.109
 9307TIP3    H227879   0.317   6.372   2.054
 9308TIP3   OH227880   3.569   3.244   4.686
 9308TIP3    H127881   3.636   3.242   4.617
 9308TIP3    H227882   3.620   3.241   4.768
 9309TIP3   OH227883   6.902   6.272   6.719
 9309TIP3    H127884   6.808   6.289   6.728
 9309TIP3    H227885   6.938   6.355   6.686
 9310TIP3   OH227886   6.895   7.391   4.348
 9310TIP3    H127887   6.946   7.373   4.269
 9310TIP3    H227888   6.958   7.431   4.408
 9311TIP3   OH227889   2.053   0.177   0.722
 9311TIP3    H127890   1.988   0.130   0.774
 9311TIP3    H227891   2.136   0.162   0.768
 9312TIP3   OH227892   2.527   2.557   0.602
 9312TIP3    H127893   2.486   2.630   0.649
 9312TIP3    H227894   2.455   2.498   0.581
 9313TIP3   OH227895   0.458   3.511   0.560
 9313TIP3    H127896   0.428   3.521   0.650
 9313TIP3    H227897   0.542   3.466   0.568
 9314TIP3   OH227898   2.244   2.651   0.304
 9314TIP3    H127899   2.299   2.584   0.263
 9314TIP3    H227900   2.249   2.726   0.245
 9315TIP3   OH227901   7.708   1.932   5.210
 9315TIP3    H127902   7.690   1.838   5.205
 9315TIP3    H227903   7.713   1.950   5.304
 9316TIP3   OH227904   4.144   7.124   0.706
 9316TIP3    H127905   4.136   7.177   0.785
 9316TIP3    H227906   4.119   7.182   0.635
 9317TIP3   OH227907   1.530   1.745   1.125
 9317TIP3    H127908   1.489   1.739   1.212
 9317TIP3    H227909   1.502   1.664   1.081
 9318TIP3   OH227910   1.825   1.595   5.688
 9318TIP3    H127911   1.736   1.561   5.692
 9318TIP3    H227912   1.859   1.565   5.604
 9319TIP3   OH227913   1.563   4.248   1.543
 9319TIP3    H127914   1.527   4.159   1.540
 9319TIP3    H227915   1.647   4.239   1.587
 9320TIP3   OH227916   3.863   6.572   0.553
 9320TIP3    H127917   3.860   6.543   0.462
 9320TIP3    H227918   3.877   6.492   0.603
 9321TIP3   OH227919   5.948   5.755   6.629
 9321TIP3    H127920   5.929   5.791   6.716
 9321TIP3    H227921   6.008   5.682   6.647
 9322TIP3   OH227922   3.061   6.348   6.307
 9322TIP3    H127923   3.006   6.424   6.327
 9322TIP3    H227924   3.021   6.309   6.229
 9323TIP3   OH227925   6.318   6.895   0.630
 9323TIP3    H127926   6.368   6.944   0.564
 9323TIP3    H227927   6.246   6.856   0.581
 9324TIP3   OH227928   3.381   0.779   3.396
 9324TIP3    H127929   3.419   0.858   3.434
 9324TIP3    H227930   3.453   0.735   3.351
 9325TIP3   OH227931   6.961   1.299   3.665
 9325TIP3    H127932   7.012   1.250   3.600
 9325TIP3    H227933   6.939   1.234   3.732
 9326TIP3   OH227934   1.645   4.607   4.777
 9326TIP3    H127935   1.637   4.626   4.683
 9326TIP3    H227936   1.608   4.685   4.820
 9327TIP3   OH227937   2.559   1.465   4.489
 9327TIP3    H127938   2.645   1.489   4.525
 9327TIP3    H227939   2.502   1.462   4.565
 9328TIP3   OH227940   0.478   6.114   1.495
 9328TIP3    H127941   0.522   6.182   1.546
 9328TIP3    H227942   0.540   6.041   1.494
 9329TIP3   OH227943   8.121   4.431   2.829
 9329TIP3    H127944   8.196   4.471   2.875
 9329TIP3    H227945   8.098   4.493   2.761
 9330TIP3   OH227946   4.005   3.095   0.700
 9330TIP3    H127947   4.061   3.128   0.630
 9330TIP3    H227948   4.016   3.158   0.771
 9331TIP3   OH227949   1.019   7.765   0.199
 9331TIP3    H127950   0.978   7.680   0.189
 9331TIP3    H227951   1.063   7.761   0.284
 9332TIP3   OH227952   0.685   7.486   5.295
 9332TIP3    H127953   0.682   7.479   5.199
 9332TIP3    H227954   0.610   7.435   5.325
 9333TIP3   OH227955   5.035   5.460   5.882
 9333TIP3    H127956   5.084   5.396   5.935
 9333TIP3    H227957   5.103   5.516   5.844
 9334TIP3   OH227958   5.430   2.948   1.178
 9334TIP3    H127959   5.373   3.024   1.178
 9334TIP3    H227960   5.371   2.873   1.178
 9335TIP3   OH227961   2.033   6.988   6.377
 9335TIP3    H127962   2.065   7.070   6.414
 9335TIP3    H227963   1.987   6.945   6.448
 9336TIP3   OH227964   2.364   0.911   2.295
 9336TIP3    H127965   2.341   0.843   2.233
 9336TIP3    H227966   2.376   0.865   2.379
 9337TIP3   OH227967   6.858   6.308   0.989
 9337TIP3    H127968   6.851   6.229   0.936
 9337TIP3    H227969   6.767   6.331   1.011
 9338TIP3   OH227970   0.281   0.679   0.546
 9338TIP3    H127971   0.275   0.771   0.572
 9338TIP3    H227972   0.288   0.682   0.450
 9339TIP3   OH227973   5.030   0.122   0.296
 9339TIP3    H127974   5.006   0.031   0.279
 9339TIP3    H227975   4.948   0.164   0.321
 9340TIP3   OH227976   0.051   1.021   3.395
 9340TIP3    H127977   0.077   0.994   3.307
 9340TIP3    H227978  -0.015   1.088   3.380
 9341TIP3   OH227979   6.471   2.776   2.513
 9341TIP3    H127980   6.427   2.850   2.555
 9341TIP3    H227981   6.435   2.699   2.556
 9342TIP3   OH227982   0.063   6.030   2.850
 9342TIP3    H127983   0.059   5.939   2.823
 9342TIP3    H227984   0.138   6.066   2.803
 9343TIP3   OH227985   2.952   5.117   2.515
 9343TIP3    H127986   2.966   5.119   2.610
 9343TIP3    H227987   2.882   5.179   2.500
 9344TIP3   OH227988   0.122   4.359   0.120
 9344TIP3    H127989   0.172   4.422   0.172
 9344TIP3    H227990   0.182   4.287   0.104
 9345TIP3   OH227991   4.926   6.014   5.872
 9345TIP3    H127992   5.004   6.024   5.818
 9345TIP3    H227993   4.939   5.929   5.916
 9346TIP3   OH227994   6.908   4.218   2.710
 9346TIP3    H127995   6.977   4.285   2.704
 9346TIP3    H227996   6.925   4.174   2.793
 9347TIP3   OH227997   1.567   6.603   6.491
 9347TIP3    H127998   1.479   6.639   6.477
 9347TIP3    H227999   1.556   6.541   6.563
 9348TIP3   OH228000   7.793   2.920   1.013
 9348TIP3    H128001   7.756   2.840   1.052
 9348TIP3    H228002   7.854   2.887   0.947
 9349TIP3   OH228003   3.383   6.469   4.423
 9349TIP3    H128004   3.358   6.562   4.427
 9349TIP3    H228005   3.349   6.439   4.339
 9350TIP3   OH228006   0.009   0.031   3.444
 9350TIP3    H128007   0.023   0.115   3.401
 9350TIP3    H228008  -0.056   0.049   3.512
 9351TIP3   OH228009   6.651   5.648   4.890
 9351TIP3    H128010   6.616   5.689   4.810
 9351TIP3    H228011   6.697   5.570   4.859
 9352TIP3   OH228012   5.548   0.650   2.808
 9352TIP3    H128013   5.578   0.592   2.738
 9352TIP3    H228014   5.459   0.621   2.827
 9353TIP3   OH228015   7.954   6.389   0.298
 9353TIP3    H128016   7.991   6.424   0.379
 9353TIP3    H228017   7.899   6.461   0.264
 9354TIP3   OH228018   0.776   2.749   4.078
 9354TIP3    H128019   0.871   2.741   4.067
 9354TIP3    H228020   0.765   2.789   4.165
 9355TIP3   OH228021   3.879   3.040   6.495
 9355TIP3    H128022   3.956   3.080   6.455
 9355TIP3    H228023   3.839   2.989   6.425
 9356TIP3   OH228024   6.981   5.134   3.167
 9356TIP3    H128025   6.893   5.128   3.130
 9356TIP3    H228026   7.024   5.202   3.114
 9357TIP3   OH228027   0.306   0.740   0.977
 9357TIP3    H128028   0.274   0.796   1.047
 9357TIP3    H228029   0.227   0.703   0.937
 9358TIP3   OH228030   1.409   5.635   0.867
 9358TIP3    H128031   1.433   5.652   0.958
 9358TIP3    H228032   1.353   5.558   0.871
 9359TIP3   OH228033   6.296   7.634   3.296
 9359TIP3    H128034   6.333   7.574   3.362
 9359TIP3    H228035   6.327   7.599   3.213
 9360TIP3   OH228036   1.269   3.056   5.670
 9360TIP3    H128037   1.317   3.099   5.600
 9360TIP3    H228038   1.178   3.080   5.656
 9361TIP3   OH228039   2.503   5.854   2.161
 9361TIP3    H128040   2.574   5.793   2.143
 9361TIP3    H228041   2.542   5.941   2.148
 9362TIP3   OH228042   1.170   5.826   1.467
 9362TIP3    H128043   1.098   5.765   1.449
 9362TIP3    H228044   1.237   5.772   1.508
 9363TIP3   OH228045   5.546   0.611   2.133
 9363TIP3    H128046   5.532   0.701   2.105
 9363TIP3    H228047   5.634   0.589   2.100
 9364TIP3   OH228048   6.317   3.765   5.099
 9364TIP3    H128049   6.288   3.692   5.043
 9364TIP3    H228050   6.395   3.799   5.055
 9365TIP3   OH228051   5.822   7.135   6.032
 9365TIP3    H128052   5.876   7.108   5.958
 9365TIP3    H228053   5.864   7.095   6.108
 9366TIP3   OH228054   7.216   2.625   6.709
 9366TIP3    H128055   7.227   2.553   6.772
 9366TIP3    H228056   7.295   2.622   6.656
 9367TIP3   OH228057   3.872   4.385   0.703
 9367TIP3    H128058   3.847   4.420   0.618
 9367TIP3    H228059   3.855   4.457   0.764
 9368TIP3   OH228060   5.327   3.543   3.107
 9368TIP3    H128061   5.241   3.544   3.065
 9368TIP3    H228062   5.344   3.450   3.125
 9369TIP3   OH228063   3.699   5.719   0.010
 9369TIP3    H128064   3.690   5.628  -0.018
 9369TIP3    H228065   3.657   5.722   0.096
 9370TIP3   OH228066   6.987   3.913   4.817
 9370TIP3    H128067   7.003   3.821   4.794
 9370TIP3    H228068   7.056   3.961   4.772
 9371TIP3   OH228069   3.399   5.223   0.671
 9371TIP3    H128070   3.359   5.141   0.700
 9371TIP3    H228071   3.467   5.196   0.609
 9372TIP3   OH228072   4.301   2.861   4.068
 9372TIP3    H128073   4.311   2.911   4.149
 9372TIP3    H228074   4.323   2.771   4.092
 9373TIP3   OH228075   0.745   1.672   0.428
 9373TIP3    H128076   0.800   1.674   0.506
 9373TIP3    H228077   0.735   1.764   0.404
 9374TIP3   OH228078   6.144   7.346   3.628
 9374TIP3    H128079   6.216   7.379   3.681
 9374TIP3    H228080   6.172   7.258   3.601
 9375TIP3   OH228081   4.341   6.586   6.528
 9375TIP3    H128082   4.291   6.505   6.511
 9375TIP3    H228083   4.328   6.639   6.450
 9376TIP3   OH228084   1.443   5.878   1.684
 9376TIP3    H128085   1.425   5.860   1.776
 9376TIP3    H228086   1.525   5.831   1.666
 9377TIP3   OH228087   6.049   3.144   5.732
 9377TIP3    H128088   5.988   3.081   5.769
 9377TIP3    H228089   5.994   3.218   5.706
 9378TIP3   OH228090   7.573   7.672   4.645
 9378TIP3    H128091   7.654   7.709   4.682
 9378TIP3    H228092   7.584   7.577   4.655
 9379TIP3   OH228093   1.646   7.450   5.345
 9379TIP3    H128094   1.602   7.504   5.279
 9379TIP3    H228095   1.619   7.487   5.429
 9380TIP3   OH228096   2.472   0.169   4.863
 9380TIP3    H128097   2.542   0.125   4.912
 9380TIP3    H228098   2.408   0.194   4.930
 9381TIP3   OH228099   6.557   6.631   4.028
 9381TIP3    H128100   6.600   6.687   3.965
 9381TIP3    H228101   6.574   6.672   4.113
 9382TIP3   OH228102   1.560   2.239   6.766
 9382TIP3    H128103   1.510   2.197   6.836
 9382TIP3    H228104   1.496   2.292   6.719
 9383TIP3   OH228105   0.534   1.872   5.387
 9383TIP3    H128106   0.460   1.928   5.364
 9383TIP3    H228107   0.559   1.830   5.305
 9384TIP3   OH228108   6.758   6.621   1.408
 9384TIP3    H128109   6.702   6.698   1.401
 9384TIP3    H228110   6.791   6.607   1.319
 9385TIP3   OH228111   6.418   2.052   0.830
 9385TIP3    H128112   6.375   1.982   0.880
 9385TIP3    H228113   6.462   2.007   0.758
 9386TIP3   OH228114   7.047   0.431   3.230
 9386TIP3    H128115   6.952   0.428   3.227
 9386TIP3    H228116   7.067   0.466   3.317
 9387TIP3   OH228117   5.855   4.277   2.857
 9387TIP3    H128118   5.832   4.240   2.771
 9387TIP3    H228119   5.891   4.363   2.836
 9388TIP3   OH228120   6.396   0.573   3.528
 9388TIP3    H128121   6.335   0.565   3.454
 9388TIP3    H228122   6.436   0.486   3.536
 9389TIP3   OH228123   3.637   3.444   2.158
 9389TIP3    H128124   3.656   3.506   2.228
 9389TIP3    H228125   3.568   3.388   2.193
 9390TIP3   OH228126   5.228   2.985   5.249
 9390TIP3    H128127   5.164   2.939   5.195
 9390TIP3    H228128   5.311   2.941   5.229
 9391TIP3   OH228129   0.074   1.055   1.513
 9391TIP3    H128130   0.103   0.992   1.578
 9391TIP3    H228131   0.040   1.002   1.441
 9392TIP3   OH228132   0.686   6.910   2.232
 9392TIP3    H128133   0.728   6.902   2.146
 9392TIP3    H228134   0.688   7.004   2.251
 9393TIP3   OH228135   3.891   1.970   0.808
 9393TIP3    H128136   3.881   2.062   0.784
 9393TIP3    H228137   3.811   1.950   0.857
 9394TIP3   OH228138   4.609   2.110   2.116
 9394TIP3    H128139   4.578   2.132   2.029
 9394TIP3    H228140   4.705   2.106   2.108
 9395TIP3   OH228141   6.919   6.529   0.251
 9395TIP3    H128142   6.879   6.525   0.338
 9395TIP3    H228143   6.862   6.587   0.201
 9396TIP3   OH228144   8.255   6.007   3.386
 9396TIP3    H128145   8.237   5.996   3.293
 9396TIP3    H228146   8.332   6.064   3.389
 9397TIP3   OH228147   6.992   5.441   2.015
 9397TIP3    H128148   7.014   5.438   1.922
 9397TIP3    H228149   6.998   5.350   2.044
 9398TIP3   OH228150   6.556   4.694   5.670
 9398TIP3    H128151   6.610   4.676   5.593
 9398TIP3    H228152   6.564   4.616   5.725
 9399TIP3   OH228153   4.600   7.200   0.376
 9399TIP3    H128154   4.645   7.117   0.391
 9399TIP3    H228155   4.595   7.242   0.462
 9400TIP3   OH228156   3.526   3.614   2.440
 9400TIP3    H128157   3.436   3.601   2.410
 9400TIP3    H228158   3.540   3.709   2.432
 9401TIP3   OH228159   5.822   7.748   2.203
 9401TIP3    H128160   5.835   7.710   2.116
 9401TIP3    H228161   5.855   7.681   2.264
 9402TIP3   OH228162   2.957   1.289   1.024
 9402TIP3    H128163   3.030   1.340   0.990
 9402TIP3    H228164   2.939   1.328   1.110
 9403TIP3   OH228165   7.892   2.413   3.661
 9403TIP3    H128166   7.931   2.448   3.581
 9403TIP3    H228167   7.964   2.368   3.705
 9404TIP3   OH228168   0.750   7.197   5.072
 9404TIP3    H128169   0.689   7.266   5.046
 9404TIP3    H228170   0.717   7.118   5.029
 9405TIP3   OH228171   8.189   1.660   1.338
 9405TIP3    H128172   8.202   1.582   1.392
 9405TIP3    H228173   8.116   1.706   1.379
 9406TIP3   OH228174   3.000   6.668   3.633
 9406TIP3    H128175   2.930   6.665   3.698
 9406TIP3    H228176   2.982   6.746   3.580
 9407TIP3   OH228177   4.736   7.294   5.625
 9407TIP3    H128178   4.812   7.316   5.679
 9407TIP3    H228179   4.679   7.244   5.683
 9408TIP3   OH228180   5.899   0.298   5.976
 9408TIP3    H128181   5.930   0.236   5.910
 9408TIP3    H228182   5.844   0.246   6.034
 9409TIP3   OH228183   7.416   2.669   0.247
 9409TIP3    H128184   7.492   2.703   0.293
 9409TIP3    H228185   7.435   2.684   0.154
 9410TIP3   OH228186   3.271   0.136   2.914
 9410TIP3    H128187   3.304   0.155   2.826
 9410TIP3    H228188   3.288   0.216   2.964
 9411TIP3   OH228189   4.995   3.055   2.126
 9411TIP3    H128190   4.927   3.075   2.190
 9411TIP3    H228191   5.036   3.139   2.106
 9412TIP3   OH228192   0.393   6.549   2.470
 9412TIP3    H128193   0.372   6.630   2.424
 9412TIP3    H228194   0.457   6.506   2.414
 9413TIP3   OH228195   6.389   4.579   0.621
 9413TIP3    H128196   6.433   4.514   0.677
 9413TIP3    H228197   6.448   4.654   0.621
 9414TIP3   OH228198   1.829   1.365   4.739
 9414TIP3    H128199   1.859   1.456   4.729
 9414TIP3    H228200   1.742   1.364   4.698
 9415TIP3   OH228201   2.817   6.516   4.783
 9415TIP3    H128202   2.850   6.598   4.747
 9415TIP3    H228203   2.885   6.488   4.844
 9416TIP3   OH228204   2.967   6.231   6.046
 9416TIP3    H128205   3.046   6.207   5.996
 9416TIP3    H228206   2.931   6.148   6.075
 9417TIP3   OH228207   5.098   6.847   4.333
 9417TIP3    H128208   5.082   6.937   4.303
 9417TIP3    H228209   5.162   6.812   4.270
 9418TIP3   OH228210   4.936   4.526   1.865
 9418TIP3    H128211   4.891   4.543   1.948
 9418TIP3    H228212   4.870   4.540   1.798
 9419TIP3   OH228213   5.731   1.533   6.198
 9419TIP3    H128214   5.754   1.467   6.132
 9419TIP3    H228215   5.791   1.516   6.271
 9420TIP3   OH228216   2.049   7.641   0.626
 9420TIP3    H128217   2.040   7.708   0.558
 9420TIP3    H228218   2.075   7.689   0.705
 9421TIP3   OH228219   5.556   2.188   6.286
 9421TIP3    H128220   5.509   2.199   6.368
 9421TIP3    H228221   5.647   2.171   6.312
 9422TIP3   OH228222   1.763   3.351   4.767
 9422TIP3    H128223   1.777   3.306   4.850
 9422TIP3    H228224   1.826   3.422   4.767
 9423TIP3   OH228225   0.451   2.957   0.751
 9423TIP3    H128226   0.529   2.905   0.768
 9423TIP3    H228227   0.475   3.014   0.678
 9424TIP3   OH228228   2.656   0.172   4.229
 9424TIP3    H128229   2.673   0.249   4.175
 9424TIP3    H228230   2.717   0.180   4.303
 9425TIP3   OH228231   5.042   5.187   3.914
 9425TIP3    H128232   4.954   5.155   3.895
 9425TIP3    H228233   5.090   5.109   3.942
 9426TIP3   OH228234   0.318   0.433   0.668
 9426TIP3    H128235   0.413   0.421   0.668
 9426TIP3    H228236   0.306   0.528   0.659
 9427TIP3   OH228237   3.182   6.732   0.485
 9427TIP3    H128238   3.138   6.725   0.570
 9427TIP3    H228239   3.210   6.823   0.480
 9428TIP3   OH228240   0.760   0.091   5.642
 9428TIP3    H128241   0.785   0.176   5.605
 9428TIP3    H228242   0.832   0.032   5.619
 9429TIP3   OH228243   7.268   4.199   0.306
 9429TIP3    H128244   7.329   4.140   0.263
 9429TIP3    H228245   7.187   4.149   0.313
 9430TIP3   OH228246   4.719   2.490   3.956
 9430TIP3    H128247   4.743   2.498   4.048
 9430TIP3    H228248   4.747   2.402   3.931
 9431TIP3   OH228249   7.882   5.710   3.826
 9431TIP3    H128250   7.892   5.733   3.734
 9431TIP3    H228251   7.964   5.738   3.867
 9432TIP3   OH228252   7.439  -0.014   1.370
 9432TIP3    H128253   7.438   0.065   1.317
 9432TIP3    H228254   7.425   0.017   1.460
 9433TIP3   OH228255   7.295   6.635   6.582
 9433TIP3    H128256   7.371   6.597   6.537
 9433TIP3    H228257   7.326   6.720   6.613
 9434TIP3   OH228258   1.691   5.248   4.023
 9434TIP3    H128259   1.680   5.223   3.931
 9434TIP3    H228260   1.666   5.171   4.072
 9435TIP3   OH228261   1.997   1.057   0.714
 9435TIP3    H128262   2.068   1.115   0.739
 9435TIP3    H228263   2.037   0.971   0.704
 9436TIP3   OH228264   6.703   2.432   0.479
 9436TIP3    H128265   6.785   2.476   0.501
 9436TIP3    H228266   6.730   2.343   0.454
 9437TIP3   OH228267   4.382   5.530   1.234
 9437TIP3    H128268   4.346   5.505   1.319
 9437TIP3    H228269   4.412   5.448   1.195
 9438TIP3   OH228270   1.773   2.009   5.305
 9438TIP3    H128271   1.864   2.008   5.274
 9438TIP3    H228272   1.732   2.081   5.256
 9439TIP3   OH228273   0.319   7.229   3.279
 9439TIP3    H128274   0.276   7.256   3.198
 9439TIP3    H228275   0.328   7.134   3.270
 9440TIP3   OH228276   2.219   2.673   3.937
 9440TIP3    H128277   2.202   2.586   3.973
 9440TIP3    H228278   2.296   2.705   3.984
 9441TIP3   OH228279   6.476   7.719   2.486
 9441TIP3    H128280   6.543   7.699   2.421
 9441TIP3    H228281   6.414   7.775   2.440
 9442TIP3   OH228282   3.390   6.058   3.877
 9442TIP3    H128283   3.405   6.153   3.874
 9442TIP3    H228284   3.322   6.047   3.943
 9443TIP3   OH228285   1.793   4.266   3.880
 9443TIP3    H128286   1.776   4.212   3.803
 9443TIP3    H228287   1.810   4.204   3.950
 9444TIP3   OH228288   4.285   1.933   2.650
 9444TIP3    H128289   4.284   2.027   2.636
 9444TIP3    H228290   4.196   1.904   2.630
 9445TIP3   OH228291   8.107   5.667   5.595
 9445TIP3    H128292   8.096   5.761   5.610
 9445TIP3    H228293   8.109   5.629   5.683
 9446TIP3   OH228294   6.940   2.125   5.913
 9446TIP3    H128295   6.960   2.208   5.958
 9446TIP3    H228296   7.022   2.076   5.916
 9447TIP3   OH228297   6.462   3.584   1.814
 9447TIP3    H128298   6.514   3.585   1.734
 9447TIP3    H228299   6.521   3.620   1.881
 9448TIP3   OH228300   2.030   5.375   2.680
 9448TIP3    H128301   2.070   5.363   2.594
 9448TIP3    H228302   2.081   5.318   2.738
 9449TIP3   OH228303   3.418   4.477   4.950
 9449TIP3    H128304   3.454   4.563   4.925
 9449TIP3    H228305   3.324   4.491   4.952
 9450TIP3   OH228306   7.952   3.233   4.302
 9450TIP3    H128307   7.962   3.220   4.207
 9450TIP3    H228308   8.027   3.187   4.340
 9451TIP3   OH228309   7.343   6.511   0.660
 9451TIP3    H128310   7.394   6.513   0.741
 9451TIP3    H228311   7.259   6.473   0.685
 9452TIP3   OH228312   3.930   4.243   3.279
 9452TIP3    H128313   3.965   4.305   3.216
 9452TIP3    H228314   3.847   4.214   3.241
 9453TIP3   OH228315   6.417   7.414   3.417
 9453TIP3    H128316   6.378   7.372   3.494
 9453TIP3    H228317   6.439   7.341   3.359
 9454TIP3   OH228318   3.391   1.373   5.908
 9454TIP3    H128319   3.382   1.423   5.827
 9454TIP3    H228320   3.377   1.282   5.882
 9455TIP3   OH228321   1.633   5.685   1.604
 9455TIP3    H128322   1.725   5.706   1.619
 9455TIP3    H228323   1.631   5.642   1.519
 9456TIP3   OH228324   6.672   2.453   6.606
 9456TIP3    H128325   6.667   2.364   6.571
 9456TIP3    H228326   6.678   2.442   6.701
 9457TIP3   OH228327   5.778   7.691   0.991
 9457TIP3    H128328   5.764   7.765   0.932
 9457TIP3    H228329   5.827   7.628   0.939
 9458TIP3   OH228330   6.910   0.175   6.154
 9458TIP3    H128331   6.838   0.229   6.121
 9458TIP3    H228332   6.979   0.184   6.088
 9459TIP3   OH228333   6.592   2.885   3.624
 9459TIP3    H128334   6.640   2.950   3.573
 9459TIP3    H228335   6.597   2.917   3.715
 9460TIP3   OH228336   3.956   3.840   3.438
 9460TIP3    H128337   3.874   3.865   3.482
 9460TIP3    H228338   4.005   3.922   3.431
 9461TIP3   OH228339   1.571   4.103   2.565
 9461TIP3    H128340   1.503   4.050   2.523
 9461TIP3    H228341   1.572   4.184   2.514
 9462TIP3   OH228342   2.802   7.158   1.255
 9462TIP3    H128343   2.865   7.154   1.183
 9462TIP3    H228344   2.836   7.227   1.312
 9463TIP3   OH228345   0.177   1.949   2.192
 9463TIP3    H128346   0.271   1.967   2.197
 9463TIP3    H228347   0.143   1.976   2.278
 9464TIP3   OH228348   1.484   2.111   5.300
 9464TIP3    H128349   1.528   2.195   5.294
 9464TIP3    H228350   1.441   2.100   5.216
 9465TIP3   OH228351   7.508   5.799   4.234
 9465TIP3    H128352   7.566   5.805   4.159
 9465TIP3    H228353   7.566   5.799   4.310
 9466TIP3   OH228354   0.063   1.208   6.473
 9466TIP3    H128355   0.032   1.124   6.439
 9466TIP3    H228356   0.155   1.192   6.497
 9467TIP3   OH228357   4.948   6.540   5.011
 9467TIP3    H128358   4.913   6.451   5.015
 9467TIP3    H228359   4.938   6.565   4.919
 9468TIP3   OH228360   3.032   5.826   1.581
 9468TIP3    H128361   3.033   5.819   1.485
 9468TIP3    H228362   2.940   5.815   1.605
 9469TIP3   OH228363   2.620   4.917   2.582
 9469TIP3    H128364   2.682   4.927   2.654
 9469TIP3    H228365   2.615   5.005   2.543
 9470TIP3   OH228366   7.976   4.072   0.962
 9470TIP3    H128367   8.046   4.056   0.899
 9470TIP3    H228368   7.995   4.158   0.999
 9471TIP3   OH228369   6.927   7.476   4.010
 9471TIP3    H128370   6.984   7.553   4.007
 9471TIP3    H228371   6.864   7.490   3.939
 9472TIP3   OH228372   3.404   1.394   0.107
 9472TIP3    H128373   3.428   1.312   0.064
 9472TIP3    H228374   3.372   1.368   0.193
 9473TIP3   OH228375   5.033   6.245   4.008
 9473TIP3    H128376   5.015   6.265   3.916
 9473TIP3    H228377   4.979   6.168   4.026
 9474TIP3   OH228378   8.315   5.193   0.821
 9474TIP3    H128379   8.364   5.271   0.846
 9474TIP3    H228380   8.240   5.193   0.881
 9475TIP3   OH228381   5.921   1.795   0.570
 9475TIP3    H128382   5.935   1.703   0.548
 9475TIP3    H228383   5.892   1.835   0.488
 9476TIP3   OH228384   5.380   4.119   5.575
 9476TIP3    H128385   5.385   4.040   5.628
 9476TIP3    H228386   5.425   4.185   5.627
 9477TIP3   OH228387   6.970   2.198   1.485
 9477TIP3    H128388   7.053   2.160   1.514
 9477TIP3    H228389   6.908   2.126   1.490
 9478TIP3   OH228390   7.716   0.609   3.001
 9478TIP3    H128391   7.623   0.631   3.000
 9478TIP3    H228392   7.745   0.623   2.910
 9479TIP3   OH228393   0.052   1.604   4.948
 9479TIP3    H128394   0.136   1.651   4.946
 9479TIP3    H228395   0.076   1.513   4.931
 9480TIP3   OH228396   7.789   3.820   6.333
 9480TIP3    H128397   7.855   3.880   6.296
 9480TIP3    H228398   7.836   3.773   6.402
 9481TIP3   OH228399   5.906   5.823   1.986
 9481TIP3    H128400   5.916   5.919   1.988
 9481TIP3    H228401   5.827   5.809   1.933
 9482TIP3   OH228402   0.614   0.510   1.448
 9482TIP3    H128403   0.675   0.456   1.398
 9482TIP3    H228404   0.548   0.448   1.480
 9483TIP3   OH228405   2.764   6.812   2.919
 9483TIP3    H128406   2.770   6.732   2.868
 9483TIP3    H228407   2.820   6.875   2.874
 9484TIP3   OH228408   2.419   7.204   6.002
 9484TIP3    H128409   2.472   7.283   6.016
 9484TIP3    H228410   2.453   7.167   5.921
 9485TIP3   OH228411   2.895   6.743   5.844
 9485TIP3    H128412   2.863   6.675   5.904
 9485TIP3    H228413   2.858   6.824   5.878
 9486TIP3   OH228414   0.879   4.643   2.104
 9486TIP3    H128415   0.969   4.670   2.087
 9486TIP3    H228416   0.884   4.548   2.115
 9487TIP3   OH228417   4.756   4.677   0.460
 9487TIP3    H128418   4.844   4.699   0.429
 9487TIP3    H228419   4.742   4.588   0.428
 9488TIP3   OH228420   7.750   6.126   5.704
 9488TIP3    H128421   7.752   6.157   5.795
 9488TIP3    H228422   7.841   6.104   5.684
 9489TIP3   OH228423   0.128   2.295   5.984
 9489TIP3    H128424   0.204   2.303   5.927
 9489TIP3    H228425   0.159   2.249   6.061
 9490TIP3   OH228426   4.140   4.561   0.077
 9490TIP3    H128427   4.104   4.504   0.144
 9490TIP3    H228428   4.234   4.545   0.079
 9491TIP3   OH228429   2.546   7.559   1.274
 9491TIP3    H128430   2.469   7.521   1.318
 9491TIP3    H228431   2.619   7.535   1.330
 9492TIP3   OH228432   5.719   3.614   6.756
 9492TIP3    H128433   5.806   3.653   6.748
 9492TIP3    H228434   5.700   3.578   6.669
 9493TIP3   OH228435   5.302   0.651   1.369
 9493TIP3    H128436   5.390   0.683   1.391
 9493TIP3    H228437   5.309   0.556   1.372
 9494TIP3   OH228438   4.499   5.221   5.575
 9494TIP3    H128439   4.539   5.307   5.587
 9494TIP3    H228440   4.434   5.234   5.506
 9495TIP3   OH228441   2.179   1.244   2.227
 9495TIP3    H128442   2.170   1.338   2.241
 9495TIP3    H228443   2.091   1.209   2.240
 9496TIP3   OH228444   6.747   0.391   6.018
 9496TIP3    H128445   6.834   0.429   6.021
 9496TIP3    H228446   6.698   0.445   5.956
 9497TIP3   OH228447   5.914   6.921   2.425
 9497TIP3    H128448   5.987   6.953   2.478
 9497TIP3    H228449   5.909   6.827   2.444
 9498TIP3   OH228450   3.064   3.893   2.335
 9498TIP3    H128451   3.027   3.876   2.249
 9498TIP3    H228452   2.987   3.907   2.391
 9499TIP3   OH228453   7.107   0.028   0.492
 9499TIP3    H128454   7.199   0.024   0.468
 9499TIP3    H228455   7.065   0.076   0.420
 9500TIP3   OH228456   4.883   6.267   0.962
 9500TIP3    H128457   4.939   6.195   0.989
 9500TIP3    H228458   4.795   6.229   0.959
 9501TIP3   OH228459   2.121   2.067   6.107
 9501TIP3    H128460   2.166   2.089   6.026
 9501TIP3    H228461   2.191   2.049   6.170
 9502TIP3   OH228462   7.110   4.245   5.163
 9502TIP3    H128463   7.186   4.302   5.157
 9502TIP3    H228464   7.060   4.280   5.237
 9503TIP3   OH228465   0.087   5.939   5.682
 9503TIP3    H128466   0.176   5.904   5.690
 9503TIP3    H228467   0.041   5.905   5.759
 9504TIP3   OH228468   2.247   2.731   2.352
 9504TIP3    H128469   2.312   2.723   2.283
 9504TIP3    H228470   2.273   2.667   2.418
 9505TIP3   OH228471   2.460   3.399   6.236
 9505TIP3    H128472   2.386   3.411   6.294
 9505TIP3    H228473   2.433   3.438   6.153
 9506TIP3   OH228474   1.348   3.716   2.643
 9506TIP3    H128475   1.370   3.807   2.661
 9506TIP3    H228476   1.329   3.678   2.729
 9507TIP3   OH228477   5.081   3.100   0.568
 9507TIP3    H128478   5.160   3.063   0.528
 9507TIP3    H228479   5.093   3.085   0.662
 9508TIP3   OH228480   0.779   7.377   4.497
 9508TIP3    H128481   0.771   7.318   4.421
 9508TIP3    H228482   0.778   7.318   4.572
 9509TIP3   OH228483   2.629   2.293   3.909
 9509TIP3    H128484   2.534   2.287   3.921
 9509TIP3    H228485   2.647   2.239   3.832
 9510TIP3   OH228486   2.623   7.648   6.063
 9510TIP3    H128487   2.557   7.714   6.045
 9510TIP3    H228488   2.672   7.682   6.138
 9511TIP3   OH228489   3.464   7.042   1.013
 9511TIP3    H128490   3.444   6.974   0.949
 9511TIP3    H228491   3.528   7.002   1.072
 9512TIP3   OH228492   6.205   5.420   6.141
 9512TIP3    H128493   6.158   5.503   6.132
 9512TIP3    H228494   6.175   5.384   6.225
 9513TIP3   OH228495   2.818   2.696   0.456
 9513TIP3    H128496   2.853   2.609   0.473
 9513TIP3    H228497   2.814   2.738   0.542
 9514TIP3   OH228498   3.401   7.736   0.624
 9514TIP3    H128499   3.435   7.769   0.708
 9514TIP3    H228500   3.359   7.812   0.584
 9515TIP3   OH228501   1.883   0.626   3.447
 9515TIP3    H128502   1.823   0.568   3.399
 9515TIP3    H228503   1.871   0.601   3.539
 9516TIP3   OH228504   6.715   5.311   3.122
 9516TIP3    H128505   6.626   5.340   3.101
 9516TIP3    H228506   6.757   5.299   3.036
 9517TIP3   OH228507   0.828   5.010   5.033
 9517TIP3    H128508   0.788   5.094   5.011
 9517TIP3    H228509   0.884   5.028   5.108
 9518TIP3   OH228510   7.535   5.237   0.850
 9518TIP3    H128511   7.492   5.237   0.936
 9518TIP3    H228512   7.504   5.157   0.808
 9519TIP3   OH228513   6.320   2.844   0.284
 9519TIP3    H128514   6.230   2.844   0.316
 9519TIP3    H228515   6.369   2.797   0.352
 9520TIP3   OH228516   0.476   6.026   0.760
 9520TIP3    H128517   0.455   6.047   0.669
 9520TIP3    H228518   0.562   6.064   0.774
 9521TIP3   OH228519   2.226   3.699   0.174
 9521TIP3    H128520   2.152   3.750   0.205
 9521TIP3    H228521   2.221   3.703   0.078
 9522TIP3   OH228522   0.020   0.287   1.970
 9522TIP3    H128523  -0.074   0.274   1.979
 9522TIP3    H228524   0.053   0.203   1.939
 9523TIP3   OH228525   0.613   2.070   0.856
 9523TIP3    H128526   0.548   2.003   0.834
 9523TIP3    H228527   0.697   2.024   0.853
 9524TIP3   OH228528   7.632   0.467   6.535
 9524TIP3    H128529   7.549   0.514   6.550
 9524TIP3    H228530   7.667   0.452   6.623
 9525TIP3   OH228531   5.985   7.062   6.248
 9525TIP3    H128532   6.040   7.134   6.278
 9525TIP3    H228533   6.045   7.001   6.205
 9526TIP3   OH228534   3.802   5.540   5.802
 9526TIP3    H128535   3.725   5.482   5.799
 9526TIP3    H228536   3.805   5.579   5.715
 9527TIP3   OH228537   2.941   6.740   0.291
 9527TIP3    H128538   2.899   6.662   0.329
 9527TIP3    H228539   3.022   6.750   0.341
 9528TIP3   OH228540   0.636   2.575   5.504
 9528TIP3    H128541   0.705   2.515   5.532
 9528TIP3    H228542   0.555   2.530   5.526
 9529TIP3   OH228543   2.150   2.951   5.370
 9529TIP3    H128544   2.192   2.982   5.290
 9529TIP3    H228545   2.212   2.886   5.406
 9530TIP3   OH228546   3.826   2.076   2.241
 9530TIP3    H128547   3.875   2.081   2.323
 9530TIP3    H228548   3.862   1.999   2.196
 9531TIP3   OH228549   6.563   3.203   3.858
 9531TIP3    H128550   6.578   3.109   3.871
 9531TIP3    H228551   6.569   3.241   3.946
 9532TIP3   OH228552   5.772   1.398   1.743
 9532TIP3    H128553   5.690   1.447   1.736
 9532TIP3    H228554   5.805   1.394   1.654
 9533TIP3   OH228555   3.660   3.826   0.672
 9533TIP3    H128556   3.631   3.786   0.590
 9533TIP3    H228557   3.689   3.914   0.646
 9534TIP3   OH228558   6.413   4.259   5.795
 9534TIP3    H128559   6.331   4.273   5.748
 9534TIP3    H228560   6.460   4.194   5.743
 9535TIP3   OH228561   2.383   5.627   3.648
 9535TIP3    H128562   2.378   5.711   3.602
 9535TIP3    H228563   2.473   5.624   3.682
 9536TIP3   OH228564   2.141   2.397   0.127
 9536TIP3    H128565   2.128   2.318   0.179
 9536TIP3    H228566   2.233   2.421   0.141
 9537TIP3   OH228567   6.945   7.169   3.471
 9537TIP3    H128568   6.893   7.222   3.532
 9537TIP3    H228569   6.989   7.233   3.415
 9538TIP3   OH228570   5.806   4.675   0.843
 9538TIP3    H128571   5.728   4.728   0.827
 9538TIP3    H228572   5.784   4.589   0.805
 9539TIP3   OH228573   6.863   6.595   3.969
 9539TIP3    H128574   6.868   6.691   3.965
 9539TIP3    H228575   6.859   6.576   4.063
 9540TIP3   OH228576   4.240   1.424   1.712
 9540TIP3    H128577   4.214   1.499   1.658
 9540TIP3    H228578   4.158   1.395   1.753
 9541TIP3   OH228579   7.485   5.169   1.820
 9541TIP3    H128580   7.427   5.186   1.894
 9541TIP3    H228581   7.572   5.157   1.860
 9542TIP3   OH228582   0.143   0.363   6.467
 9542TIP3    H128583   0.085   0.319   6.405
 9542TIP3    H228584   0.136   0.456   6.446
 9543TIP3   OH228585   1.161   5.792   5.627
 9543TIP3    H128586   1.072   5.826   5.615
 9543TIP3    H228587   1.178   5.804   5.721
 9544TIP3   OH228588   8.062   0.167   0.388
 9544TIP3    H128589   8.001   0.123   0.448
 9544TIP3    H228590   8.014   0.244   0.358
 9545TIP3   OH228591   1.138   3.681   4.155
 9545TIP3    H128592   1.170   3.758   4.108
 9545TIP3    H228593   1.179   3.686   4.241
 9546TIP3   OH228594   3.445   5.033   0.090
 9546TIP3    H128595   3.535   5.065   0.085
 9546TIP3    H228596   3.453   4.939   0.104
 9547TIP3   OH228597   1.170   2.998   6.667
 9547TIP3    H128598   1.086   2.955   6.652
 9547TIP3    H228599   1.153   3.061   6.737
 9548TIP3   OH228600   4.467   1.733   5.666
 9548TIP3    H128601   4.429   1.667   5.724
 9548TIP3    H228602   4.557   1.703   5.652
 9549TIP3   OH228603   0.915   5.466   3.757
 9549TIP3    H128604   0.870   5.435   3.835
 9549TIP3    H228605   0.946   5.554   3.781
 9550TIP3   OH228606   0.124   4.858   5.892
 9550TIP3    H128607   0.156   4.946   5.916
 9550TIP3    H228608   0.203   4.805   5.889
 9551TIP3   OH228609   2.155   6.964   1.694
 9551TIP3    H128610   2.157   6.868   1.694
 9551TIP3    H228611   2.225   6.989   1.634
 9552TIP3   OH228612   6.416   2.927   6.192
 9552TIP3    H128613   6.384   2.870   6.261
 9552TIP3    H228614   6.495   2.967   6.228
 9553TIP3   OH228615   0.429   5.056   6.704
 9553TIP3    H128616   0.490   5.107   6.652
 9553TIP3    H228617   0.376   5.010   6.639
 9554TIP3   OH228618   1.189   5.485   4.434
 9554TIP3    H128619   1.158   5.543   4.503
 9554TIP3    H228620   1.135   5.506   4.358
 9555TIP3   OH228621   2.889   4.309   2.222
 9555TIP3    H128622   2.813   4.367   2.215
 9555TIP3    H228623   2.900   4.272   2.134
 9556TIP3   OH228624   5.809   1.687   3.716
 9556TIP3    H128625   5.801   1.595   3.739
 9556TIP3    H228626   5.752   1.733   3.777
 9557TIP3   OH228627   1.304   5.049   5.383
 9557TIP3    H128628   1.236   5.067   5.317
 9557TIP3    H228629   1.270   5.089   5.463
 9558TIP3   OH228630   0.606   3.975   0.448
 9558TIP3    H128631   0.636   3.966   0.357
 9558TIP3    H228632   0.529   4.031   0.442
 9559TIP3   OH228633   2.401   4.815   0.932
 9559TIP3    H128634   2.306   4.815   0.922
 9559TIP3    H228635   2.423   4.906   0.951
 9560TIP3   OH228636   1.090   0.722   1.968
 9560TIP3    H128637   1.081   0.776   2.047
 9560TIP3    H228638   1.011   0.741   1.918
 9561TIP3   OH228639   7.440   4.589   2.042
 9561TIP3    H128640   7.532   4.613   2.056
 9561TIP3    H228641   7.398   4.672   2.017
 9562TIP3   OH228642   1.432   1.435   6.671
 9562TIP3    H128643   1.394   1.368   6.729
 9562TIP3    H228644   1.435   1.393   6.585
 9563TIP3   OH228645   4.255   6.315   1.411
 9563TIP3    H128646   4.320   6.369   1.366
 9563TIP3    H228647   4.269   6.227   1.376
 9564TIP3   OH228648   6.086   0.159   1.336
 9564TIP3    H128649   6.103   0.081   1.388
 9564TIP3    H228650   6.021   0.132   1.272
 9565TIP3   OH228651   2.077   5.523   2.966
 9565TIP3    H128652   2.124   5.565   3.038
 9565TIP3    H228653   2.143   5.469   2.923
 9566TIP3   OH228654   3.985   5.076   2.437
 9566TIP3    H128655   4.047   5.031   2.494
 9566TIP3    H228656   3.938   5.006   2.392
 9567TIP3   OH228657   0.987   0.270   3.184
 9567TIP3    H128658   0.926   0.226   3.124
 9567TIP3    H228659   0.946   0.263   3.270
 9568TIP3   OH228660   1.010   1.981   3.538
 9568TIP3    H128661   1.020   2.063   3.490
 9568TIP3    H228662   1.042   1.913   3.479
 9569TIP3   OH228663   0.501   2.212   6.364
 9569TIP3    H128664   0.595   2.233   6.364
 9569TIP3    H228665   0.461   2.280   6.310
 9570TIP3   OH228666   4.845   5.417   1.594
 9570TIP3    H128667   4.765   5.465   1.575
 9570TIP3    H228668   4.863   5.436   1.686
 9571TIP3   OH228669   3.129   3.376   5.500
 9571TIP3    H128670   3.111   3.361   5.593
 9571TIP3    H228671   3.062   3.439   5.473
 9572TIP3   OH228672   2.406   4.364   2.695
 9572TIP3    H128673   2.454   4.346   2.614
 9572TIP3    H228674   2.473   4.390   2.758
 9573TIP3   OH228675   0.484   1.645   0.578
 9573TIP3    H128676   0.475   1.556   0.612
 9573TIP3    H228677   0.572   1.648   0.541
 9574TIP3   OH228678   6.913   2.657   0.440
 9574TIP3    H128679   6.998   2.694   0.414
 9574TIP3    H228680   6.851   2.696   0.378
 9575TIP3   OH228681   4.548   2.200   1.872
 9575TIP3    H128682   4.510   2.215   1.786
 9575TIP3    H228683   4.572   2.287   1.904
 9576TIP3   OH228684   7.658   3.377   6.239
 9576TIP3    H128685   7.627   3.465   6.217
 9576TIP3    H228686   7.594   3.318   6.200
 9577TIP3   OH228687   7.796   2.387   1.015
 9577TIP3    H128688   7.736   2.313   1.026
 9577TIP3    H228689   7.784   2.439   1.095
 9578TIP3   OH228690   2.301   5.538   4.120
 9578TIP3    H128691   2.254   5.603   4.172
 9578TIP3    H228692   2.250   5.457   4.130
 9579TIP3   OH228693   0.210   7.431   6.640
 9579TIP3    H128694   0.206   7.525   6.659
 9579TIP3    H228695   0.265   7.395   6.709
 9580TIP3   OH228696   4.609   4.942   2.761
 9580TIP3    H128697   4.687   4.894   2.733
 9580TIP3    H228698   4.630   5.034   2.743
 9581TIP3   OH228699   2.438   4.640   3.432
 9581TIP3    H128700   2.466   4.668   3.520
 9581TIP3    H228701   2.343   4.646   3.434
 9582TIP3   OH228702   4.233   4.598   2.030
 9582TIP3    H128703   4.192   4.531   2.086
 9582TIP3    H228704   4.241   4.675   2.086
 9583TIP3   OH228705   3.343   2.242   2.693
 9583TIP3    H128706   3.376   2.234   2.783
 9583TIP3    H228707   3.419   2.225   2.638
 9584TIP3   OH228708   5.791   1.777   5.856
 9584TIP3    H128709   5.851   1.804   5.787
 9584TIP3    H228710   5.705   1.772   5.812
 9585TIP3   OH228711   2.603   6.216   1.680
 9585TIP3    H128712   2.538   6.157   1.641
 9585TIP3    H228713   2.583   6.302   1.644
 9586TIP3   OH228714   5.556   7.242   1.940
 9586TIP3    H128715   5.649   7.224   1.954
 9586TIP3    H228716   5.521   7.255   2.029
 9587TIP3   OH228717   1.343   6.618   1.538
 9587TIP3    H128718   1.424   6.622   1.488
 9587TIP3    H228719   1.280   6.669   1.487
 9588TIP3   OH228720   6.525   5.759   1.521
 9588TIP3    H128721   6.548   5.838   1.473
 9588TIP3    H228722   6.443   5.781   1.566
 9589TIP3   OH228723   1.654   1.788   1.963
 9589TIP3    H128724   1.743   1.817   1.984
 9589TIP3    H228725   1.646   1.702   2.005
 9590TIP3   OH228726   4.014   4.630   4.499
 9590TIP3    H128727   3.950   4.660   4.563
 9590TIP3    H228728   4.090   4.685   4.513
 9591TIP3   OH228729   3.484   5.656   1.203
 9591TIP3    H128730   3.548   5.661   1.274
 9591TIP3    H228731   3.421   5.725   1.223
 9592TIP3   OH228732   4.734   6.315   4.458
 9592TIP3    H128733   4.771   6.235   4.419
 9592TIP3    H228734   4.646   6.320   4.423
 9593TIP3   OH228735   7.518   6.078   4.391
 9593TIP3    H128736   7.586   6.081   4.458
 9593TIP3    H228737   7.559   6.035   4.317
 9594TIP3   OH228738   1.992   2.884   4.445
 9594TIP3    H128739   2.051   2.893   4.371
 9594TIP3    H228740   1.906   2.909   4.411
 9595TIP3   OH228741   3.385   4.986   3.056
 9595TIP3    H128742   3.293   4.978   3.032
 9595TIP3    H228743   3.388   4.967   3.150
 9596TIP3   OH228744   4.889   2.339   3.753
 9596TIP3    H128745   4.957   2.358   3.817
 9596TIP3    H228746   4.901   2.405   3.685
 9597TIP3   OH228747   8.165   6.089   4.249
 9597TIP3    H128748   8.108   6.161   4.223
 9597TIP3    H228749   8.134   6.064   4.336
 9598TIP3   OH228750   2.509   6.103   6.732
 9598TIP3    H128751   2.569   6.092   6.659
 9598TIP3    H228752   2.565   6.113   6.809
 9599TIP3   OH228753   3.330   4.187   5.307
 9599TIP3    H128754   3.378   4.132   5.370
 9599TIP3    H228755   3.238   4.175   5.331
 9600TIP3   OH228756   1.128   5.794   3.679
 9600TIP3    H128757   1.193   5.730   3.710
 9600TIP3    H228758   1.103   5.843   3.757
 9601TIP3   OH228759   3.400   3.943   5.483
 9601TIP3    H128760   3.491   3.970   5.471
 9601TIP3    H228761   3.385   3.950   5.577
 9602TIP3   OH228762   1.634   1.532   1.408
 9602TIP3    H128763   1.634   1.513   1.502
 9602TIP3    H228764   1.545   1.559   1.388
 9603TIP3   OH228765   0.416   4.910   3.737
 9603TIP3    H128766   0.497   4.960   3.730
 9603TIP3    H228767   0.401   4.902   3.831
 9604TIP3   OH228768   6.566   3.764   4.514
 9604TIP3    H128769   6.509   3.688   4.526
 9604TIP3    H228770   6.633   3.734   4.451
 9605TIP3   OH228771   5.403   0.606   3.402
 9605TIP3    H128772   5.410   0.608   3.497
 9605TIP3    H228773   5.311   0.626   3.385
 9606TIP3   OH228774   1.523   0.333   5.686
 9606TIP3    H128775   1.430   0.310   5.687
 9606TIP3    H228776   1.543   0.356   5.777
 9607TIP3   OH228777   7.149   3.176   3.852
 9607TIP3    H128778   7.203   3.252   3.828
 9607TIP3    H228779   7.095   3.207   3.925
 9608TIP3   OH228780   1.182   5.374   0.642
 9608TIP3    H128781   1.164   5.353   0.550
 9608TIP3    H228782   1.174   5.289   0.687
 9609TIP3   OH228783   6.212   5.968   3.377
 9609TIP3    H128784   6.171   6.054   3.377
 9609TIP3    H228785   6.175   5.923   3.301
 9610TIP3   OH228786   0.209   1.667   2.579
 9610TIP3    H128787   0.251   1.753   2.583
 9610TIP3    H228788   0.236   1.631   2.494
 9611TIP3   OH228789   3.243   5.188   6.689
 9611TIP3    H128790   3.318   5.146   6.647
 9611TIP3    H228791   3.194   5.227   6.617
 9612TIP3   OH228792   6.464   0.516   2.158
 9612TIP3    H128793   6.400   0.484   2.095
 9612TIP3    H228794   6.536   0.453   2.153
 9613TIP3   OH228795   5.184   0.542   6.508
 9613TIP3    H128796   5.176   0.526   6.602
 9613TIP3    H228797   5.127   0.476   6.468
 9614TIP3   OH228798   6.774   5.330   6.709
 9614TIP3    H128799   6.772   5.244   6.667
 9614TIP3    H228800   6.862   5.335   6.747
 9615TIP3   OH228801   3.216   1.576   0.737
 9615TIP3    H128802   3.272   1.513   0.781
 9615TIP3    H228803   3.277   1.637   0.694
 9616TIP3   OH228804   7.981   4.292   3.451
 9616TIP3    H128805   8.065   4.270   3.411
 9616TIP3    H228806   7.989   4.263   3.542
 9617TIP3   OH228807   7.875   6.069   3.276
 9617TIP3    H128808   7.925   6.076   3.357
 9617TIP3    H228809   7.915   5.996   3.229
 9618TIP3   OH228810   0.183   4.897   0.624
 9618TIP3    H128811   0.218   4.979   0.659
 9618TIP3    H228812   0.260   4.844   0.604
 9619TIP3   OH228813   6.545   0.906   5.068
 9619TIP3    H128814   6.520   0.874   5.155
 9619TIP3    H228815   6.509   0.994   5.063
 9620TIP3   OH228816   0.229   4.741   4.666
 9620TIP3    H128817   0.197   4.709   4.582
 9620TIP3    H228818   0.230   4.836   4.658
 9621TIP3   OH228819   6.279   0.975   0.391
 9621TIP3    H128820   6.187   0.967   0.367
 9621TIP3    H228821   6.290   1.067   0.415
 9622TIP3   OH228822   2.081   2.329   2.037
 9622TIP3    H128823   2.064   2.329   2.131
 9622TIP3    H228824   2.020   2.393   2.001
 9623TIP3   OH228825   2.366   6.561   4.667
 9623TIP3    H128826   2.440   6.537   4.723
 9623TIP3    H228827   2.322   6.479   4.649
 9624TIP3   OH228828   3.653  -0.017   2.600
 9624TIP3    H128829   3.647   0.040   2.523
 9624TIP3    H228830   3.564  -0.052   2.610
 9625TIP3   OH228831   3.331   2.732   2.301
 9625TIP3    H128832   3.406   2.788   2.277
 9625TIP3    H228833   3.311   2.684   2.221
 9626TIP3   OH228834   3.832   3.083   5.493
 9626TIP3    H128835   3.844   3.105   5.586
 9626TIP3    H228836   3.915   3.043   5.467
 9627TIP3   OH228837   1.553   4.511   3.797
 9627TIP3    H128838   1.492   4.553   3.736
 9627TIP3    H228839   1.529   4.418   3.795
 9628TIP3   OH228840   7.003   5.589   1.126
 9628TIP3    H128841   6.911   5.576   1.146
 9628TIP3    H228842   7.049   5.548   1.199
 9629TIP3   OH228843   6.560   1.951   0.625
 9629TIP3    H128844   6.632   2.006   0.655
 9629TIP3    H228845   6.586   1.862   0.649
 9630TIP3   OH228846   6.683   1.200   4.694
 9630TIP3    H128847   6.702   1.108   4.711
 9630TIP3    H228848   6.747   1.248   4.747
 9631TIP3   OH228849   4.344   1.027   1.080
 9631TIP3    H128850   4.349   1.032   0.984
 9631TIP3    H228851   4.355   0.934   1.100
 9632TIP3   OH228852   1.582   1.587   3.257
 9632TIP3    H128853   1.662   1.614   3.211
 9632TIP3    H228854   1.513   1.593   3.190
 9633TIP3   OH228855   1.072   6.835   5.414
 9633TIP3    H128856   1.067   6.774   5.488
 9633TIP3    H228857   0.997   6.894   5.427
 9634TIP3   OH228858   1.192   0.891   3.029
 9634TIP3    H128859   1.230   0.979   3.036
 9634TIP3    H228860   1.226   0.844   3.105
 9635TIP3   OH228861   5.628   0.169   0.522
 9635TIP3    H128862   5.633   0.259   0.556
 9635TIP3    H228863   5.541   0.139   0.546
 9636TIP3   OH228864   3.787   4.820   2.161
 9636TIP3    H128865   3.715   4.877   2.134
 9636TIP3    H228866   3.828   4.867   2.234
 9637TIP3   OH228867   2.869   3.328   5.989
 9637TIP3    H128868   2.869   3.420   5.965
 9637TIP3    H228869   2.793   3.318   6.048
 9638TIP3   OH228870   2.469   6.298   2.741
 9638TIP3    H128871   2.450   6.284   2.648
 9638TIP3    H228872   2.384   6.320   2.779
 9639TIP3   OH228873   7.835   3.800   1.705
 9639TIP3    H128874   7.924   3.792   1.739
 9639TIP3    H228875   7.800   3.879   1.746
 9640TIP3   OH228876   4.199   3.277   6.687
 9640TIP3    H128877   4.257   3.352   6.675
 9640TIP3    H228878   4.256   3.207   6.719
 9641TIP3   OH228879   6.446   3.334   2.276
 9641TIP3    H128880   6.397   3.414   2.296
 9641TIP3    H228881   6.531   3.365   2.246
 9642TIP3   OH228882   6.323   4.101   1.049
 9642TIP3    H128883   6.315   4.088   1.143
 9642TIP3    H228884   6.293   4.190   1.034
 9643TIP3   OH228885   1.821   6.267   5.796
 9643TIP3    H128886   1.876   6.315   5.858
 9643TIP3    H228887   1.851   6.177   5.803
 9644TIP3   OH228888   4.328   0.704   0.027
 9644TIP3    H128889   4.237   0.688   0.052
 9644TIP3    H228890   4.376   0.631   0.065
 9645TIP3   OH228891   8.234   2.417   1.792
 9645TIP3    H128892   8.220   2.334   1.747
 9645TIP3    H228893   8.171   2.416   1.864
 9646TIP3   OH228894   1.184   7.283   0.462
 9646TIP3    H128895   1.117   7.319   0.403
 9646TIP3    H228896   1.249   7.353   0.469
 9647TIP3   OH228897   3.304   1.459   5.064
 9647TIP3    H128898   3.331   1.500   4.982
 9647TIP3    H228899   3.236   1.516   5.098
 9648TIP3   OH228900   6.940   4.516   2.482
 9648TIP3    H128901   6.978   4.484   2.564
 9648TIP3    H228902   7.015   4.553   2.434
 9649TIP3   OH228903   3.084   2.947   5.383
 9649TIP3    H128904   3.094   2.985   5.471
 9649TIP3    H228905   3.169   2.958   5.342
 9650TIP3   OH228906   5.493   0.195   1.097
 9650TIP3    H128907   5.462   0.285   1.106
 9650TIP3    H228908   5.547   0.197   1.018
 9651TIP3   OH228909   6.365   0.312   2.405
 9651TIP3    H128910   6.270   0.320   2.404
 9651TIP3    H228911   6.397   0.389   2.358
 9652TIP3   OH228912   4.636   7.289   4.599
 9652TIP3    H128913   4.683   7.369   4.623
 9652TIP3    H228914   4.552   7.320   4.567
 9653TIP3   OH228915   6.339   4.726   2.221
 9653TIP3    H128916   6.367   4.798   2.279
 9653TIP3    H228917   6.334   4.650   2.279
 9654TIP3   OH228918   3.021   4.097   5.048
 9654TIP3    H128919   2.979   4.165   5.101
 9654TIP3    H228920   2.955   4.073   4.983
 9655TIP3   OH228921   7.814   0.271   3.538
 9655TIP3    H128922   7.817   0.185   3.580
 9655TIP3    H228923   7.766   0.257   3.457
 9656TIP3   OH228924   6.537   4.519   3.832
 9656TIP3    H128925   6.560   4.488   3.920
 9656TIP3    H228926   6.554   4.613   3.835
 9657TIP3   OH228927   5.182   5.499   3.485
 9657TIP3    H128928   5.277   5.487   3.493
 9657TIP3    H228929   5.145   5.444   3.554
 9658TIP3   OH228930   1.394   2.436   3.760
 9658TIP3    H128931   1.386   2.390   3.844
 9658TIP3    H228932   1.478   2.409   3.725
 9659TIP3   OH228933   3.324   0.075   5.398
 9659TIP3    H128934   3.372   0.009   5.448
 9659TIP3    H228935   3.302   0.032   5.316
 9660TIP3   OH228936   7.488   3.181   2.607
 9660TIP3    H128937   7.409   3.189   2.659
 9660TIP3    H228938   7.525   3.269   2.606
 9661TIP3   OH228939   1.659   0.386   5.916
 9661TIP3    H128940   1.649   0.370   6.010
 9661TIP3    H228941   1.753   0.390   5.902
 9662TIP3   OH228942   5.647   0.189   0.869
 9662TIP3    H128943   5.741   0.210   0.875
 9662TIP3    H228944   5.618   0.232   0.789
 9663TIP3   OH228945   0.090   3.342   5.257
 9663TIP3    H128946   0.135   3.425   5.242
 9663TIP3    H228947   0.024   3.337   5.188
 9664TIP3   OH228948   0.915   1.454   5.067
 9664TIP3    H128949   1.009   1.440   5.056
 9664TIP3    H228950   0.908   1.533   5.121
 9665TIP3   OH228951   1.010   2.808   0.005
 9665TIP3    H128952   1.069   2.781  -0.065
 9665TIP3    H228953   1.046   2.891   0.036
 9666TIP3   OH228954   7.572   0.637   0.325
 9666TIP3    H128955   7.652   0.612   0.278
 9666TIP3    H228956   7.534   0.554   0.354
 9667TIP3   OH228957   2.121   2.625   4.726
 9667TIP3    H128958   2.211   2.636   4.695
 9667TIP3    H228959   2.126   2.646   4.819
 9668TIP3   OH228960   7.231   2.584   5.434
 9668TIP3    H128961   7.301   2.624   5.382
 9668TIP3    H228962   7.153   2.633   5.410
 9669TIP3   OH228963   1.060   6.496   3.241
 9669TIP3    H128964   1.105   6.440   3.178
 9669TIP3    H228965   1.019   6.435   3.303
 9670TIP3   OH228966   2.071   1.116   5.774
 9670TIP3    H128967   1.987   1.120   5.728
 9670TIP3    H228968   2.073   1.029   5.814
 9671TIP3   OH228969   0.326   1.449   5.689
 9671TIP3    H128970   0.401   1.389   5.685
 9671TIP3    H228971   0.288   1.447   5.602
 9672TIP3   OH228972   4.658   5.510   0.723
 9672TIP3    H128973   4.595   5.484   0.656
 9672TIP3    H228974   4.607   5.511   0.804
 9673TIP3   OH228975   3.549   2.633   4.854
 9673TIP3    H128976   3.633   2.589   4.868
 9673TIP3    H228977   3.503   2.576   4.792
 9674TIP3   OH228978   0.803   0.917   5.085
 9674TIP3    H128979   0.795   0.825   5.059
 9674TIP3    H228980   0.828   0.914   5.177
 9675TIP3   OH228981   5.938   2.342   4.218
 9675TIP3    H128982   5.958   2.435   4.206
 9675TIP3    H228983   5.973   2.300   4.140
 9676TIP3   OH228984   7.575   6.386   2.588
 9676TIP3    H128985   7.505   6.340   2.634
 9676TIP3    H228986   7.603   6.325   2.520
 9677TIP3   OH228987   8.163   6.597   3.179
 9677TIP3    H128988   8.098   6.542   3.222
 9677TIP3    H228989   8.214   6.537   3.125
 9678TIP3   OH228990   6.586   3.914   3.374
 9678TIP3    H128991   6.505   3.863   3.371
 9678TIP3    H228992   6.595   3.940   3.466
 9679TIP3   OH228993   6.820   5.422   4.830
 9679TIP3    H128994   6.845   5.338   4.868
 9679TIP3    H228995   6.890   5.441   4.767
 9680TIP3   OH228996   5.316   3.440   2.046
 9680TIP3    H128997   5.362   3.385   1.984
 9680TIP3    H228998   5.311   3.526   2.004
 9681TIP3   OH228999   5.691   3.290   6.564
 9681TIP3    H129000   5.642   3.298   6.482
 9681TIP3    H229001   5.764   3.232   6.542
 9682TIP3   OH229002   7.616   0.799   1.708
 9682TIP3    H129003   7.569   0.808   1.625
 9682TIP3    H229004   7.552   0.824   1.774
 9683TIP3   OH229005   5.991   6.094   5.406
 9683TIP3    H129006   5.979   6.189   5.414
 9683TIP3    H229007   5.903   6.059   5.405
 9684TIP3   OH229008   4.212   3.699   3.430
 9684TIP3    H129009   4.132   3.746   3.453
 9684TIP3    H229010   4.202   3.614   3.472
 9685TIP3   OH229011   0.493   3.607   4.529
 9685TIP3    H129012   0.416   3.588   4.582
 9685TIP3    H229013   0.560   3.548   4.563
 9686TIP3   OH229014   1.666   4.163   6.512
 9686TIP3    H129015   1.587   4.156   6.459
 9686TIP3    H229016   1.636   4.206   6.593
 9687TIP3   OH229017   4.089   1.648   2.323
 9687TIP3    H129018   4.154   1.639   2.254
 9687TIP3    H229019   4.065   1.741   2.322
 9688TIP3   OH229020   2.940   0.990   0.698
 9688TIP3    H129021   2.954   1.084   0.707
 9688TIP3    H229022   3.027   0.952   0.709
 9689TIP3   OH229023   4.781   7.243   1.374
 9689TIP3    H129024   4.827   7.316   1.333
 9689TIP3    H229025   4.793   7.257   1.468
 9690TIP3   OH229026   1.405   2.346   0.916
 9690TIP3    H129027   1.421   2.436   0.946
 9690TIP3    H229028   1.342   2.311   0.978
 9691TIP3   OH229029   6.132   5.445   1.387
 9691TIP3    H129030   6.209   5.456   1.442
 9691TIP3    H229031   6.166   5.419   1.301
 9692TIP3   OH229032   0.660   7.652   2.902
 9692TIP3    H129033   0.746   7.666   2.861
 9692TIP3    H229034   0.598   7.695   2.842
 9693TIP3   OH229035   6.921   1.599   1.136
 9693TIP3    H129036   6.939   1.693   1.132
 9693TIP3    H229037   6.908   1.573   1.044
 9694TIP3   OH229038   7.775   7.150   6.639
 9694TIP3    H129039   7.845   7.170   6.702
 9694TIP3    H229040   7.785   7.057   6.622
 9695TIP3   OH229041   3.153   2.716   2.909
 9695TIP3    H129042   3.224   2.698   2.970
 9695TIP3    H229043   3.154   2.811   2.898
 9696TIP3   OH229044   1.115   3.971   6.211
 9696TIP3    H129045   1.207   3.948   6.225
 9696TIP3    H229046   1.101   3.957   6.118
 9697TIP3   OH229047   0.175   0.668   2.541
 9697TIP3    H129048   0.100   0.675   2.599
 9697TIP3    H229049   0.227   0.746   2.559
 9698TIP3   OH229050   5.112   0.923   1.785
 9698TIP3    H129051   5.146   1.001   1.829
 9698TIP3    H229052   5.157   0.921   1.701
 9699TIP3   OH229053   2.039   2.368   4.986
 9699TIP3    H129054   2.083   2.342   4.906
 9699TIP3    H229055   2.061   2.460   4.998
 9700TIP3   OH229056   0.728   0.666   0.390
 9700TIP3    H129057   0.751   0.719   0.466
 9700TIP3    H229058   0.654   0.713   0.350
 9701TIP3   OH229059   2.816   0.782   1.969
 9701TIP3    H129060   2.880   0.727   1.925
 9701TIP3    H229061   2.755   0.808   1.899
 9702TIP3   OH229062   7.908   4.174   1.665
 9702TIP3    H129063   7.897   4.125   1.583
 9702TIP3    H229064   7.955   4.114   1.723
 9703TIP3   OH229065   3.424   3.531   0.580
 9703TIP3    H129066   3.435   3.437   0.595
 9703TIP3    H229067   3.403   3.567   0.666
 9704TIP3   OH229068   8.032   2.107   1.463
 9704TIP3    H129069   8.020   2.141   1.552
 9704TIP3    H229070   8.125   2.085   1.458
 9705TIP3   OH229071   5.498   7.648   5.506
 9705TIP3    H129072   5.522   7.567   5.550
 9705TIP3    H229073   5.580   7.683   5.472
 9706TIP3   OH229074   4.185   3.232   0.545
 9706TIP3    H129075   4.252   3.291   0.512
 9706TIP3    H229076   4.232   3.153   0.570
 9707TIP3   OH229077   0.523   2.192   0.070
 9707TIP3    H129078   0.546   2.285   0.060
 9707TIP3    H229079   0.434   2.185   0.035
 9708TIP3   OH229080   7.831   7.450   0.910
 9708TIP3    H129081   7.877   7.490   0.835
 9708TIP3    H229082   7.865   7.360   0.913
 9709TIP3   OH229083   7.859   0.005   0.596
 9709TIP3    H129084   7.880  -0.066   0.656
 9709TIP3    H229085   7.829   0.076   0.653
 9710TIP3   OH229086   2.973   5.900   1.065
 9710TIP3    H129087   2.900   5.841   1.085
 9710TIP3    H229088   2.950   5.940   0.982
 9711TIP3   OH229089   3.381   2.571   6.594
 9711TIP3    H129090   3.470   2.535   6.591
 9711TIP3    H229091   3.381   2.625   6.674
 9712TIP3   OH229092   4.344   5.888   2.831
 9712TIP3    H129093   4.379   5.968   2.792
 9712TIP3    H229094   4.340   5.826   2.759
 9713TIP3   OH229095   6.913   2.140   1.085
 9713TIP3    H129096   6.927   2.048   1.064
 9713TIP3    H229097   6.995   2.183   1.059
 9714TIP3   OH229098   7.745   7.373   5.903
 9714TIP3    H129099   7.807   7.419   5.960
 9714TIP3    H229100   7.779   7.388   5.814
 9715TIP3   OH229101   3.796   1.207   1.549
 9715TIP3    H129102   3.865   1.191   1.614
 9715TIP3    H229103   3.834   1.179   1.466
 9716TIP3   OH229104   2.488   1.780   2.901
 9716TIP3    H129105   2.465   1.737   2.984
 9716TIP3    H229106   2.580   1.806   2.913
 9717TIP3   OH229107   0.072   0.006   3.877
 9717TIP3    H129108   0.151   0.020   3.825
 9717TIP3    H229109   0.053   0.092   3.915
 9718TIP3   OH229110   4.687   0.272   5.517
 9718TIP3    H129111   4.625   0.321   5.571
 9718TIP3    H229112   4.718   0.202   5.574
 9719TIP3   OH229113   5.441   0.242   2.532
 9719TIP3    H129114   5.362   0.193   2.507
 9719TIP3    H229115   5.455   0.220   2.624
 9720TIP3   OH229116   3.466   4.529   1.819
 9720TIP3    H129117   3.468   4.437   1.846
 9720TIP3    H229118   3.553   4.545   1.783
 9721TIP3   OH229119   6.942   4.464   2.178
 9721TIP3    H129120   6.957   4.436   2.268
 9721TIP3    H229121   7.002   4.412   2.125
 9722TIP3   OH229122   2.555   1.193   1.013
 9722TIP3    H129123   2.608   1.141   0.953
 9722TIP3    H229124   2.513   1.127   1.070
 9723TIP3   OH229125   6.887   7.709   4.239
 9723TIP3    H129126   6.858   7.625   4.205
 9723TIP3    H229127   6.948   7.742   4.173
 9724TIP3   OH229128   0.134   4.837   6.568
 9724TIP3    H129129   0.090   4.774   6.512
 9724TIP3    H229130   0.201   4.787   6.614
 9725TIP3   OH229131   8.007   6.264   5.189
 9725TIP3    H129132   7.947   6.306   5.128
 9725TIP3    H229133   7.971   6.282   5.276
 9726TIP3   OH229134   4.873   3.280   0.933
 9726TIP3    H129135   4.838   3.355   0.981
 9726TIP3    H229136   4.952   3.313   0.890
 9727TIP3   OH229137   2.168   3.676   4.636
 9727TIP3    H129138   2.190   3.769   4.632
 9727TIP3    H229139   2.228   3.640   4.701
 9728TIP3   OH229140   3.237   7.866   1.884
 9728TIP3    H129141   3.155   7.822   1.860
 9728TIP3    H229142   3.294   7.795   1.913
 9729TIP3   OH229143   1.686   1.348   5.009
 9729TIP3    H129144   1.606   1.400   5.009
 9729TIP3    H229145   1.753   1.406   4.974
 9730TIP3   OH229146   6.875   1.464   6.539
 9730TIP3    H129147   6.928   1.475   6.617
 9730TIP3    H229148   6.794   1.423   6.570
 9731TIP3   OH229149   4.734   4.676   2.087
 9731TIP3    H129150   4.657   4.658   2.141
 9731TIP3    H229151   4.702   4.735   2.018
 9732TIP3   OH229152   0.747   3.134   3.671
 9732TIP3    H129153   0.696   3.086   3.736
 9732TIP3    H229154   0.794   3.200   3.721
 9733TIP3   OH229155   5.616   6.951   2.114
 9733TIP3    H129156   5.686   6.896   2.080
 9733TIP3    H229157   5.547   6.945   2.049
 9734TIP3   OH229158   7.631   3.718   4.256
 9734TIP3    H129159   7.582   3.682   4.182
 9734TIP3    H229160   7.722   3.698   4.236
 9735TIP3   OH229161   7.122   2.150   4.616
 9735TIP3    H129162   7.209   2.189   4.621
 9735TIP3    H229163   7.081   2.193   4.541
 9736TIP3   OH229164   0.157   3.452   2.591
 9736TIP3    H129165   0.180   3.475   2.681
 9736TIP3    H229166   0.227   3.492   2.539
 9737TIP3   OH229167   6.820   2.891   6.476
 9737TIP3    H129168   6.817   2.806   6.520
 9737TIP3    H229169   6.903   2.890   6.428
 9738TIP3   OH229170   0.221   4.160   2.544
 9738TIP3    H129171   0.128   4.183   2.542
 9738TIP3    H229172   0.225   4.082   2.598
 9739TIP3   OH229173   2.363   6.203   5.845
 9739TIP3    H129174   2.283   6.229   5.799
 9739TIP3    H229175   2.373   6.110   5.826
 9740TIP3   OH229176   1.896   4.989   5.911
 9740TIP3    H129177   1.911   4.904   5.869
 9740TIP3    H229178   1.948   4.985   5.991
 9741TIP3   OH229179   2.265   5.186   0.175
 9741TIP3    H129180   2.354   5.158   0.199
 9741TIP3    H229181   2.220   5.105   0.153
 9742TIP3   OH229182   7.585   5.898   5.775
 9742TIP3    H129183   7.637   5.957   5.719
 9742TIP3    H229184   7.597   5.932   5.864
 9743TIP3   OH229185   0.938   6.576   4.848
 9743TIP3    H129186   0.878   6.598   4.777
 9743TIP3    H229187   1.019   6.551   4.803
 9744TIP3   OH229188   5.184   5.157   3.302
 9744TIP3    H129189   5.251   5.155   3.370
 9744TIP3    H229190   5.233   5.173   3.221
 9745TIP3   OH229191   3.331   1.028   3.997
 9745TIP3    H129192   3.267   1.080   4.046
 9745TIP3    H229193   3.399   1.007   4.061
 9746TIP3   OH229194   3.264   0.453   3.434
 9746TIP3    H129195   3.234   0.377   3.384
 9746TIP3    H229196   3.359   0.445   3.436
 9747TIP3   OH229197   4.879   4.529   6.702
 9747TIP3    H129198   4.906   4.558   6.615
 9747TIP3    H229199   4.956   4.542   6.758
 9748TIP3   OH229200   0.347   1.773   2.983
 9748TIP3    H129201   0.262   1.732   2.966
 9748TIP3    H229202   0.409   1.700   2.989
 9749TIP3   OH229203   5.846   0.280   2.266
 9749TIP3    H129204   5.793   0.241   2.197
 9749TIP3    H229205   5.787   0.342   2.310
 9750TIP3   OH229206   3.158   2.703   4.655
 9750TIP3    H129207   3.155   2.616   4.695
 9750TIP3    H229208   3.070   2.739   4.668
 9751TIP3   OH229209   7.193   6.396   4.498
 9751TIP3    H129210   7.265   6.435   4.547
 9751TIP3    H229211   7.236   6.356   4.422
 9752TIP3   OH229212   2.859   1.789   1.102
 9752TIP3    H129213   2.926   1.797   1.170
 9752TIP3    H229214   2.779   1.768   1.149
 9753TIP3   OH229215   8.061   1.672   6.017
 9753TIP3    H129216   8.147   1.712   6.006
 9753TIP3    H229217   8.039   1.689   6.109
 9754TIP3   OH229218   2.750   6.640   1.625
 9754TIP3    H129219   2.730   6.615   1.534
 9754TIP3    H229220   2.787   6.561   1.664
 9755TIP3   OH229221   7.102   0.901   2.607
 9755TIP3    H129222   7.085   0.861   2.521
 9755TIP3    H229223   7.193   0.930   2.602
 9756TIP3   OH229224   3.662   6.827   6.432
 9756TIP3    H129225   3.613   6.804   6.511
 9756TIP3    H229226   3.723   6.895   6.461
 9757TIP3   OH229227   7.950   5.434   0.171
 9757TIP3    H129228   7.872   5.411   0.121
 9757TIP3    H229229   8.023   5.397   0.120
 9758TIP3   OH229230   2.174   2.499   5.554
 9758TIP3    H129231   2.203   2.413   5.584
 9758TIP3    H229232   2.253   2.539   5.517
 9759TIP3   OH229233   3.409   0.565   0.268
 9759TIP3    H129234   3.449   0.597   0.349
 9759TIP3    H229235   3.326   0.526   0.296
 9760TIP3   OH229236   2.916   1.435   5.825
 9760TIP3    H129237   2.978   1.377   5.782
 9760TIP3    H229238   2.847   1.378   5.857
 9761TIP3   OH229239   7.419   7.316   3.217
 9761TIP3    H129240   7.496   7.260   3.209
 9761TIP3    H229241   7.371   7.305   3.135
 9762TIP3   OH229242   1.913   6.133   3.436
 9762TIP3    H129243   1.918   6.054   3.491
 9762TIP3    H229244   1.985   6.123   3.374
 9763TIP3   OH229245   0.277   3.956   3.380
 9763TIP3    H129246   0.337   3.902   3.329
 9763TIP3    H229247   0.304   4.046   3.364
 9764TIP3   OH229248   0.721   4.370   1.343
 9764TIP3    H129249   0.743   4.277   1.346
 9764TIP3    H229250   0.800   4.412   1.310
 9765TIP3   OH229251   6.594   6.397   1.111
 9765TIP3    H129252   6.522   6.445   1.152
 9765TIP3    H229253   6.590   6.310   1.151
 9766TIP3   OH229254   4.498   5.877   3.703
 9766TIP3    H129255   4.407   5.895   3.680
 9766TIP3    H229256   4.493   5.827   3.784
 9767TIP3   OH229257   3.645   6.445   0.099
 9767TIP3    H129258   3.699   6.418   0.025
 9767TIP3    H229259   3.555   6.442   0.066
 9768TIP3   OH229260   6.678   3.826   0.224
 9768TIP3    H129261   6.698   3.818   0.131
 9768TIP3    H229262   6.764   3.826   0.267
 9769TIP3   OH229263   5.349   6.773   0.452
 9769TIP3    H129264   5.352   6.704   0.387
 9769TIP3    H229265   5.266   6.817   0.437
 9770TIP3   OH229266   7.664   3.699   5.992
 9770TIP3    H129267   7.605   3.719   6.065
 9770TIP3    H229268   7.750   3.727   6.023
 9771TIP3   OH229269   3.802   1.888   5.833
 9771TIP3    H129270   3.870   1.829   5.866
 9771TIP3    H229271   3.848   1.970   5.816
 9772TIP3   OH229272   0.439   4.284   2.678
 9772TIP3    H129273   0.372   4.245   2.622
 9772TIP3    H229274   0.419   4.378   2.675
 9773TIP3   OH229275   2.236   4.424   3.295
 9773TIP3    H129276   2.317   4.375   3.307
 9773TIP3    H229277   2.213   4.456   3.382
 9774TIP3   OH229278   0.288   1.101   6.262
 9774TIP3    H129279   0.336   1.113   6.344
 9774TIP3    H229280   0.202   1.070   6.288
 9775TIP3   OH229281   1.183   6.789   0.694
 9775TIP3    H129282   1.242   6.736   0.640
 9775TIP3    H229283   1.183   6.745   0.779
 9776TIP3   OH229284   4.048   0.949   4.910
 9776TIP3    H129285   4.010   0.912   4.989
 9776TIP3    H229286   4.088   1.031   4.938
 9777TIP3   OH229287   5.998   7.322   5.881
 9777TIP3    H129288   5.925   7.284   5.831
 9777TIP3    H229289   5.958   7.392   5.932
 9778TIP3   OH229290   3.635   4.471   2.979
 9778TIP3    H129291   3.593   4.485   3.064
 9778TIP3    H229292   3.562   4.456   2.918
 9779TIP3   OH229293   7.387   7.352   2.428
 9779TIP3    H129294   7.465   7.358   2.483
 9779TIP3    H229295   7.339   7.277   2.462
 9780TIP3   OH229296   3.526   0.468   5.292
 9780TIP3    H129297   3.606   0.512   5.265
 9780TIP3    H229298   3.542   0.375   5.275
 9781TIP3   OH229299   4.016   2.952   1.930
 9781TIP3    H129300   3.923   2.954   1.908
 9781TIP3    H229301   4.018   2.938   2.025
 9782TIP3   OH229302   2.292   6.797   3.295
 9782TIP3    H129303   2.355   6.825   3.229
 9782TIP3    H229304   2.320   6.842   3.375
 9783TIP3   OH229305   1.541   2.729   4.456
 9783TIP3    H129306   1.595   2.765   4.386
 9783TIP3    H229307   1.466   2.690   4.411
 9784TIP3   OH229308   7.370   4.202   3.386
 9784TIP3    H129309   7.275   4.193   3.395
 9784TIP3    H229310   7.389   4.165   3.300
 9785TIP3   OH229311   7.318   4.923   1.545
 9785TIP3    H129312   7.299   4.857   1.478
 9785TIP3    H229313   7.233   4.949   1.579
 9786TIP3   OH229314   7.343   7.761   3.666
 9786TIP3    H129315   7.309   7.732   3.581
 9786TIP3    H229316   7.281   7.828   3.695
 9787TIP3   OH229317   5.418   0.229   2.853
 9787TIP3    H129318   5.355   0.240   2.924
 9787TIP3    H229319   5.431   0.135   2.846
 9788TIP3   OH229320   2.760   4.050   6.497
 9788TIP3    H129321   2.823   4.094   6.554
 9788TIP3    H229322   2.724   3.979   6.550
 9789TIP3   OH229323   5.284   0.437   5.332
 9789TIP3    H129324   5.374   0.432   5.301
 9789TIP3    H229325   5.267   0.351   5.372
 9790TIP3   OH229326   3.788   3.197   0.444
 9790TIP3    H129327   3.862   3.257   0.445
 9790TIP3    H229328   3.786   3.161   0.355
 9791TIP3   OH229329   0.678   2.352   0.849
 9791TIP3    H129330   0.772   2.359   0.867
 9791TIP3    H229331   0.644   2.295   0.918
 9792TIP3   OH229332   1.581   3.503   2.635
 9792TIP3    H129333   1.524   3.580   2.644
 9792TIP3    H229334   1.634   3.522   2.558
 9793TIP3   OH229335   6.779   3.969   2.547
 9793TIP3    H129336   6.851   4.024   2.577
 9793TIP3    H229337   6.821   3.887   2.519
 9794TIP3   OH229338   0.944   3.355   6.522
 9794TIP3    H129339   0.896   3.433   6.495
 9794TIP3    H229340   0.994   3.382   6.599
 9795TIP3   OH229341   6.449   3.515   4.534
 9795TIP3    H129342   6.447   3.515   4.439
 9795TIP3    H229343   6.537   3.484   4.557
 9796TIP3   OH229344   2.630   6.789   5.434
 9796TIP3    H129345   2.567   6.726   5.398
 9796TIP3    H229346   2.577   6.850   5.485
 9797TIP3   OH229347   7.740   3.315   0.987
 9797TIP3    H129348   7.768   3.243   0.931
 9797TIP3    H229349   7.753   3.393   0.934
 9798TIP3   OH229350   1.673   6.274   2.217
 9798TIP3    H129351   1.637   6.358   2.244
 9798TIP3    H229352   1.754   6.296   2.173
 9799TIP3   OH229353   4.157   5.127   0.046
 9799TIP3    H129354   4.133   5.038   0.019
 9799TIP3    H229355   4.093   5.150   0.113
 9800TIP3   OH229356   0.966   4.943   0.940
 9800TIP3    H129357   0.917   5.009   0.990
 9800TIP3    H229358   0.919   4.937   0.856
 9801TIP3   OH229359   4.218   6.633   0.208
 9801TIP3    H129360   4.246   6.615   0.298
 9801TIP3    H229361   4.221   6.728   0.201
 9802TIP3   OH229362   7.051   5.776   4.156
 9802TIP3    H129363   7.061   5.699   4.213
 9802TIP3    H229364   7.124   5.832   4.180
 9803TIP3   OH229365   7.310   1.807   0.053
 9803TIP3    H129366   7.373   1.828  -0.016
 9803TIP3    H229367   7.285   1.716   0.036
 9804TIP3   OH229368   2.706   0.282   1.003
 9804TIP3    H129369   2.636   0.343   0.980
 9804TIP3    H229370   2.768   0.334   1.054
 9805TIP3   OH229371   5.287   2.392   2.983
 9805TIP3    H129372   5.269   2.298   2.982
 9805TIP3    H229373   5.356   2.402   3.048
 9806TIP3   OH229374   2.662   2.857   4.777
 9806TIP3    H129375   2.676   2.819   4.690
 9806TIP3    H229376   2.661   2.952   4.761
 9807TIP3   OH229377   1.447   5.948   3.035
 9807TIP3    H129378   1.413   6.021   3.086
 9807TIP3    H229379   1.404   5.956   2.950
 9808TIP3   OH229380   6.203   4.838   4.677
 9808TIP3    H129381   6.159   4.756   4.698
 9808TIP3    H229382   6.137   4.890   4.632
 9809TIP3   OH229383   7.921   0.598   1.538
 9809TIP3    H129384   7.868   0.636   1.469
 9809TIP3    H229385   7.948   0.513   1.503
 9810TIP3   OH229386   5.977   1.834   5.668
 9810TIP3    H129387   5.983   1.929   5.675
 9810TIP3    H229388   6.067   1.804   5.655
 9811TIP3   OH229389   3.655   2.598   2.110
 9811TIP3    H129390   3.727   2.542   2.081
 9811TIP3    H229391   3.595   2.538   2.154
 9812TIP3   OH229392   1.207   7.026   0.424
 9812TIP3    H129393   1.270   6.986   0.364
 9812TIP3    H229394   1.226   7.119   0.420
 9813TIP3   OH229395   1.795   0.541   6.447
 9813TIP3    H129396   1.727   0.587   6.496
 9813TIP3    H229397   1.876   0.587   6.471
 9814TIP3   OH229398   0.966   1.788   1.206
 9814TIP3    H129399   0.896   1.737   1.165
 9814TIP3    H229400   0.926   1.873   1.226
 9815TIP3   OH229401   7.675   4.204   3.784
 9815TIP3    H129402   7.726   4.253   3.720
 9815TIP3    H229403   7.641   4.270   3.844
 9816TIP3   OH229404   3.070   6.617   1.143
 9816TIP3    H129405   3.113   6.644   1.062
 9816TIP3    H229406   3.133   6.557   1.185
 9817TIP3   OH229407   6.123   3.239   6.010
 9817TIP3    H129408   6.032   3.266   6.021
 9817TIP3    H229409   6.118   3.145   5.989
 9818TIP3   OH229410   4.675   6.091   1.043
 9818TIP3    H129411   4.609   6.094   1.112
 9818TIP3    H229412   4.709   6.001   1.047
 9819TIP3   OH229413   3.402   3.587   5.600
 9819TIP3    H129414   3.410   3.516   5.663
 9819TIP3    H229415   3.317   3.627   5.620
 9820TIP3   OH229416   5.679   7.644   1.642
 9820TIP3    H129417   5.769   7.626   1.614
 9820TIP3    H229418   5.664   7.735   1.617
 9821TIP3   OH229419   0.907   0.413   6.611
 9821TIP3    H129420   0.931   0.328   6.647
 9821TIP3    H229421   0.988   0.465   6.616
 9822TIP3   OH229422   2.813   2.028   1.372
 9822TIP3    H129423   2.773   2.037   1.459
 9822TIP3    H229424   2.906   2.011   1.391
 9823TIP3   OH229425   3.746   2.688   2.453
 9823TIP3    H129426   3.672   2.735   2.416
 9823TIP3    H229427   3.714   2.655   2.537
 9824TIP3   OH229428   3.346   6.937   2.974
 9824TIP3    H129429   3.395   6.946   2.892
 9824TIP3    H229430   3.316   7.026   2.993
 9825TIP3   OH229431   3.373   2.548   4.136
 9825TIP3    H129432   3.337   2.637   4.146
 9825TIP3    H229433   3.296   2.491   4.136
 9826TIP3   OH229434   1.834   4.774   1.325
 9826TIP3    H129435   1.915   4.727   1.344
 9826TIP3    H229436   1.855   4.830   1.250
 9827TIP3   OH229437   1.991   2.318   4.630
 9827TIP3    H129438   1.948   2.403   4.624
 9827TIP3    H229439   1.927   2.262   4.675
 9828TIP3   OH229440   0.083   7.225   4.696
 9828TIP3    H129441   0.057   7.159   4.761
 9828TIP3    H229442   0.051   7.191   4.613
 9829TIP3   OH229443   3.693   5.944   1.532
 9829TIP3    H129444   3.653   5.984   1.454
 9829TIP3    H229445   3.630   5.961   1.602
 9830TIP3   OH229446   0.666   0.767   1.893
 9830TIP3    H129447   0.625   0.690   1.932
 9830TIP3    H229448   0.664   0.751   1.799
 9831TIP3   OH229449   3.729   3.493   5.900
 9831TIP3    H129450   3.651   3.438   5.901
 9831TIP3    H229451   3.802   3.432   5.912
 9832TIP3   OH229452   4.576   2.667   4.749
 9832TIP3    H129453   4.574   2.606   4.676
 9832TIP3    H229454   4.490   2.711   4.747
 9833TIP3   OH229455   5.457   0.769   3.871
 9833TIP3    H129456   5.553   0.770   3.877
 9833TIP3    H229457   5.429   0.844   3.925
 9834TIP3   OH229458   3.383   6.606   0.675
 9834TIP3    H129459   3.356   6.611   0.583
 9834TIP3    H229460   3.439   6.528   0.679
 9835TIP3   OH229461   0.955   4.983   6.012
 9835TIP3    H129462   1.019   4.928   5.968
 9835TIP3    H229463   0.880   4.987   5.952
 9836TIP3   OH229464   0.160   3.857   1.380
 9836TIP3    H129465   0.193   3.866   1.291
 9836TIP3    H229466   0.160   3.763   1.397
 9837TIP3   OH229467   7.628   5.979   1.376
 9837TIP3    H129468   7.584   6.042   1.317
 9837TIP3    H229469   7.556   5.936   1.422
 9838TIP3   OH229470   6.738   3.828   3.125
 9838TIP3    H129471   6.805   3.878   3.172
 9838TIP3    H229472   6.665   3.822   3.187
 9839TIP3   OH229473   1.368   7.752   4.210
 9839TIP3    H129474   1.295   7.786   4.261
 9839TIP3    H229475   1.431   7.824   4.206
 9840TIP3   OH229476   6.023   0.868   0.149
 9840TIP3    H129477   6.103   0.839   0.104
 9840TIP3    H229478   6.042   0.958   0.176
 9841TIP3   OH229479   3.266   7.633   4.987
 9841TIP3    H129480   3.362   7.633   4.979
 9841TIP3    H229481   3.247   7.557   5.042
 9842TIP3   OH229482   4.525   3.498   0.733
 9842TIP3    H129483   4.555   3.411   0.760
 9842TIP3    H229484   4.551   3.556   0.805
 9843TIP3   OH229485   6.622   1.494   4.557
 9843TIP3    H129486   6.544   1.481   4.502
 9843TIP3    H229487   6.632   1.411   4.604
 9844TIP3   OH229488   3.010   5.487   1.638
 9844TIP3    H129489   3.065   5.536   1.577
 9844TIP3    H229490   2.933   5.462   1.587
 9845TIP3   OH229491   2.643   6.648   3.407
 9845TIP3    H129492   2.706   6.701   3.456
 9845TIP3    H229493   2.667   6.661   3.315
 9846TIP3   OH229494   0.263   3.416   6.244
 9846TIP3    H129495   0.312   3.498   6.241
 9846TIP3    H229496   0.314   3.356   6.190
 9847TIP3   OH229497   2.303   2.046   5.880
 9847TIP3    H129498   2.283   2.038   5.786
 9847TIP3    H229499   2.339   1.961   5.904
 9848TIP3   OH229500   2.912   1.290   6.481
 9848TIP3    H129501   2.837   1.262   6.534
 9848TIP3    H229502   2.976   1.219   6.493
 9849TIP3   OH229503   2.774   2.149   4.250
 9849TIP3    H129504   2.741   2.064   4.219
 9849TIP3    H229505   2.818   2.129   4.333
 9850TIP3   OH229506   6.720   3.484   1.693
 9850TIP3    H129507   6.671   3.421   1.746
 9850TIP3    H229508   6.810   3.475   1.723
 9851TIP3   OH229509   0.034   1.624   5.608
 9851TIP3    H129510   0.113   1.620   5.662
 9851TIP3    H229511   0.018   1.717   5.595
 9852TIP3   OH229512   5.560   6.359   3.089
 9852TIP3    H129513   5.492   6.319   3.143
 9852TIP3    H229514   5.528   6.448   3.073
 9853TIP3   OH229515   2.971   2.842   3.672
 9853TIP3    H129516   2.977   2.776   3.742
 9853TIP3    H229517   2.931   2.796   3.599
 9854TIP3   OH229518   2.081   6.038   4.648
 9854TIP3    H129519   2.151   6.047   4.583
 9854TIP3    H229520   2.125   6.003   4.725
 9855TIP3   OH229521   1.654   4.451   4.327
 9855TIP3    H129522   1.621   4.361   4.331
 9855TIP3    H229523   1.745   4.442   4.301
 9856TIP3   OH229524   4.409   6.138   5.224
 9856TIP3    H129525   4.454   6.062   5.188
 9856TIP3    H229526   4.461   6.162   5.301
 9857TIP3   OH229527   5.066   0.513   2.265
 9857TIP3    H129528   5.147   0.553   2.232
 9857TIP3    H229529   5.033   0.575   2.329
 9858TIP3   OH229530   3.963   0.859   2.404
 9858TIP3    H129531   3.909   0.788   2.439
 9858TIP3    H229532   4.051   0.840   2.435
 9859TIP3   OH229533   6.003   5.393   5.773
 9859TIP3    H129534   5.959   5.438   5.700
 9859TIP3    H229535   6.096   5.410   5.759
 9860TIP3   OH229536   7.054   2.189   0.147
 9860TIP3    H129537   7.036   2.132   0.072
 9860TIP3    H229538   6.982   2.251   0.148
 9861TIP3   OH229539   3.351   4.295   5.620
 9861TIP3    H129540   3.366   4.378   5.665
 9861TIP3    H229541   3.262   4.302   5.585
 9862TIP3   OH229542   4.797   5.247   0.722
 9862TIP3    H129543   4.766   5.183   0.786
 9862TIP3    H229544   4.743   5.324   0.737
 9863TIP3   OH229545   8.042   7.546   3.760
 9863TIP3    H129546   8.099   7.501   3.698
 9863TIP3    H229547   7.970   7.578   3.707
 9864TIP3   OH229548   3.057   0.957   0.346
 9864TIP3    H129549   2.989   0.905   0.304
 9864TIP3    H229550   3.011   1.033   0.381
 9865TIP3   OH229551   6.954   3.405   3.631
 9865TIP3    H129552   6.860   3.398   3.643
 9865TIP3    H229553   6.976   3.331   3.574
 9866TIP3   OH229554   3.096   1.941   3.214
 9866TIP3    H129555   3.177   1.893   3.232
 9866TIP3    H229556   3.032   1.904   3.274
 9867TIP3   OH229557   5.808   5.819   4.082
 9867TIP3    H129558   5.799   5.787   3.993
 9867TIP3    H229559   5.853   5.903   4.073
 9868TIP3   OH229560   6.578   3.063   2.840
 9868TIP3    H129561   6.670   3.048   2.816
 9868TIP3    H229562   6.573   3.157   2.858
 9869TIP3   OH229563   7.314   1.265   0.297
 9869TIP3    H129564   7.228   1.281   0.335
 9869TIP3    H229565   7.372   1.254   0.372
 9870TIP3   OH229566   3.227   6.882   5.270
 9870TIP3    H129567   3.309   6.835   5.276
 9870TIP3    H229568   3.240   6.943   5.197
 9871TIP3   OH229569   8.004   6.725   4.225
 9871TIP3    H129570   7.955   6.789   4.275
 9871TIP3    H229571   8.076   6.700   4.283
 9872TIP3   OH229572   5.111   6.707   3.331
 9872TIP3    H129573   5.144   6.785   3.286
 9872TIP3    H229574   5.024   6.694   3.294
 9873TIP3   OH229575   3.459   7.101   5.340
 9873TIP3    H129576   3.528   7.035   5.334
 9873TIP3    H229577   3.431   7.115   5.250
 9874TIP3   OH229578   3.387   4.079   3.947
 9874TIP3    H129579   3.402   4.134   4.024
 9874TIP3    H229580   3.347   4.138   3.883
 9875TIP3   OH229581   2.747   4.987   0.021
 9875TIP3    H129582   2.769   4.939   0.101
 9875TIP3    H229583   2.699   4.923  -0.032
 9876TIP3   OH229584   6.890   4.077   2.960
 9876TIP3    H129585   6.951   4.015   2.920
 9876TIP3    H229586   6.891   4.055   3.053
 9877TIP3   OH229587   4.308   5.512   2.686
 9877TIP3    H129588   4.397   5.514   2.653
 9877TIP3    H229589   4.259   5.464   2.619
 9878TIP3   OH229590   1.120   7.642   5.273
 9878TIP3    H129591   1.056   7.707   5.248
 9878TIP3    H229592   1.155   7.610   5.190
 9879TIP3   OH229593   2.552   4.947   6.216
 9879TIP3    H129594   2.608   5.022   6.236
 9879TIP3    H229595   2.486   4.947   6.285
 9880TIP3   OH229596   0.444   4.758   0.924
 9880TIP3    H129597   0.371   4.819   0.921
 9880TIP3    H229598   0.482   4.761   0.836
 9881TIP3   OH229599   3.898   4.186   6.081
 9881TIP3    H129600   3.948   4.147   6.009
 9881TIP3    H229601   3.915   4.128   6.156
 9882TIP3   OH229602   1.417   4.501   5.617
 9882TIP3    H129603   1.392   4.413   5.646
 9882TIP3    H229604   1.512   4.495   5.603
 9883TIP3   OH229605   0.728   1.449   2.291
 9883TIP3    H129606   0.819   1.421   2.281
 9883TIP3    H229607   0.728   1.540   2.261
 9884TIP3   OH229608   6.027   1.868   1.146
 9884TIP3    H129609   6.000   1.930   1.078
 9884TIP3    H229610   5.990   1.784   1.117
 9885TIP3   OH229611   7.039   1.324   4.336
 9885TIP3    H129612   7.077   1.254   4.389
 9885TIP3    H229613   7.008   1.388   4.400
 9886TIP3   OH229614   3.204   0.221   3.292
 9886TIP3    H129615   3.134   0.221   3.227
 9886TIP3    H229616   3.280   0.188   3.245
 9887TIP3   OH229617   4.954   1.638   3.881
 9887TIP3    H129618   4.936   1.704   3.814
 9887TIP3    H229619   5.012   1.682   3.942
 9888TIP3   OH229620   0.652   7.387   5.676
 9888TIP3    H129621   0.730   7.335   5.654
 9888TIP3    H229622   0.668   7.472   5.635
 9889TIP3   OH229623   2.329   0.778   1.261
 9889TIP3    H129624   2.287   0.781   1.347
 9889TIP3    H229625   2.408   0.725   1.275
 9890TIP3   OH229626   2.699   4.453   4.336
 9890TIP3    H129627   2.780   4.418   4.373
 9890TIP3    H229628   2.653   4.376   4.302
 9891TIP3   OH229629   2.694   3.243   0.847
 9891TIP3    H129630   2.625   3.257   0.911
 9891TIP3    H229631   2.746   3.171   0.882
 9892TIP3   OH229632   7.748   2.274   3.132
 9892TIP3    H129633   7.812   2.344   3.132
 9892TIP3    H229634   7.708   2.279   3.219
 9893TIP3   OH229635   5.648   1.772   4.173
 9893TIP3    H129636   5.590   1.742   4.242
 9893TIP3    H229637   5.596   1.766   4.093
 9894TIP3   OH229638   6.047   6.736   0.994
 9894TIP3    H129639   6.021   6.758   0.905
 9894TIP3    H229640   5.974   6.685   1.028
 9895TIP3   OH229641   6.454   1.181   6.510
 9895TIP3    H129642   6.459   1.172   6.415
 9895TIP3    H229643   6.419   1.097   6.540
 9896TIP3   OH229644   6.923   3.949   3.773
 9896TIP3    H129645   6.828   3.935   3.762
 9896TIP3    H229646   6.929   4.030   3.823
 9897TIP3   OH229647   0.876   1.141   2.513
 9897TIP3    H129648   0.876   1.103   2.425
 9897TIP3    H229649   0.901   1.232   2.500
 9898TIP3   OH229650   6.500   6.941   5.812
 9898TIP3    H129651   6.543   6.988   5.883
 9898TIP3    H229652   6.495   6.850   5.843
 9899TIP3   OH229653   1.795   0.122   0.814
 9899TIP3    H129654   1.781   0.217   0.812
 9899TIP3    H229655   1.708   0.085   0.824
 9900TIP3   OH229656   5.338   1.234   4.969
 9900TIP3    H129657   5.363   1.186   5.048
 9900TIP3    H229658   5.309   1.319   5.000
 9901TIP3   OH229659   3.177   4.944   2.723
 9901TIP3    H129660   3.206   5.029   2.690
 9901TIP3    H229661   3.156   4.960   2.815
 9902TIP3   OH229662   7.710   0.904   2.985
 9902TIP3    H129663   7.758   0.888   3.067
 9902TIP3    H229664   7.622   0.871   3.003
 9903TIP3   OH229665   6.832   5.381   5.151
 9903TIP3    H129666   6.867   5.292   5.143
 9903TIP3    H229667   6.775   5.390   5.075
 9904TIP3   OH229668   4.798   5.117   1.509
 9904TIP3    H129669   4.777   5.054   1.578
 9904TIP3    H229670   4.869   5.171   1.547
 9905TIP3   OH229671   6.208   7.614   3.600
 9905TIP3    H129672   6.163   7.677   3.544
 9905TIP3    H229673   6.182   7.528   3.566
 9906TIP3   OH229674   3.841   7.517   0.394
 9906TIP3    H129675   3.826   7.424   0.414
 9906TIP3    H229676   3.797   7.564   0.465
 9907TIP3   OH229677   2.890   4.548   0.164
 9907TIP3    H129678   2.935   4.632   0.174
 9907TIP3    H229679   2.945   4.498   0.105
 9908TIP3   OH229680   5.821   2.782   6.477
 9908TIP3    H129681   5.906   2.743   6.458
 9908TIP3    H229682   5.762   2.744   6.412
 9909TIP3   OH229683   7.027   4.887   5.286
 9909TIP3    H129684   7.111   4.842   5.275
 9909TIP3    H229685   6.963   4.827   5.248
 9910TIP3   OH229686   8.070   4.377   0.317
 9910TIP3    H129687   8.017   4.356   0.240
 9910TIP3    H229688   8.081   4.472   0.312
 9911TIP3   OH229689   1.932   7.349   6.334
 9911TIP3    H129690   1.992   7.301   6.277
 9911TIP3    H229691   1.877   7.399   6.274
 9912TIP3   OH229692   0.296   4.358   4.494
 9912TIP3    H129693   0.267   4.425   4.431
 9912TIP3    H229694   0.258   4.386   4.577
 9913TIP3   OH229695   6.432   2.983   4.489
 9913TIP3    H129696   6.497   3.046   4.457
 9913TIP3    H229697   6.485   2.911   4.525
 9914TIP3   OH229698   2.376   3.507   3.918
 9914TIP3    H129699   2.441   3.559   3.965
 9914TIP3    H229700   2.426   3.462   3.850
 9915TIP3   OH229701   3.327   3.464   5.832
 9915TIP3    H129702   3.311   3.370   5.823
 9915TIP3    H229703   3.300   3.484   5.922
 9916TIP3   OH229704   1.093   7.089   3.972
 9916TIP3    H129705   1.028   7.129   4.031
 9916TIP3    H229706   1.128   7.161   3.921
 9917TIP3   OH229707   3.485   1.779   6.603
 9917TIP3    H129708   3.422   1.737   6.544
 9917TIP3    H229709   3.437   1.792   6.684
 9918TIP3   OH229710   6.186   3.644   0.735
 9918TIP3    H129711   6.211   3.581   0.668
 9918TIP3    H229712   6.152   3.719   0.686
 9919TIP3   OH229713   6.724   4.391   0.777
 9919TIP3    H129714   6.715   4.302   0.743
 9919TIP3    H229715   6.744   4.380   0.869
 9920TIP3   OH229716   1.074   6.364   0.106
 9920TIP3    H129717   1.061   6.415   0.186
 9920TIP3    H229718   0.998   6.306   0.102
 9921TIP3   OH229719   0.432   2.052   2.419
 9921TIP3    H129720   0.481   2.082   2.343
 9921TIP3    H229721   0.469   1.966   2.440
 9922TIP3   OH229722   7.496   1.759   0.447
 9922TIP3    H129723   7.491   1.784   0.539
 9922TIP3    H229724   7.540   1.674   0.447
 9923TIP3   OH229725   3.373   5.670   4.556
 9923TIP3    H129726   3.467   5.684   4.568
 9923TIP3    H229727   3.350   5.722   4.479
 9924TIP3   OH229728   3.082   4.302   1.264
 9924TIP3    H129729   3.071   4.234   1.198
 9924TIP3    H229730   3.162   4.349   1.237
 9925TIP3   OH229731   7.280   3.215   5.998
 9925TIP3    H129732   7.326   3.295   5.976
 9925TIP3    H229733   7.347   3.146   5.993
 9926TIP3   OH229734   2.940   2.959   3.102
 9926TIP3    H129735   3.024   2.985   3.065
 9926TIP3    H229736   2.883   2.948   3.026
 9927TIP3   OH229737   3.132   2.596   5.621
 9927TIP3    H129738   3.099   2.580   5.710
 9927TIP3    H229739   3.222   2.627   5.635
 9928TIP3   OH229740   6.977   0.606   2.612
 9928TIP3    H129741   6.971   0.674   2.545
 9928TIP3    H229742   6.901   0.550   2.596
 9929TIP3   OH229743   7.543   3.463   1.964
 9929TIP3    H129744   7.589   3.544   1.946
 9929TIP3    H229745   7.525   3.465   2.058
 9930TIP3   OH229746   0.281   5.208   1.080
 9930TIP3    H129747   0.200   5.222   1.130
 9930TIP3    H229748   0.310   5.297   1.058
 9931TIP3   OH229749   3.006   4.843   1.925
 9931TIP3    H129750   3.047   4.903   1.988
 9931TIP3    H229751   3.078   4.813   1.870
 9932TIP3   OH229752   0.632   6.259   3.047
 9932TIP3    H129753   0.564   6.201   3.082
 9932TIP3    H229754   0.584   6.335   3.013
 9933TIP3   OH229755   1.863   0.674   4.926
 9933TIP3    H129756   1.854   0.621   4.847
 9933TIP3    H229757   1.782   0.657   4.976
 9934TIP3   OH229758   5.775   3.844   1.869
 9934TIP3    H129759   5.814   3.838   1.782
 9934TIP3    H229760   5.681   3.828   1.855
 9935TIP3   OH229761   1.995   2.056   2.722
 9935TIP3    H129762   2.000   2.149   2.701
 9935TIP3    H229763   2.065   2.016   2.669
 9936TIP3   OH229764   1.651   5.057   5.804
 9936TIP3    H129765   1.744   5.040   5.822
 9936TIP3    H229766   1.640   5.151   5.819
 9937TIP3   OH229767   4.291   2.017   0.812
 9937TIP3    H129768   4.237   1.951   0.768
 9937TIP3    H229769   4.276   2.097   0.763
 9938TIP3   OH229770   0.601   5.977   5.195
 9938TIP3    H129771   0.668   5.912   5.215
 9938TIP3    H229772   0.618   6.049   5.256
 9939TIP3   OH229773   0.062   4.975   0.112
 9939TIP3    H129774  -0.005   4.990   0.178
 9939TIP3    H229775   0.098   5.062   0.093
 9940TIP3   OH229776   1.711   2.698   1.583
 9940TIP3    H129777   1.746   2.732   1.500
 9940TIP3    H229778   1.738   2.607   1.585
 9941TIP3   OH229779   0.061   0.086   1.158
 9941TIP3    H129780   0.086  -0.006   1.163
 9941TIP3    H229781   0.121   0.131   1.218
 9942TIP3   OH229782   3.606   0.958   5.462
 9942TIP3    H129783   3.671   0.919   5.403
 9942TIP3    H229784   3.561   0.883   5.500
 9943TIP3   OH229785   5.596   0.435   4.402
 9943TIP3    H129786   5.528   0.368   4.395
 9943TIP3    H229787   5.591   0.483   4.319
 9944TIP3   OH229788   3.340   4.439   2.329
 9944TIP3    H129789   3.380   4.526   2.333
 9944TIP3    H229790   3.270   4.448   2.264
 9945TIP3   OH229791   2.259   4.186   2.949
 9945TIP3    H129792   2.216   4.164   3.031
 9945TIP3    H229793   2.210   4.261   2.915
 9946TIP3   OH229794   1.802   4.100   3.032
 9946TIP3    H129795   1.716   4.125   3.068
 9946TIP3    H229796   1.805   4.142   2.946
 9947TIP3   OH229797   8.164   6.570   2.769
 9947TIP3    H129798   8.199   6.524   2.846
 9947TIP3    H229799   8.174   6.662   2.790
 9948TIP3   OH229800   0.295   4.654   4.020
 9948TIP3    H129801   0.338   4.739   4.014
 9948TIP3    H229802   0.201   4.674   4.027
 9949TIP3   OH229803   6.045   4.599   0.206
 9949TIP3    H129804   6.081   4.511   0.199
 9949TIP3    H229805   5.951   4.586   0.218
 9950TIP3   OH229806   6.856   6.359   3.091
 9950TIP3    H129807   6.813   6.444   3.097
 9950TIP3    H229808   6.903   6.363   3.008
 9951TIP3   OH229809   0.406   5.595   6.013
 9951TIP3    H129810   0.333   5.621   5.957
 9951TIP3    H229811   0.366   5.539   6.080
 9952TIP3   OH229812   2.797   7.639   5.740
 9952TIP3    H129813   2.800   7.543   5.740
 9952TIP3    H229814   2.737   7.662   5.669
 9953TIP3   OH229815   2.267   1.224   3.401
 9953TIP3    H129816   2.296   1.135   3.422
 9953TIP3    H229817   2.293   1.277   3.476
 9954TIP3   OH229818   5.992   6.501   3.172
 9954TIP3    H129819   5.921   6.518   3.233
 9954TIP3    H229820   6.067   6.481   3.227
 9955TIP3   OH229821   0.280   4.789   1.903
 9955TIP3    H129822   0.267   4.849   1.830
 9955TIP3    H229823   0.372   4.797   1.925
 9956TIP3   OH229824   1.757   3.253   5.021
 9956TIP3    H129825   1.814   3.188   5.062
 9956TIP3    H229826   1.686   3.203   4.982
 9957TIP3   OH229827   5.174   3.725   2.291
 9957TIP3    H129828   5.121   3.751   2.216
 9957TIP3    H229829   5.254   3.777   2.283
 9958TIP3   OH229830   4.022   4.480   1.314
 9958TIP3    H129831   4.026   4.551   1.379
 9958TIP3    H229832   4.107   4.484   1.270
 9959TIP3   OH229833   6.709   3.603   2.151
 9959TIP3    H129834   6.695   3.675   2.090
 9959TIP3    H229835   6.632   3.603   2.208
 9960TIP3   OH229836   1.032   6.386   1.314
 9960TIP3    H129837   0.999   6.412   1.400
 9960TIP3    H229838   0.955   6.353   1.268
 9961TIP3   OH229839   7.370   7.584   5.127
 9961TIP3    H129840   7.450   7.561   5.080
 9961TIP3    H229841   7.341   7.666   5.087
 9962TIP3   OH229842   2.659   5.591   3.722
 9962TIP3    H129843   2.740   5.638   3.739
 9962TIP3    H229844   2.651   5.530   3.795
 9963TIP3   OH229845   0.484   1.913   3.737
 9963TIP3    H129846   0.466   2.000   3.703
 9963TIP3    H229847   0.415   1.857   3.700
 9964TIP3   OH229848   1.121   2.992   1.842
 9964TIP3    H129849   1.139   3.055   1.772
 9964TIP3    H229850   1.120   3.045   1.922
 9965TIP3   OH229851   0.378   1.319   2.284
 9965TIP3    H129852   0.337   1.283   2.205
 9965TIP3    H229853   0.460   1.270   2.292
 9966TIP3   OH229854   7.494   4.957   1.139
 9966TIP3    H129855   7.487   4.873   1.092
 9966TIP3    H229856   7.541   4.935   1.220
 9967TIP3   OH229857   2.234   7.123   5.564
 9967TIP3    H129858   2.249   7.154   5.654
 9967TIP3    H229859   2.146   7.154   5.543
 9968TIP3   OH229860   3.054   1.278   6.741
 9968TIP3    H129861   2.991   1.266   6.812
 9968TIP3    H229862   3.117   1.207   6.753
 9969TIP3   OH229863   4.165   0.519   1.202
 9969TIP3    H129864   4.200   0.435   1.172
 9969TIP3    H229865   4.210   0.535   1.285
 9970TIP3   OH229866   3.050   3.637   6.134
 9970TIP3    H129867   3.145   3.629   6.119
 9970TIP3    H229868   3.042   3.700   6.205
 9971TIP3   OH229869   7.201   5.083   4.905
 9971TIP3    H129870   7.278   5.026   4.914
 9971TIP3    H229871   7.139   5.031   4.852
 9972TIP3   OH229872   1.619   7.691   0.212
 9972TIP3    H129873   1.607   7.598   0.228
 9972TIP3    H229874   1.536   7.720   0.174
 9973TIP3   OH229875   7.769   0.628   6.386
 9973TIP3    H129876   7.725   0.564   6.443
 9973TIP3    H229877   7.814   0.687   6.445
 9974TIP3   OH229878   5.108   3.337   0.447
 9974TIP3    H129879   5.128   3.254   0.491
 9974TIP3    H229880   5.018   3.356   0.472
 9975TIP3   OH229881   2.260   1.139   6.712
 9975TIP3    H129882   2.216   1.065   6.753
 9975TIP3    H229883   2.196   1.176   6.652
 9976TIP3   OH229884   5.722   1.446   2.497
 9976TIP3    H129885   5.727   1.353   2.476
 9976TIP3    H229886   5.725   1.490   2.412
 9977TIP3   OH229887   3.558   4.821   4.103
 9977TIP3    H129888   3.525   4.766   4.174
 9977TIP3    H229889   3.653   4.825   4.117
 9978TIP3   OH229890   1.593   6.234   0.352
 9978TIP3    H129891   1.517   6.203   0.401
 9978TIP3    H229892   1.647   6.279   0.417
 9979TIP3   OH229893   1.535   3.193   3.078
 9979TIP3    H129894   1.529   3.223   3.169
 9979TIP3    H229895   1.557   3.100   3.085
 9980TIP3   OH229896   2.193   4.631   6.493
 9980TIP3    H129897   2.158   4.563   6.435
 9980TIP3    H229898   2.186   4.712   6.442
 9981TIP3   OH229899   4.217   5.293   5.819
 9981TIP3    H129900   4.237   5.339   5.738
 9981TIP3    H229901   4.126   5.265   5.809
 9982TIP3   OH229902   7.993   5.049   1.493
 9982TIP3    H129903   7.977   5.042   1.398
 9982TIP3    H229904   8.000   4.958   1.522
 9983TIP3   OH229905   1.858   0.723   3.901
 9983TIP3    H129906   1.852   0.818   3.892
 9983TIP3    H229907   1.860   0.708   3.995
 9984TIP3   OH229908   5.072   3.457   2.983
 9984TIP3    H129909   5.041   3.430   2.896
 9984TIP3    H229910   4.995   3.496   3.024
 9985TIP3   OH229911   1.419   7.798   0.755
 9985TIP3    H129912   1.454   7.715   0.724
 9985TIP3    H229913   1.334   7.806   0.711
 9986TIP3   OH229914   6.301   6.527   1.501
 9986TIP3    H129915   6.270   6.618   1.507
 9986TIP3    H229916   6.221   6.475   1.494
 9987TIP3   OH229917   6.868   4.262   4.691
 9987TIP3    H129918   6.852   4.178   4.647
 9987TIP3    H229919   6.788   4.278   4.741
 9988TIP3   OH229920   6.190   2.279   3.087
 9988TIP3    H129921   6.217   2.308   3.000
 9988TIP3    H229922   6.186   2.184   3.081
 9989TIP3   OH229923   5.889   6.704   3.744
 9989TIP3    H129924   5.798   6.677   3.728
 9989TIP3    H229925   5.915   6.658   3.823
 9990TIP3   OH229926   0.150   5.688   0.937
 9990TIP3    H129927   0.179   5.753   1.002
 9990TIP3    H229928   0.231   5.662   0.892
 9991TIP3   OH229929   2.393   2.823   4.098
 9991TIP3    H129930   2.444   2.862   4.027
 9991TIP3    H229931   2.457   2.772   4.148
 9992TIP3   OH229932   4.261   3.212   3.431
 9992TIP3    H129933   4.174   3.226   3.393
 9992TIP3    H229934   4.257   3.123   3.467
 9993TIP3   OH229935   2.272   0.433   3.538
 9993TIP3    H129936   2.303   0.361   3.592
 9993TIP3    H229937   2.176   0.427   3.542
 9994TIP3   OH229938   1.863   1.926   3.619
 9994TIP3    H129939   1.896   1.863   3.682
 9994TIP3    H229940   1.942   1.969   3.585
 9995TIP3   OH229941   4.541   2.299   3.346
 9995TIP3    H129942   4.476   2.366   3.325
 9995TIP3    H229943   4.513   2.221   3.297
 9996TIP3   OH229944   7.267   2.792   3.626
 9996TIP3    H129945   7.219   2.709   3.629
 9996TIP3    H229946   7.267   2.823   3.716
 9997TIP3   OH229947   6.438   1.306   4.362
 9997TIP3    H129948   6.456   1.237   4.426
 9997TIP3    H229949   6.379   1.366   4.408
 9998TIP3   OH229950   2.468   6.321   2.449
 9998TIP3    H129951   2.523   6.335   2.372
 9998TIP3    H229952   2.465   6.226   2.458
 9999TIP3   OH229953   7.511   4.100   4.501
 9999TIP3    H129954   7.419   4.125   4.515
 9999TIP3    H229955   7.506   4.012   4.463
10000TIP3   OH229956   0.887   2.477   0.714
10000TIP3    H129957   0.887   2.406   0.650
10000TIP3    H229958   0.803   2.522   0.701
10001TIP3   OH229959   0.047   0.073   2.616
10001TIP3    H129960   0.094   0.077   2.533
10001TIP3    H229961   0.115   0.066   2.682
10002TIP3   OH229962   1.791   1.274   5.859
10002TIP3    H129963   1.828   1.227   5.784
10002TIP3    H229964   1.699   1.287   5.836
10003TIP3   OH229965   7.060   2.285   4.106
10003TIP3    H129966   7.112   2.365   4.096
10003TIP3    H229967   6.999   2.287   4.033
10004TIP3   OH229968   8.146   2.795   3.702
10004TIP3    H129969   8.057   2.824   3.722
10004TIP3    H229970   8.202   2.854   3.753
10005TIP3   OH229971   8.125   4.793   5.101
10005TIP3    H129972   8.158   4.777   5.012
10005TIP3    H229973   8.129   4.887   5.112
10006TIP3   OH229974   7.508   4.893   5.452
10006TIP3    H129975   7.499   4.911   5.546
10006TIP3    H229976   7.460   4.964   5.409
10007TIP3   OH229977   3.791   0.937   5.084
10007TIP3    H129978   3.725   0.868   5.075
10007TIP3    H229979   3.868   0.893   5.118
10008TIP3   OH229980   2.034   1.164   1.653
10008TIP3    H129981   2.098   1.111   1.699
10008TIP3    H229982   2.023   1.121   1.568
10009TIP3   OH229983   3.812   3.875   3.056
10009TIP3    H129984   3.822   3.794   3.107
10009TIP3    H229985   3.901   3.909   3.047
10010TIP3   OH229986   7.421   0.293   0.809
10010TIP3    H129987   7.372   0.216   0.839
10010TIP3    H229988   7.476   0.260   0.738
10011TIP3   OH229989   6.583   5.704   4.632
10011TIP3    H129990   6.575   5.660   4.547
10011TIP3    H229991   6.660   5.760   4.622
10012TIP3   OH229992   1.086   0.163   4.086
10012TIP3    H129993   1.132   0.154   4.170
10012TIP3    H229994   1.088   0.075   4.048
10013TIP3   OH229995   2.228   3.649   6.606
10013TIP3    H129996   2.319   3.660   6.635
10013TIP3    H229997   2.182   3.724   6.644
10014TIP3   OH229998   3.680   2.985   2.770
10014TIP3    H129999   3.679   2.890   2.784
10014TIP3    H230000   3.605   3.017   2.820
10015TIP3   OH230001   8.201   4.929   1.221
10015TIP3    H130002   8.218   4.893   1.134
10015TIP3    H230003   8.114   4.970   1.212
10016TIP3   OH230004   7.298   1.892   4.590
10016TIP3    H130005   7.318   1.812   4.639
10016TIP3    H230006   7.227   1.933   4.640
10017TIP3   OH230007   2.207   3.988   5.847
10017TIP3    H130008   2.210   4.048   5.772
10017TIP3    H230009   2.121   3.947   5.841
10018TIP3   OH230010   3.143   4.591   3.796
10018TIP3    H130011   3.146   4.676   3.839
10018TIP3    H230012   3.205   4.537   3.846
10019TIP3   OH230013   6.270   5.191   5.399
10019TIP3    H130014   6.309   5.202   5.485
10019TIP3    H230015   6.340   5.154   5.345
10020TIP3   OH230016   7.655   4.967   5.858
10020TIP3    H130017   7.742   4.948   5.823
10020TIP3    H230018   7.670   5.033   5.925
10021TIP3   OH230019   6.419   3.596   2.246
10021TIP3    H130020   6.376   3.648   2.179
10021TIP3    H230021   6.361   3.601   2.322
10022TIP3   OH230022   2.516   5.367   1.196
10022TIP3    H130023   2.478   5.372   1.108
10022TIP3    H230024   2.591   5.308   1.187
10023TIP3   OH230025   3.194   5.565   3.541
10023TIP3    H130026   3.112   5.605   3.512
10023TIP3    H230027   3.182   5.547   3.634
10024TIP3   OH230028   6.553   6.792   2.324
10024TIP3    H130029   6.479   6.847   2.297
10024TIP3    H230030   6.591   6.762   2.242
10025TIP3   OH230031   7.813   0.264   6.708
10025TIP3    H130032   7.768   0.341   6.743
10025TIP3    H230033   7.876   0.241   6.776
10026TIP3   OH230034   1.525   2.855   2.489
10026TIP3    H130035   1.532   2.790   2.418
10026TIP3    H230036   1.486   2.932   2.447
10027TIP3   OH230037   1.825   7.253   0.969
10027TIP3    H130038   1.883   7.208   1.030
10027TIP3    H230039   1.738   7.216   0.988
10028TIP3   OH230040   5.525   7.310   2.944
10028TIP3    H130041   5.569   7.313   3.029
10028TIP3    H230042   5.578   7.367   2.887
10029TIP3   OH230043   0.917   0.781   3.645
10029TIP3    H130044   0.960   0.740   3.570
10029TIP3    H230045   0.906   0.710   3.708
10030TIP3   OH230046   4.290   6.586   1.229
10030TIP3    H130047   4.366   6.539   1.261
10030TIP3    H230048   4.325   6.665   1.188
10031TIP3   OH230049   1.086   1.712   2.308
10031TIP3    H130050   1.002   1.675   2.334
10031TIP3    H230051   1.150   1.665   2.361
10032TIP3   OH230052   8.225   0.867   1.342
10032TIP3    H130053   8.238   0.820   1.260
10032TIP3    H230054   8.220   0.799   1.409
10033TIP3   OH230055   1.112   0.406   2.156
10033TIP3    H130056   1.019   0.385   2.161
10033TIP3    H230057   1.121   0.489   2.202
10034TIP3   OH230058   2.410   6.016   6.353
10034TIP3    H130059   2.441   6.017   6.262
10034TIP3    H230060   2.438   6.100   6.389
10035TIP3   OH230061   7.695   7.641   2.336
10035TIP3    H130062   7.717   7.617   2.426
10035TIP3    H230063   7.765   7.702   2.310
10036TIP3   OH230064  -0.010   2.427   0.059
10036TIP3    H130065   0.060   2.383   0.108
10036TIP3    H230066   0.032   2.505   0.023
10037TIP3   OH230067   2.528   4.150   2.999
10037TIP3    H130068   2.444   4.176   2.960
10037TIP3    H230069   2.581   4.230   2.994
10038TIP3   OH230070   5.418   5.121   3.434
10038TIP3    H130071   5.435   5.029   3.417
10038TIP3    H230072   5.498   5.166   3.405
10039TIP3   OH230073   5.966   1.773   2.345
10039TIP3    H130074   6.010   1.749   2.426
10039TIP3    H230075   6.015   1.729   2.277
10040TIP3   OH230076   3.471   1.960   0.328
10040TIP3    H130077   3.543   2.017   0.299
10040TIP3    H230078   3.486   1.877   0.283
10041TIP3   OH230079   6.496   2.608   6.103
10041TIP3    H130080   6.478   2.641   6.015
10041TIP3    H230081   6.569   2.547   6.092
10042TIP3   OH230082   6.774   4.730   2.486
10042TIP3    H130083   6.834   4.656   2.484
10042TIP3    H230084   6.754   4.742   2.579
10043TIP3   OH230085   7.762   7.444   0.166
10043TIP3    H130086   7.684   7.493   0.194
10043TIP3    H230087   7.827   7.462   0.234
10044TIP3   OH230088   5.519   1.355   2.238
10044TIP3    H130089   5.570   1.302   2.299
10044TIP3    H230090   5.571   1.354   2.157
10045TIP3   OH230091   4.044   0.864   5.436
10045TIP3    H130092   4.084   0.945   5.405
10045TIP3    H230093   4.002   0.827   5.358
10046TIP3   OH230094   5.374   6.680   0.718
10046TIP3    H130095   5.357   6.721   0.633
10046TIP3    H230096   5.378   6.753   0.780
10047TIP3   OH230097   1.620   4.727   5.588
10047TIP3    H130098   1.563   4.751   5.661
10047TIP3    H230099   1.577   4.764   5.511
10048TIP3   OH230100   5.591   1.275   5.326
10048TIP3    H130101   5.553   1.228   5.251
10048TIP3    H230102   5.639   1.208   5.374
10049TIP3   OH230103   1.596   5.639   4.746
10049TIP3    H130104   1.682   5.681   4.738
10049TIP3    H230105   1.610   5.549   4.717
10050TIP3   OH230106   3.822   4.000   0.949
10050TIP3    H130107   3.746   3.985   1.006
10050TIP3    H230108   3.877   3.922   0.963
10051TIP3   OH230109   2.717   0.023   1.083
10051TIP3    H130110   2.712   0.113   1.049
10051TIP3    H230111   2.761  -0.026   1.013
10052TIP3   OH230112   0.182   2.735   2.012
10052TIP3    H130113   0.087   2.732   2.029
10052TIP3    H230114   0.194   2.683   1.933
10053TIP3   OH230115   1.034   3.205   2.532
10053TIP3    H130116   0.952   3.237   2.494
10053TIP3    H230117   1.011   3.178   2.620
10054TIP3   OH230118   0.469   3.164   4.269
10054TIP3    H130119   0.538   3.172   4.204
10054TIP3    H230120   0.388   3.180   4.221
10055TIP3   OH230121   6.821   3.760   2.860
10055TIP3    H130122   6.902   3.804   2.836
10055TIP3    H230123   6.787   3.811   2.934
10056TIP3   OH230124   0.908   0.265   3.550
10056TIP3    H130125   0.870   0.184   3.517
10056TIP3    H230126   0.858   0.334   3.507
10057TIP3   OH230127   0.222   6.589   5.787
10057TIP3    H130128   0.158   6.594   5.716
10057TIP3    H230129   0.194   6.514   5.839
10058TIP3   OH230130   5.651   6.965   4.196
10058TIP3    H130131   5.711   6.985   4.124
10058TIP3    H230132   5.706   6.922   4.262
10059TIP3   OH230133   4.258   5.003   1.235
10059TIP3    H130134   4.171   4.963   1.237
10059TIP3    H230135   4.297   4.978   1.319
10060TIP3   OH230136   2.335   0.188   6.083
10060TIP3    H130137   2.374   0.177   6.169
10060TIP3    H230138   2.407   0.220   6.028
10061TIP3   OH230139   0.361   4.752   6.690
10061TIP3    H130140   0.391   4.750   6.781
10061TIP3    H230141   0.437   4.781   6.641
10062TIP3   OH230142   5.137   4.699   1.799
10062TIP3    H130143   5.171   4.633   1.738
10062TIP3    H230144   5.060   4.658   1.838
10063TIP3   OH230145   6.574   2.583   0.269
10063TIP3    H130146   6.614   2.517   0.326
10063TIP3    H230147   6.491   2.543   0.241
10064TIP3   OH230148   2.020   1.597   1.148
10064TIP3    H130149   1.989   1.538   1.216
10064TIP3    H230150   1.954   1.593   1.080
10065TIP3   OH230151   1.055   3.605   6.403
10065TIP3    H130152   1.085   3.602   6.312
10065TIP3    H230153   1.078   3.692   6.433
10066TIP3   OH230154   2.476   6.463   1.101
10066TIP3    H130155   2.548   6.486   1.160
10066TIP3    H230156   2.450   6.546   1.062
10067TIP3   OH230157   1.780   6.662   5.401
10067TIP3    H130158   1.786   6.741   5.348
10067TIP3    H230159   1.686   6.648   5.413
10068TIP3   OH230160   3.445   4.259   0.959
10068TIP3    H130161   3.515   4.239   0.897
10068TIP3    H230162   3.451   4.190   1.025
10069TIP3   OH230163   6.343   5.901   6.614
10069TIP3    H130164   6.288   5.947   6.677
10069TIP3    H230165   6.369   5.968   6.550
10070TIP3   OH230166   6.681   1.319   1.433
10070TIP3    H130167   6.706   1.405   1.400
10070TIP3    H230168   6.605   1.294   1.380
10071TIP3   OH230169   2.143   6.775   3.851
10071TIP3    H130170   2.185   6.858   3.827
10071TIP3    H230171   2.164   6.715   3.780
10072TIP3   OH230172   2.273   6.968   3.052
10072TIP3    H130173   2.223   7.039   3.012
10072TIP3    H230174   2.225   6.948   3.132
10073TIP3   OH230175   3.874   7.773   3.732
10073TIP3    H130176   3.932   7.822   3.673
10073TIP3    H230177   3.795   7.758   3.680
10074TIP3   OH230178   0.349   2.561   2.557
10074TIP3    H130179   0.321   2.634   2.501
10074TIP3    H230180   0.363   2.601   2.643
10075TIP3   OH230181   7.059   1.913   5.152
10075TIP3    H130182   7.079   1.943   5.063
10075TIP3    H230183   6.969   1.942   5.167
10076TIP3   OH230184   0.409   4.164   0.403
10076TIP3    H130185   0.413   4.233   0.337
10076TIP3    H230186   0.402   4.210   0.487
10077TIP3   OH230187   4.866   0.019   2.986
10077TIP3    H130188   4.935   0.054   2.929
10077TIP3    H230189   4.811  -0.033   2.927
10078TIP3   OH230190   6.729   6.935   2.074
10078TIP3    H130191   6.823   6.939   2.057
10078TIP3    H230192   6.707   6.842   2.066
10079TIP3   OH230193   0.481   0.616   5.192
10079TIP3    H130194   0.488   0.617   5.288
10079TIP3    H230195   0.450   0.528   5.171
10080TIP3   OH230196   3.092   5.319   5.212
10080TIP3    H130197   3.009   5.344   5.251
10080TIP3    H230198   3.105   5.228   5.238
10081TIP3   OH230199   6.171   1.973   2.418
10081TIP3    H130200   6.162   2.013   2.332
10081TIP3    H230201   6.107   1.902   2.419
10082TIP3   OH230202   2.012   5.441   5.453
10082TIP3    H130203   1.944   5.412   5.514
10082TIP3    H230204   2.020   5.369   5.390
10083TIP3   OH230205   6.261   0.538   3.950
10083TIP3    H130206   6.179   0.587   3.952
10083TIP3    H230207   6.255   0.485   3.870
10084TIP3   OH230208   7.231   1.298   5.314
10084TIP3    H130209   7.284   1.277   5.391
10084TIP3    H230210   7.157   1.236   5.319
10085TIP3   OH230211   7.987   6.223  -0.020
10085TIP3    H130212   7.993   6.318  -0.022
10085TIP3    H230213   8.077   6.193  -0.007
10086TIP3   OH230214   5.394   6.252   2.569
10086TIP3    H130215   5.384   6.170   2.521
10086TIP3    H230216   5.312   6.262   2.617
10087TIP3   OH230217   7.829   0.873   3.244
10087TIP3    H130218   7.758   0.913   3.295
10087TIP3    H230219   7.855   0.797   3.295
10088TIP3   OH230220   4.605   1.089   3.089
10088TIP3    H130221   4.534   1.150   3.073
10088TIP3    H230222   4.571   1.029   3.155
10089TIP3   OH230223   2.062   6.614   1.099
10089TIP3    H130224   2.053   6.681   1.031
10089TIP3    H230225   2.118   6.655   1.165
10090TIP3   OH230226   7.635   1.714   4.646
10090TIP3    H130227   7.590   1.645   4.694
10090TIP3    H230228   7.670   1.772   4.714
10091TIP3   OH230229   2.705   5.156   6.313
10091TIP3    H130230   2.636   5.219   6.295
10091TIP3    H230231   2.709   5.152   6.409
10092TIP3   OH230232   1.691   5.084   2.760
10092TIP3    H130233   1.692   5.079   2.665
10092TIP3    H230234   1.598   5.088   2.783
10093TIP3   OH230235   5.085   1.402   4.005
10093TIP3    H130236   5.104   1.374   4.095
10093TIP3    H230237   5.050   1.490   4.015
10094TIP3   OH230238   2.596   3.544   1.433
10094TIP3    H130239   2.554   3.628   1.415
10094TIP3    H230240   2.571   3.524   1.523
10095TIP3   OH230241   2.011   4.180   1.971
10095TIP3    H130242   1.968   4.106   1.929
10095TIP3    H230243   2.018   4.247   1.903
10096TIP3   OH230244   3.037   4.780   1.627
10096TIP3    H130245   2.973   4.713   1.652
10096TIP3    H230246   2.992   4.863   1.643
10097TIP3   OH230247   5.276   1.082   3.066
10097TIP3    H130248   5.184   1.098   3.085
10097TIP3    H230249   5.296   1.000   3.111
10098TIP3   OH230250   3.996   2.726   4.256
10098TIP3    H130251   3.935   2.661   4.221
10098TIP3    H230252   4.048   2.753   4.181
10099TIP3   OH230253   1.831   2.156   4.804
10099TIP3    H130254   1.809   2.214   4.878
10099TIP3    H230255   1.804   2.069   4.833
10100TIP3   OH230256   5.961   6.952   2.094
10100TIP3    H130257   5.971   6.923   2.185
10100TIP3    H230258   5.909   6.883   2.053
10101TIP3   OH230259   2.199   5.252   3.801
10101TIP3    H130260   2.269   5.247   3.867
10101TIP3    H230261   2.124   5.286   3.849
10102TIP3   OH230262   3.505   5.968   5.246
10102TIP3    H130263   3.457   5.987   5.166
10102TIP3    H230264   3.487   6.043   5.303
10103TIP3   OH230265   4.355   2.270   6.065
10103TIP3    H130266   4.346   2.191   6.013
10103TIP3    H230267   4.387   2.240   6.150
10104TIP3   OH230268   4.476   0.483   2.497
10104TIP3    H130269   4.552   0.538   2.480
10104TIP3    H230270   4.479   0.415   2.429
10105TIP3   OH230271   7.793   7.347   0.483
10105TIP3    H130272   7.776   7.404   0.558
10105TIP3    H230273   7.860   7.393   0.433
10106TIP3   OH230274   1.204   1.537   5.017
10106TIP3    H130275   1.138   1.575   4.959
10106TIP3    H230276   1.221   1.605   5.082
10107TIP3   OH230277   7.621   5.416   5.763
10107TIP3    H130278   7.557   5.353   5.730
10107TIP3    H230279   7.570   5.495   5.780
10108TIP3   OH230280   7.648   3.346   3.267
10108TIP3    H130281   7.674   3.383   3.182
10108TIP3    H230282   7.559   3.378   3.280
10109TIP3   OH230283   7.468   7.018   5.341
10109TIP3    H130284   7.402   7.013   5.271
10109TIP3    H230285   7.426   7.068   5.410
10110TIP3   OH230286   4.252   4.361   5.823
10110TIP3    H130287   4.227   4.361   5.915
10110TIP3    H230288   4.342   4.327   5.822
10111TIP3   OH230289   4.931   4.528   1.036
10111TIP3    H130290   5.018   4.517   1.076
10111TIP3    H230291   4.948   4.530   0.942
10112TIP3   OH230292   7.375   2.407   0.343
10112TIP3    H130293   7.433   2.356   0.400
10112TIP3    H230294   7.404   2.497   0.353
10113TIP3   OH230295   7.186   0.254   2.053
10113TIP3    H130296   7.265   0.281   2.006
10113TIP3    H230297   7.114   0.290   2.001
10114TIP3   OH230298   4.772   3.510   0.212
10114TIP3    H130299   4.754   3.576   0.146
10114TIP3    H230300   4.833   3.552   0.273
10115TIP3   OH230301   6.834   7.748   2.732
10115TIP3    H130302   6.811   7.760   2.640
10115TIP3    H230303   6.749   7.742   2.777
10116TIP3   OH230304   4.141   7.561   0.326
10116TIP3    H130305   4.058   7.586   0.366
10116TIP3    H230306   4.196   7.534   0.399
10117TIP3   OH230307   0.628   4.526   6.603
10117TIP3    H130308   0.644   4.470   6.679
10117TIP3    H230309   0.628   4.465   6.528
10118TIP3   OH230310   2.482   4.440   4.638
10118TIP3    H130311   2.482   4.351   4.603
10118TIP3    H230312   2.575   4.460   4.651
10119TIP3   OH230313   5.543   7.504   0.178
10119TIP3    H130314   5.553   7.563   0.252
10119TIP3    H230315   5.493   7.554   0.114
10120TIP3   OH230316   5.250   4.138   1.994
10120TIP3    H130317   5.194   4.064   1.971
10120TIP3    H230318   5.192   4.200   2.038
10121TIP3   OH230319   6.229   2.224   5.790
10121TIP3    H130320   6.290   2.183   5.728
10121TIP3    H230321   6.215   2.158   5.857
10122TIP3   OH230322   2.485   7.466   3.608
10122TIP3    H130323   2.570   7.489   3.571
10122TIP3    H230324   2.491   7.372   3.623
10123TIP3   OH230325   6.691   0.141   5.087
10123TIP3    H130326   6.646   0.224   5.072
10123TIP3    H230327   6.677   0.092   5.006
10124TIP3   OH230328   7.701   5.700   6.772
10124TIP3    H130329   7.767   5.751   6.726
10124TIP3    H230330   7.623   5.755   6.772
10125TIP3   OH230331   1.863   2.439   6.061
10125TIP3    H130332   1.820   2.416   5.979
10125TIP3    H230333   1.792   2.443   6.125
10126TIP3   OH230334   6.059   1.435   2.517
10126TIP3    H130335   6.148   1.403   2.530
10126TIP3    H230336   6.020   1.436   2.604
10127TIP3   OH230337   3.484   2.063   1.884
10127TIP3    H130338   3.432   2.001   1.934
10127TIP3    H230339   3.491   2.024   1.797
10128TIP3   OH230340   1.996   5.596   4.119
10128TIP3    H130341   1.951   5.572   4.038
10128TIP3    H230342   1.938   5.564   4.188
10129TIP3   OH230343   6.491   6.430   2.213
10129TIP3    H130344   6.492   6.419   2.118
10129TIP3    H230345   6.436   6.359   2.245
10130TIP3   OH230346   2.475   0.800   2.056
10130TIP3    H130347   2.551   0.796   2.114
10130TIP3    H230348   2.453   0.893   2.049
10131TIP3   OH230349   7.947   5.571   5.056
10131TIP3    H130350   8.040   5.592   5.066
10131TIP3    H230351   7.945   5.500   4.993
10132TIP3   OH230352   8.151   6.810   6.407
10132TIP3    H130353   8.168   6.799   6.313
10132TIP3    H230354   8.101   6.892   6.412
10133TIP3   OH230355   0.411   2.438   2.273
10133TIP3    H130356   0.486   2.497   2.278
10133TIP3    H230357   0.397   2.409   2.364
10134TIP3   OH230358   1.982   1.988   2.201
10134TIP3    H130359   1.967   1.954   2.113
10134TIP3    H230360   1.914   2.055   2.213
10135TIP3   OH230361   6.083   3.628   3.857
10135TIP3    H130362   6.060   3.644   3.765
10135TIP3    H230363   6.001   3.596   3.896
10136TIP3   OH230364   5.637   2.152   0.191
10136TIP3    H130365   5.697   2.151   0.265
10136TIP3    H230366   5.551   2.165   0.230
10137TIP3   OH230367   6.439   5.270   4.766
10137TIP3    H130368   6.430   5.361   4.795
10137TIP3    H230369   6.352   5.233   4.776
10138TIP3   OH230370   5.009   1.334   2.795
10138TIP3    H130371   4.938   1.359   2.855
10138TIP3    H230372   5.052   1.417   2.773
10139TIP3   OH230373   1.262   2.706   1.186
10139TIP3    H130374   1.229   2.790   1.153
10139TIP3    H230375   1.276   2.721   1.279
10140TIP3   OH230376   3.917   2.111   5.748
10140TIP3    H130377   4.008   2.082   5.746
10140TIP3    H230378   3.893   2.125   5.656
10141TIP3   OH230379   3.571   2.476   4.365
10141TIP3    H130380   3.583   2.384   4.343
10141TIP3    H230381   3.502   2.506   4.305
10142TIP3   OH230382   8.044   0.457   5.321
10142TIP3    H130383   8.071   0.527   5.261
10142TIP3    H230384   8.011   0.503   5.398
10143TIP3   OH230385   5.100   6.135   1.101
10143TIP3    H130386   5.180   6.183   1.121
10143TIP3    H230387   5.048   6.142   1.181
10144TIP3   OH230388   7.170   6.572   3.373
10144TIP3    H130389   7.202   6.483   3.387
10144TIP3    H230390   7.199   6.595   3.285
10145TIP3   OH230391   3.909   3.439   2.614
10145TIP3    H130392   3.919   3.485   2.697
10145TIP3    H230393   3.856   3.362   2.636
10146TIP3   OH230394   6.382   4.477   4.450
10146TIP3    H130395   6.393   4.502   4.359
10146TIP3    H230396   6.391   4.559   4.499
10147TIP3   OH230397   2.617   3.420   1.163
10147TIP3    H130398   2.655   3.473   1.093
10147TIP3    H230399   2.607   3.481   1.236
10148TIP3   OH230400   7.571   1.732   5.932
10148TIP3    H130401   7.524   1.669   5.987
10148TIP3    H230402   7.658   1.695   5.920
10149TIP3   OH230403   2.279   4.593   2.097
10149TIP3    H130404   2.372   4.609   2.114
10149TIP3    H230405   2.247   4.545   2.173
10150TIP3   OH230406   6.987   3.240   5.949
10150TIP3    H130407   7.070   3.196   5.966
10150TIP3    H230408   7.009   3.333   5.940
10151TIP3   OH230409   2.513   4.485   2.406
10151TIP3    H130410   2.548   4.443   2.484
10151TIP3    H230411   2.482   4.413   2.352
10152TIP3   OH230412   1.001   6.647   1.947
10152TIP3    H130413   1.001   6.552   1.954
10152TIP3    H230414   1.057   6.677   2.018
10153TIP3   OH230415   1.925   6.019   5.857
10153TIP3    H130416   1.989   5.994   5.790
10153TIP3    H230417   1.952   5.970   5.935
10154TIP3   OH230418   5.491   6.777   2.604
10154TIP3    H130419   5.464   6.694   2.644
10154TIP3    H230420   5.481   6.761   2.510
10155TIP3   OH230421   3.697   0.931   0.129
10155TIP3    H130422   3.754   0.894   0.196
10155TIP3    H230423   3.731   1.019   0.115
10156TIP3   OH230424   7.412   0.072   4.155
10156TIP3    H130425   7.326   0.111   4.141
10156TIP3    H230426   7.471   0.146   4.171
10157TIP3   OH230427   4.782   1.526   5.480
10157TIP3    H130428   4.709   1.471   5.509
10157TIP3    H230429   4.752   1.616   5.494
10158TIP3   OH230430   3.147   3.128   1.232
10158TIP3    H130431   3.195   3.072   1.172
10158TIP3    H230432   3.059   3.089   1.236
10159TIP3   OH230433   6.775   7.471   2.576
10159TIP3    H130434   6.843   7.438   2.635
10159TIP3    H230435   6.814   7.549   2.536
10160TIP3   OH230436   3.935   1.588   4.509
10160TIP3    H130437   3.959   1.513   4.563
10160TIP3    H230438   3.957   1.562   4.419
10161TIP3   OH230439   6.307   6.270   3.607
10161TIP3    H130440   6.340   6.323   3.679
10161TIP3    H230441   6.386   6.228   3.570
10162TIP3   OH230442   4.486   0.474   1.194
10162TIP3    H130443   4.429   0.404   1.162
10162TIP3    H230444   4.572   0.454   1.155
10163TIP3   OH230445   0.203   5.258   0.092
10163TIP3    H130446   0.175   5.279   0.181
10163TIP3    H230447   0.295   5.285   0.089
10164TIP3   OH230448   3.650   2.739   2.886
10164TIP3    H130449   3.649   2.685   2.807
10164TIP3    H230450   3.719   2.701   2.940
10165TIP3   OH230451   1.520   3.524   1.866
10165TIP3    H130452   1.512   3.451   1.804
10165TIP3    H230453   1.441   3.575   1.852
10166TIP3   OH230454   1.430   2.728   4.053
10166TIP3    H130455   1.368   2.799   4.069
10166TIP3    H230456   1.430   2.716   3.958
10167TIP3   OH230457   6.702   6.117   3.774
10167TIP3    H130458   6.710   6.194   3.829
10167TIP3    H230459   6.737   6.145   3.689
10168TIP3   OH230460   4.360   3.108   4.882
10168TIP3    H130461   4.376   3.165   4.807
10168TIP3    H230462   4.279   3.141   4.921
10169TIP3   OH230463   5.194   4.349   3.193
10169TIP3    H130464   5.269   4.341   3.252
10169TIP3    H230465   5.185   4.443   3.177
10170TIP3   OH230466   8.131   2.278   3.470
10170TIP3    H130467   8.123   2.224   3.549
10170TIP3    H230468   8.195   2.345   3.494
10171TIP3   OH230469   3.461   1.484   2.224
10171TIP3    H130470   3.428   1.400   2.194
10171TIP3    H230471   3.389   1.522   2.275
10172TIP3   OH230472   6.758   6.098   3.109
10172TIP3    H130473   6.751   6.193   3.120
10172TIP3    H230474   6.826   6.071   3.170
10173TIP3   OH230475   2.585   5.882   3.084
10173TIP3    H130476   2.586   5.903   2.991
10173TIP3    H230477   2.594   5.787   3.087
10174TIP3   OH230478   5.635   2.989   1.798
10174TIP3    H130479   5.715   3.012   1.752
10174TIP3    H230480   5.612   2.902   1.765
10175TIP3   OH230481   7.183   3.305   6.261
10175TIP3    H130482   7.230   3.286   6.180
10175TIP3    H230483   7.184   3.222   6.309
10176TIP3   OH230484   5.240   3.890   1.747
10176TIP3    H130485   5.154   3.857   1.775
10176TIP3    H230486   5.220   3.968   1.695
10177TIP3   OH230487   8.090   5.649   0.121
10177TIP3    H130488   8.043   5.665   0.039
10177TIP3    H230489   8.040   5.579   0.164
10178TIP3   OH230490   5.094   7.685   3.304
10178TIP3    H130491   5.132   7.758   3.353
10178TIP3    H230492   5.105   7.709   3.212
10179TIP3   OH230493   2.672   7.679   0.414
10179TIP3    H130494   2.608   7.608   0.415
10179TIP3    H230495   2.683   7.701   0.322
10180TIP3   OH230496   3.353   4.192   1.687
10180TIP3    H130497   3.366   4.268   1.744
10180TIP3    H230498   3.389   4.119   1.736
10181TIP3   OH230499   4.014   3.488   6.267
10181TIP3    H130500   3.925   3.511   6.296
10181TIP3    H230501   4.001   3.411   6.211
10182TIP3   OH230502   3.324   3.655   2.763
10182TIP3    H130503   3.299   3.703   2.684
10182TIP3    H230504   3.420   3.659   2.763
10183TIP3   OH230505   1.838   2.301   2.519
10183TIP3    H130506   1.777   2.371   2.493
10183TIP3    H230507   1.783   2.222   2.523
10184TIP3   OH230508   5.558   3.529   0.129
10184TIP3    H130509   5.653   3.534   0.117
10184TIP3    H230510   5.530   3.459   0.069
10185TIP3   OH230511   5.121   2.178   1.309
10185TIP3    H130512   5.209   2.163   1.344
10185TIP3    H230513   5.121   2.270   1.284
10186TIP3   OH230514   5.424   0.169   5.889
10186TIP3    H130515   5.433   0.229   5.814
10186TIP3    H230516   5.498   0.110   5.881
10187TIP3   OH230517   4.330   6.598   5.046
10187TIP3    H130518   4.393   6.573   4.978
10187TIP3    H230519   4.345   6.535   5.117
10188TIP3   OH230520   4.059   2.681   3.296
10188TIP3    H130521   3.995   2.752   3.306
10188TIP3    H230522   4.113   2.685   3.374
10189TIP3   OH230523   6.029   2.180   0.083
10189TIP3    H130524   6.019   2.271   0.112
10189TIP3    H230525   6.051   2.187  -0.010
10190TIP3   OH230526   1.866   7.016   2.786
10190TIP3    H130527   1.884   6.938   2.732
10190TIP3    H230528   1.924   7.083   2.750
10191TIP3   OH230529   2.682   1.939   4.068
10191TIP3    H130530   2.664   1.869   4.131
10191TIP3    H230531   2.597   1.980   4.054
10192TIP3   OH230532   4.512   7.765   3.433
10192TIP3    H130533   4.568   7.763   3.511
10192TIP3    H230534   4.535   7.847   3.389
10193TIP3   OH230535   5.433   5.314   6.391
10193TIP3    H130536   5.454   5.252   6.321
10193TIP3    H230537   5.356   5.278   6.434
10194TIP3   OH230538   1.728   4.536   4.031
10194TIP3    H130539   1.771   4.475   3.971
10194TIP3    H230540   1.650   4.565   3.985
10195TIP3   OH230541   7.994   0.941   0.287
10195TIP3    H130542   8.031   0.853   0.289
10195TIP3    H230543   8.042   0.989   0.355
10196TIP3   OH230544   7.497   4.361   3.967
10196TIP3    H130545   7.417   4.360   3.914
10196TIP3    H230546   7.468   4.386   4.055
10197TIP3   OH230547   2.444   2.101   0.001
10197TIP3    H130548   2.421   2.129   0.089
10197TIP3    H230549   2.360   2.087  -0.043
10198TIP3   OH230550   2.938   0.364   1.101
10198TIP3    H130551   2.951   0.430   1.032
10198TIP3    H230552   2.983   0.287   1.069
10199TIP3   OH230553   1.450   4.733   3.294
10199TIP3    H130554   1.407   4.773   3.370
10199TIP3    H230555   1.467   4.805   3.235
10200TIP3   OH230556   5.271   1.127   0.491
10200TIP3    H130557   5.208   1.181   0.444
10200TIP3    H230558   5.285   1.051   0.435
10201TIP3   OH230559   3.555   6.518   2.664
10201TIP3    H130560   3.561   6.424   2.647
10201TIP3    H230561   3.480   6.547   2.612
10202TIP3   OH230562   2.808   5.822   1.770
10202TIP3    H130563   2.720   5.808   1.805
10202TIP3    H230564   2.853   5.872   1.838
10203TIP3   OH230565   4.760   6.700   6.218
10203TIP3    H130566   4.822   6.683   6.288
10203TIP3    H230567   4.776   6.631   6.154
10204TIP3   OH230568   2.211   1.191   3.083
10204TIP3    H130569   2.174   1.226   3.002
10204TIP3    H230570   2.278   1.129   3.054
10205TIP3   OH230571   1.119   3.180   1.604
10205TIP3    H130572   1.065   3.247   1.646
10205TIP3    H230573   1.062   3.144   1.536
10206TIP3   OH230574   7.253   0.691   3.743
10206TIP3    H130575   7.197   0.768   3.753
10206TIP3    H230576   7.229   0.634   3.816
10207TIP3   OH230577   3.463   1.492   4.073
10207TIP3    H130578   3.443   1.537   3.991
10207TIP3    H230579   3.455   1.560   4.140
10208TIP3   OH230580   6.075   3.908   0.907
10208TIP3    H130581   6.095   3.976   0.972
10208TIP3    H230582   6.136   3.924   0.835
10209TIP3   OH230583   7.825   6.474   2.365
10209TIP3    H130584   7.787   6.559   2.346
10209TIP3    H230585   7.881   6.488   2.441
10210TIP3   OH230586   0.921   1.699   5.642
10210TIP3    H130587   0.974   1.767   5.601
10210TIP3    H230588   0.898   1.735   5.728
10211TIP3   OH230589   4.678   3.274   2.626
10211TIP3    H130590   4.709   3.267   2.535
10211TIP3    H230591   4.716   3.356   2.658
10212TIP3   OH230592   3.083   2.136   4.943
10212TIP3    H130593   3.164   2.181   4.916
10212TIP3    H230594   3.104   2.043   4.933
10213TIP3   OH230595   7.885   2.321   0.200
10213TIP3    H130596   7.921   2.409   0.192
10213TIP3    H230597   7.900   2.281   0.115
10214TIP3   OH230598   2.804   3.565   6.229
10214TIP3    H130599   2.898   3.583   6.236
10214TIP3    H230600   2.762   3.641   6.270
10215TIP3   OH230601   8.041   6.808   1.439
10215TIP3    H130602   7.972   6.791   1.503
10215TIP3    H230603   8.122   6.808   1.491
10216TIP3   OH230604   4.661   0.360   0.017
10216TIP3    H130605   4.632   0.419   0.086
10216TIP3    H230606   4.695   0.418  -0.052
10217TIP3   OH230607   7.024   3.891   6.543
10217TIP3    H130608   7.057   3.854   6.461
10217TIP3    H230609   7.101   3.933   6.582
10218TIP3   OH230610   7.872   4.833   2.693
10218TIP3    H130611   7.920   4.914   2.679
10218TIP3    H230612   7.800   4.857   2.751
10219TIP3   OH230613   2.376   7.549   0.536
10219TIP3    H130614   2.360   7.630   0.585
10219TIP3    H230615   2.405   7.486   0.602
10220TIP3   OH230616   6.561   4.899   2.641
10220TIP3    H130617   6.554   4.903   2.737
10220TIP3    H230618   6.622   4.969   2.618
10221TIP3   OH230619   7.738   5.759   3.141
10221TIP3    H130620   7.734   5.696   3.213
10221TIP3    H230621   7.827   5.794   3.144
10222TIP3   OH230622   0.628   7.669   4.377
10222TIP3    H130623   0.655   7.579   4.358
10222TIP3    H230624   0.541   7.676   4.337
10223TIP3   OH230625   2.567   1.454   2.240
10223TIP3    H130626   2.525   1.540   2.234
10223TIP3    H230627   2.548   1.424   2.329
10224TIP3   OH230628   4.620   6.425   1.039
10224TIP3    H130629   4.606   6.501   0.983
10224TIP3    H230630   4.712   6.403   1.027
10225TIP3   OH230631   8.009   2.395   1.340
10225TIP3    H130632   7.922   2.381   1.375
10225TIP3    H230633   8.052   2.451   1.404
10226TIP3   OH230634   1.521   5.365   5.378
10226TIP3    H130635   1.557   5.296   5.321
10226TIP3    H230636   1.547   5.446   5.335
10227TIP3   OH230637   5.533   0.019   4.535
10227TIP3    H130638   5.590  -0.027   4.473
10227TIP3    H230639   5.490   0.086   4.483
10228TIP3   OH230640   6.269   4.332   1.613
10228TIP3    H130641   6.193   4.276   1.604
10228TIP3    H230642   6.245   4.395   1.680
10229TIP3   OH230643   5.562   4.195   1.315
10229TIP3    H130644   5.650   4.160   1.326
10229TIP3    H230645   5.504   4.125   1.343
10230TIP3   OH230646   2.663   7.146   0.308
10230TIP3    H130647   2.661   7.228   0.259
10230TIP3    H230648   2.705   7.084   0.249
10231TIP3   OH230649   5.415   6.439   1.479
10231TIP3    H130650   5.495   6.399   1.446
10231TIP3    H230651   5.429   6.445   1.574
10232TIP3   OH230652   6.453   0.110   5.215
10232TIP3    H130653   6.473   0.150   5.299
10232TIP3    H230654   6.537   0.109   5.168
10233TIP3   OH230655   2.568   3.631   2.735
10233TIP3    H130656   2.561   3.713   2.686
10233TIP3    H230657   2.635   3.648   2.801
10234TIP3   OH230658   2.258   7.195   1.811
10234TIP3    H130659   2.292   7.155   1.891
10234TIP3    H230660   2.205   7.127   1.770
10235TIP3   OH230661   5.159   6.396   0.701
10235TIP3    H130662   5.134   6.321   0.647
10235TIP3    H230663   5.245   6.372   0.737
10236TIP3   OH230664   6.990   0.128   4.558
10236TIP3    H130665   7.013   0.052   4.611
10236TIP3    H230666   7.064   0.139   4.498
10237TIP3   OH230667   6.866   4.580   5.845
10237TIP3    H130668   6.771   4.567   5.847
10237TIP3    H230669   6.879   4.665   5.888
10238TIP3   OH230670   0.458   0.815   2.890
10238TIP3    H130671   0.546   0.787   2.914
10238TIP3    H230672   0.462   0.911   2.892
10239TIP3   OH230673   7.800   0.964   0.631
10239TIP3    H130674   7.738   0.892   0.618
10239TIP3    H230675   7.745   1.041   0.646
10240TIP3   OH230676   3.098   2.223   1.290
10240TIP3    H130677   3.121   2.131   1.278
10240TIP3    H230678   3.176   2.262   1.328
10241TIP3   OH230679   7.947   1.967   6.185
10241TIP3    H130680   7.899   1.890   6.215
10241TIP3    H230681   8.039   1.948   6.206
10242TIP3   OH230682   4.491   6.810   1.440
10242TIP3    H130683   4.499   6.902   1.416
10242TIP3    H230684   4.497   6.763   1.357
10243TIP3   OH230685   3.533   5.548   3.950
10243TIP3    H130686   3.500   5.634   3.976
10243TIP3    H230687   3.612   5.567   3.898
10244TIP3   OH230688   5.762   4.099   1.640
10244TIP3    H130689   5.777   4.080   1.732
10244TIP3    H230690   5.667   4.102   1.631
10245TIP3   OH230691   6.972   2.332   4.422
10245TIP3    H130692   6.993   2.295   4.337
10245TIP3    H230693   6.947   2.423   4.403
10246TIP3   OH230694   1.906   4.922   1.636
10246TIP3    H130695   1.994   4.941   1.669
10246TIP3    H230696   1.916   4.841   1.585
10247TIP3   OH230697   2.342   4.435   6.160
10247TIP3    H130698   2.311   4.387   6.083
10247TIP3    H230699   2.264   4.446   6.214
10248TIP3   OH230700   4.797   2.929   6.697
10248TIP3    H130701   4.789   2.938   6.602
10248TIP3    H230702   4.763   3.012   6.732
10249TIP3   OH230703   5.179   5.002   4.056
10249TIP3    H130704   5.099   4.994   4.107
10249TIP3    H230705   5.242   4.947   4.101
10250TIP3   OH230706   1.327   6.364   1.658
10250TIP3    H130707   1.235   6.378   1.681
10250TIP3    H230708   1.356   6.449   1.624
10251TIP3   OH230709   6.128   1.125   3.959
10251TIP3    H130710   6.191   1.171   4.015
10251TIP3    H230711   6.162   1.036   3.953
10252TIP3   OH230712   3.160   1.239   3.202
10252TIP3    H130713   3.157   1.160   3.147
10252TIP3    H230714   3.083   1.289   3.176
10253TIP3   OH230715   3.714   6.262   4.576
10253TIP3    H130716   3.765   6.182   4.588
10253TIP3    H230717   3.775   6.323   4.535
10254TIP3   OH230718   2.851   7.361   5.717
10254TIP3    H130719   2.915   7.298   5.684
10254TIP3    H230720   2.766   7.318   5.704
10255TIP3   OH230721   6.168   0.189   5.331
10255TIP3    H130722   6.261   0.167   5.325
10255TIP3    H230723   6.126   0.108   5.359
10256TIP3   OH230724   5.325   6.772   6.389
10256TIP3    H130725   5.374   6.795   6.310
10256TIP3    H230726   5.387   6.785   6.460
10257TIP3   OH230727   5.346   4.908   6.364
10257TIP3    H130728   5.307   4.994   6.382
10257TIP3    H230729   5.280   4.862   6.313
10258TIP3   OH230730   2.229   4.955   5.975
10258TIP3    H130731   2.301   4.954   5.913
10258TIP3    H230732   2.207   5.048   5.984
10259TIP3   OH230733   7.544   5.527   4.123
10259TIP3    H130734   7.604   5.454   4.108
10259TIP3    H230735   7.591   5.604   4.089
10260TIP3   OH230736   4.290   7.187   0.034
10260TIP3    H130737   4.315   7.280   0.034
10260TIP3    H230738   4.195   7.187   0.045
10261TIP3   OH230739   3.542   5.350   4.698
10261TIP3    H130740   3.551   5.404   4.619
10261TIP3    H230741   3.632   5.327   4.722
10262TIP3   OH230742   2.126   7.384   0.719
10262TIP3    H130743   2.106   7.465   0.673
10262TIP3    H230744   2.053   7.373   0.781
10263TIP3   OH230745   4.197   0.349   4.142
10263TIP3    H130746   4.209   0.331   4.236
10263TIP3    H230747   4.270   0.306   4.100
10264TIP3   OH230748   7.442   4.598   3.577
10264TIP3    H130749   7.443   4.668   3.512
10264TIP3    H230750   7.463   4.519   3.528
10265TIP3   OH230751   5.858   1.072   4.044
10265TIP3    H130752   5.941   1.071   3.996
10265TIP3    H230753   5.883   1.059   4.135
10266TIP3   OH230754   4.868   6.841   3.569
10266TIP3    H130755   4.839   6.789   3.644
10266TIP3    H230756   4.811   6.917   3.569
10267TIP3   OH230757   1.202   1.722   3.076
10267TIP3    H130758   1.155   1.702   2.995
10267TIP3    H230759   1.201   1.817   3.081
10268TIP3   OH230760   4.157   0.843   0.864
10268TIP3    H130761   4.111   0.884   0.938
10268TIP3    H230762   4.237   0.895   0.854
10269TIP3   OH230763   4.206   2.257   0.229
10269TIP3    H130764   4.228   2.291   0.142
10269TIP3    H230765   4.238   2.324   0.289
10270TIP3   OH230766   8.260   1.633   2.375
10270TIP3    H130767   8.324   1.679   2.429
10270TIP3    H230768   8.302   1.549   2.355
10271TIP3   OH230769   5.664   4.331   4.291
10271TIP3    H130770   5.657   4.237   4.273
10271TIP3    H230771   5.720   4.365   4.221
10272TIP3   OH230772   1.034   5.542   5.595
10272TIP3    H130773   1.013   5.506   5.509
10272TIP3    H230774   1.081   5.624   5.576
10273TIP3   OH230775   1.941   5.583   1.880
10273TIP3    H130776   1.847   5.574   1.869
10273TIP3    H230777   1.971   5.496   1.908
10274TIP3   OH230778   4.940   5.423   5.262
10274TIP3    H130779   4.964   5.331   5.251
10274TIP3    H230780   4.971   5.466   5.182
10275TIP3   OH230781   0.754   5.388   0.435
10275TIP3    H130782   0.828   5.447   0.447
10275TIP3    H230783   0.758   5.363   0.343
10276TIP3   OH230784   6.093   4.845   2.550
10276TIP3    H130785   6.168   4.895   2.580
10276TIP3    H230786   6.130   4.782   2.488
10277TIP3   OH230787   6.842   7.331   1.847
10277TIP3    H130788   6.923   7.306   1.801
10277TIP3    H230789   6.840   7.273   1.923
10278TIP3   OH230790   1.384   6.143   5.874
10278TIP3    H130791   1.311   6.096   5.834
10278TIP3    H230792   1.408   6.210   5.809
10279TIP3   OH230793   2.395   6.927   5.470
10279TIP3    H130794   2.345   7.006   5.492
10279TIP3    H230795   2.358   6.859   5.527
10280TIP3   OH230796   4.554   0.268   5.273
10280TIP3    H130797   4.587   0.295   5.359
10280TIP3    H230798   4.551   0.349   5.222
10281TIP3   OH230799   3.131   1.956   1.360
10281TIP3    H130800   3.205   1.920   1.310
10281TIP3    H230801   3.167   1.973   1.447
10282TIP3   OH230802   2.775   1.012   3.858
10282TIP3    H130803   2.724   1.017   3.939
10282TIP3    H230804   2.818   0.926   3.862
10283TIP3   OH230805   6.182   2.758   5.567
10283TIP3    H130806   6.109   2.761   5.629
10283TIP3    H230807   6.175   2.839   5.517
10284TIP3   OH230808   1.259   1.547   6.409
10284TIP3    H130809   1.343   1.503   6.405
10284TIP3    H230810   1.223   1.524   6.495
10285TIP3   OH230811   7.530   5.581   2.123
10285TIP3    H130812   7.493   5.667   2.143
10285TIP3    H230813   7.501   5.524   2.194
10286TIP3   OH230814   3.290   0.742   2.523
10286TIP3    H130815   3.356   0.808   2.543
10286TIP3    H230816   3.321   0.700   2.443
10287TIP3   OH230817   5.580   6.042   1.866
10287TIP3    H130818   5.552   6.083   1.784
10287TIP3    H230819   5.660   6.090   1.890
10288TIP3   OH230820   5.684   4.624   4.367
10288TIP3    H130821   5.675   4.529   4.354
10288TIP3    H230822   5.652   4.662   4.285
10289TIP3   OH230823   7.822   6.181   6.000
10289TIP3    H130824   7.859   6.268   5.981
10289TIP3    H230825   7.865   6.153   6.080
10290TIP3   OH230826   4.411   6.406   1.891
10290TIP3    H130827   4.442   6.409   1.800
10290TIP3    H230828   4.476   6.456   1.940
10291TIP3   OH230829   4.540   5.359   3.807
10291TIP3    H130830   4.498   5.412   3.739
10291TIP3    H230831   4.595   5.298   3.758
10292TIP3   OH230832   2.979   4.178   6.615
10292TIP3    H130833   3.003   4.241   6.547
10292TIP3    H230834   3.032   4.203   6.691
10293TIP3   OH230835   1.686   3.826   5.821
10293TIP3    H130836   1.652   3.765   5.755
10293TIP3    H230837   1.781   3.823   5.810
10294TIP3   OH230838   8.034   2.506   0.969
10294TIP3    H130839   8.059   2.541   1.055
10294TIP3    H230840   7.939   2.511   0.968
10295TIP3   OH230841   0.512   2.865   4.932
10295TIP3    H130842   0.607   2.852   4.936
10295TIP3    H230843   0.485   2.872   5.024
10296TIP3   OH230844   2.047   0.231   1.011
10296TIP3    H130845   1.967   0.177   1.013
10296TIP3    H230846   2.115   0.172   0.979
10297TIP3   OH230847   5.212   1.942   2.167
10297TIP3    H130848   5.275   2.006   2.134
10297TIP3    H230849   5.144   1.994   2.210
10298TIP3   OH230850   1.118   3.093   3.478
10298TIP3    H130851   1.161   3.177   3.466
10298TIP3    H230852   1.080   3.098   3.566
10299TIP3   OH230853   4.558   7.385   3.430
10299TIP3    H130854   4.632   7.441   3.405
10299TIP3    H230855   4.587   7.344   3.512
10300TIP3   OH230856   7.148   7.295   5.174
10300TIP3    H130857   7.137   7.389   5.159
10300TIP3    H230858   7.243   7.282   5.174
10301TIP3   OH230859   4.108   1.466   3.995
10301TIP3    H130860   4.022   1.443   4.031
10301TIP3    H230861   4.088   1.506   3.910
10302TIP3   OH230862   0.463   4.520   2.257
10302TIP3    H130863   0.436   4.438   2.298
10302TIP3    H230864   0.479   4.497   2.165
10303TIP3   OH230865   1.498   2.199   2.899
10303TIP3    H130866   1.505   2.289   2.867
10303TIP3    H230867   1.573   2.154   2.861
10304TIP3   OH230868   2.967   4.882   3.652
10304TIP3    H130869   3.059   4.904   3.667
10304TIP3    H230870   2.936   4.848   3.735
10305TIP3   OH230871   0.903   1.180   5.948
10305TIP3    H130872   0.835   1.237   5.985
10305TIP3    H230873   0.984   1.210   5.987
10306TIP3   OH230874   5.613   0.690   2.397
10306TIP3    H130875   5.620   0.640   2.315
10306TIP3    H230876   5.545   0.644   2.446
10307TIP3   OH230877   3.152   1.998   4.390
10307TIP3    H130878   3.108   1.915   4.371
10307TIP3    H230879   3.243   1.975   4.403
10308TIP3   OH230880   5.274   3.204   2.844
10308TIP3    H130881   5.210   3.269   2.873
10308TIP3    H230882   5.277   3.140   2.915
10309TIP3   OH230883   0.992   3.660   0.078
10309TIP3    H130884   1.036   3.638  -0.004
10309TIP3    H230885   0.904   3.685   0.051
10310TIP3   OH230886   2.233   3.115   6.259
10310TIP3    H130887   2.203   3.206   6.258
10310TIP3    H230888   2.156   3.065   6.287
10311TIP3   OH230889   2.930   5.148   3.588
10311TIP3    H130890   2.839   5.151   3.618
10311TIP3    H230891   2.953   5.055   3.592
10312TIP3   OH230892   7.441   0.366   4.716
10312TIP3    H130893   7.350   0.372   4.748
10312TIP3    H230894   7.463   0.455   4.689
10313TIP3   OH230895   2.293   7.013   6.146
10313TIP3    H130896   2.327   7.092   6.104
10313TIP3    H230897   2.351   7.000   6.221
10314TIP3   OH230898   3.784   0.484   5.654
10314TIP3    H130899   3.704   0.434   5.668
10314TIP3    H230900   3.852   0.432   5.696
10315TIP3   OH230901   5.099   0.389   5.107
10315TIP3    H130902   5.191   0.401   5.132
10315TIP3    H230903   5.103   0.340   5.025
10316TIP3   OH230904   4.689   4.703   3.517
10316TIP3    H130905   4.784   4.713   3.517
10316TIP3    H230906   4.656   4.793   3.512
10317TIP3   OH230907   1.068   5.504   3.222
10317TIP3    H130908   1.107   5.470   3.302
10317TIP3    H230909   1.120   5.464   3.152
10318TIP3   OH230910   1.908   5.141   0.425
10318TIP3    H130911   1.834   5.114   0.479
10318TIP3    H230912   1.887   5.231   0.399
10319TIP3   OH230913   5.564   5.583   5.734
10319TIP3    H130914   5.515   5.501   5.732
10319TIP3    H230915   5.639   5.565   5.791
10320TIP3   OH230916   7.074   0.138   3.354
10320TIP3    H130917   7.165   0.168   3.353
10320TIP3    H230918   7.027   0.207   3.402
10321TIP3   OH230919   5.502   6.044   3.588
10321TIP3    H130920   5.593   6.037   3.616
10321TIP3    H230921   5.496   5.984   3.513
10322TIP3   OH230922   0.427   3.198   3.365
10322TIP3    H130923   0.480   3.246   3.302
10322TIP3    H230924   0.470   3.113   3.373
10323TIP3   OH230925   2.654   6.299   3.048
10323TIP3    H130926   2.715   6.234   3.016
10323TIP3    H230927   2.568   6.265   3.024
10324TIP3   OH230928   8.050   3.507   3.623
10324TIP3    H130929   7.977   3.446   3.634
10324TIP3    H230930   8.031   3.550   3.539
10325TIP3   OH230931   3.908   4.622   2.014
10325TIP3    H130932   3.884   4.677   2.088
10325TIP3    H230933   3.889   4.533   2.044
10326TIP3   OH230934   2.155   5.856   6.777
10326TIP3    H130935   2.133   5.949   6.783
10326TIP3    H230936   2.093   5.820   6.713
10327TIP3   OH230937   7.219   0.607   4.776
10327TIP3    H130938   7.169   0.552   4.716
10327TIP3    H230939   7.184   0.586   4.863
10328TIP3   OH230940   2.509   6.218   5.095
10328TIP3    H130941   2.421   6.215   5.057
10328TIP3    H230942   2.530   6.126   5.113
10329TIP3   OH230943   2.596   7.265   6.443
10329TIP3    H130944   2.530   7.293   6.380
10329TIP3    H230945   2.546   7.216   6.509
10330TIP3   OH230946   5.539   6.248   6.627
10330TIP3    H130947   5.446   6.235   6.609
10330TIP3    H230948   5.584   6.206   6.555
10331TIP3   OH230949   7.068   5.689   6.576
10331TIP3    H130950   7.004   5.726   6.515
10331TIP3    H230951   7.081   5.758   6.641
10332TIP3   OH230952   3.535   4.119   2.932
10332TIP3    H130953   3.559   4.111   2.840
10332TIP3    H230954   3.440   4.118   2.933
10333TIP3   OH230955   3.895   0.567   2.411
10333TIP3    H130956   3.985   0.556   2.382
10333TIP3    H230957   3.845   0.503   2.360
10334TIP3   OH230958   5.516   6.881   4.830
10334TIP3    H130959   5.436   6.830   4.837
10334TIP3    H230960   5.547   6.866   4.741
10335TIP3   OH230961   1.139   1.543   2.513
10335TIP3    H130962   1.229   1.576   2.517
10335TIP3    H230963   1.101   1.567   2.598
10336TIP3   OH230964   4.771   5.901   6.179
10336TIP3    H130965   4.684   5.889   6.139
10336TIP3    H230966   4.792   5.993   6.161
10337TIP3   OH230967   2.633   7.759   5.559
10337TIP3    H130968   2.637   7.716   5.474
10337TIP3    H230969   2.554   7.723   5.600
10338TIP3   OH230970   0.677   1.126   0.194
10338TIP3    H130971   0.630   1.047   0.218
10338TIP3    H230972   0.644   1.193   0.254
10339TIP3   OH230973   0.837   0.110   1.186
10339TIP3    H130974   0.928   0.088   1.167
10339TIP3    H230975   0.812   0.050   1.256
10340TIP3   OH230976   6.180   7.392   4.591
10340TIP3    H130977   6.174   7.484   4.565
10340TIP3    H230978   6.273   7.379   4.610
10341TIP3   OH230979   3.623   2.827   4.303
10341TIP3    H130980   3.646   2.739   4.274
10341TIP3    H230981   3.543   2.816   4.355
10342TIP3   OH230982   3.854   3.356   3.718
10342TIP3    H130983   3.931   3.301   3.729
10342TIP3    H230984   3.822   3.370   3.807
10343TIP3   OH230985   4.277   5.300   2.136
10343TIP3    H130986   4.185   5.299   2.161
10343TIP3    H230987   4.307   5.388   2.158
10344TIP3   OH230988   1.207   6.090   0.804
10344TIP3    H130989   1.255   6.047   0.735
10344TIP3    H230990   1.189   6.021   0.868
10345TIP3   OH230991   4.995   5.704   4.588
10345TIP3    H130992   4.914   5.746   4.559
10345TIP3    H230993   4.999   5.622   4.540
10346TIP3   OH230994   0.319   0.602   5.676
10346TIP3    H130995   0.414   0.606   5.660
10346TIP3    H230996   0.297   0.509   5.665
10347TIP3   OH230997   6.273   4.581   2.451
10347TIP3    H130998   6.363   4.549   2.465
10347TIP3    H230999   6.241   4.600   2.539
10348TIP3   OH231000   1.985   7.736   3.526
10348TIP3    H131001   2.048   7.751   3.596
10348TIP3    H231002   2.038   7.723   3.448
10349TIP3   OH231003   2.629   3.647   4.652
10349TIP3    H131004   2.628   3.635   4.557
10349TIP3    H231005   2.583   3.729   4.667
10350TIP3   OH231006   3.702   4.617   2.428
10350TIP3    H131007   3.646   4.592   2.354
10350TIP3    H231008   3.671   4.564   2.501
10351TIP3   OH231009   6.831   3.219   0.959
10351TIP3    H131010   6.901   3.259   1.011
10351TIP3    H231011   6.753   3.271   0.979
10352TIP3   OH231012   3.011   4.225   6.174
10352TIP3    H131013   3.088   4.170   6.190
10352TIP3    H231014   3.027   4.303   6.227
10353TIP3   OH231015   7.381   4.800   4.943
10353TIP3    H131016   7.396   4.796   4.848
10353TIP3    H231017   7.319   4.730   4.961
10354TIP3   OH231018   3.461   1.581   6.114
10354TIP3    H131019   3.366   1.583   6.129
10354TIP3    H231020   3.472   1.520   6.041
10355TIP3   OH231021   4.076   6.329   4.411
10355TIP3    H131022   4.026   6.251   4.435
10355TIP3    H231023   4.039   6.398   4.465
10356TIP3   OH231024   1.709   0.041   2.818
10356TIP3    H131025   1.784   0.068   2.765
10356TIP3    H231026   1.742   0.042   2.908
10357TIP3   OH231027   6.649   1.708   0.701
10357TIP3    H131028   6.616   1.622   0.675
10357TIP3    H231029   6.743   1.704   0.682
10358TIP3   OH231030   3.401   1.645   1.855
10358TIP3    H131031   3.359   1.562   1.830
10358TIP3    H231032   3.481   1.618   1.900
10359TIP3   OH231033   5.127   7.227   4.796
10359TIP3    H131034   5.043   7.213   4.752
10359TIP3    H231035   5.120   7.176   4.877
10360TIP3   OH231036   8.078   7.592   2.698
10360TIP3    H131037   8.065   7.559   2.787
10360TIP3    H231038   8.125   7.522   2.654
10361TIP3   OH231039   6.623   3.369   1.087
10361TIP3    H131040   6.625   3.390   1.181
10361TIP3    H231041   6.584   3.282   1.083
10362TIP3   OH231042   4.115   0.643   3.440
10362TIP3    H131043   4.185   0.577   3.437
10362TIP3    H231044   4.127   0.694   3.359
10363TIP3   OH231045   2.138   5.614   0.657
10363TIP3    H131046   2.115   5.649   0.743
10363TIP3    H231047   2.177   5.689   0.611
10364TIP3   OH231048   0.418   6.445   5.504
10364TIP3    H131049   0.390   6.520   5.556
10364TIP3    H231050   0.338   6.395   5.489
10365TIP3   OH231051   6.404   0.930   6.326
10365TIP3    H131052   6.459   0.879   6.267
10365TIP3    H231053   6.426   1.021   6.307
10366TIP3   OH231054   1.562   7.566   2.262
10366TIP3    H131055   1.576   7.483   2.218
10366TIP3    H231056   1.646   7.612   2.255
10367TIP3   OH231057   3.456   5.761   5.593
10367TIP3    H131058   3.383   5.803   5.641
10367TIP3    H231059   3.526   5.826   5.596
10368TIP3   OH231060   2.745   3.883   1.728
10368TIP3    H131061   2.779   3.821   1.663
10368TIP3    H231062   2.815   3.948   1.737
10369TIP3   OH231063   4.743   1.940   2.959
10369TIP3    H131064   4.803   1.988   2.903
10369TIP3    H231065   4.763   1.971   3.048
10370TIP3   OH231066   5.489   1.256   4.225
10370TIP3    H131067   5.534   1.249   4.141
10370TIP3    H231068   5.543   1.204   4.286
10371TIP3   OH231069   0.408   1.454   2.649
10371TIP3    H131070   0.365   1.392   2.591
10371TIP3    H231071   0.336   1.495   2.697
10372TIP3   OH231072   4.752   0.368   5.960
10372TIP3    H131073   4.693   0.422   6.013
10372TIP3    H231074   4.703   0.287   5.947
10373TIP3   OH231075   1.922   0.587   5.954
10373TIP3    H131076   1.909   0.575   5.859
10373TIP3    H231077   1.997   0.531   5.974
10374TIP3   OH231078   4.356   1.768   4.181
10374TIP3    H131079   4.425   1.718   4.139
10374TIP3    H231080   4.342   1.725   4.265
10375TIP3   OH231081   7.051   2.310   5.109
10375TIP3    H131082   7.080   2.366   5.037
10375TIP3    H231083   7.094   2.226   5.093
10376TIP3   OH231084   5.520   1.053   4.550
10376TIP3    H131085   5.436   1.079   4.513
10376TIP3    H231086   5.512   1.070   4.644
10377TIP3   OH231087   3.093   3.253   3.559
10377TIP3    H131088   3.055   3.200   3.489
10377TIP3    H231089   3.184   3.268   3.531
10378TIP3   OH231090   3.058   1.111   4.640
10378TIP3    H131091   3.103   1.029   4.621
10378TIP3    H231092   3.116   1.156   4.702
10379TIP3   OH231093   3.857   6.040   6.714
10379TIP3    H131094   3.767   6.030   6.683
10379TIP3    H231095   3.902   5.962   6.683
10380TIP3   OH231096   5.660   1.844   0.882
10380TIP3    H131097   5.679   1.853   0.976
10380TIP3    H231098   5.694   1.924   0.843
10381TIP3   OH231099   2.218   0.667   3.849
10381TIP3    H131100   2.237   0.667   3.943
10381TIP3    H231101   2.127   0.695   3.843
10382TIP3   OH231102   6.848   4.557   4.785
10382TIP3    H131103   6.884   4.485   4.734
10382TIP3    H231104   6.853   4.527   4.876
10383TIP3   OH231105   3.615   6.707   4.481
10383TIP3    H131106   3.614   6.733   4.573
10383TIP3    H231107   3.531   6.738   4.446
10384TIP3   OH231108   7.226   1.667   0.929
10384TIP3    H131109   7.240   1.598   0.864
10384TIP3    H231110   7.302   1.661   0.987
10385TIP3   OH231111   6.751   5.276   1.789
10385TIP3    H131112   6.708   5.194   1.765
10385TIP3    H231113   6.678   5.333   1.816
10386TIP3   OH231114   5.462   2.205   3.539
10386TIP3    H131115   5.372   2.224   3.566
10386TIP3    H231116   5.454   2.169   3.451
10387TIP3   OH231117   2.688   6.043   2.618
10387TIP3    H131118   2.713   6.135   2.619
10387TIP3    H231119   2.648   6.030   2.532
10388TIP3   OH231120   2.317   3.831   1.065
10388TIP3    H131121   2.412   3.831   1.077
10388TIP3    H231122   2.305   3.834   0.970
10389TIP3   OH231123   1.148   2.321   2.443
10389TIP3    H131124   1.128   2.229   2.426
10389TIP3    H231125   1.239   2.321   2.473
10390TIP3   OH231126   1.931   3.036   1.505
10390TIP3    H131127   1.931   3.125   1.541
10390TIP3    H231128   1.947   2.980   1.581
10391TIP3   OH231129   4.011   4.840   1.281
10391TIP3    H131130   4.028   4.775   1.350
10391TIP3    H231131   3.915   4.847   1.278
10392TIP3   OH231132   4.275   0.574   3.879
10392TIP3    H131133   4.328   0.640   3.923
10392TIP3    H231134   4.187   0.611   3.876
10393TIP3   OH231135   4.019   4.467   3.124
10393TIP3    H131136   3.965   4.546   3.114
10393TIP3    H231137   4.053   4.451   3.036
10394TIP3   OH231138   7.145   2.465   1.949
10394TIP3    H131139   7.228   2.430   1.980
10394TIP3    H231140   7.136   2.548   1.997
10395TIP3   OH231141   1.367   0.439   3.123
10395TIP3    H131142   1.440   0.387   3.088
10395TIP3    H231143   1.406   0.524   3.142
10396TIP3   OH231144   0.620   0.318   6.573
10396TIP3    H131145   0.704   0.357   6.596
10396TIP3    H231146   0.642   0.233   6.536
10397TIP3   OH231147   1.784   4.026   4.466
10397TIP3    H131148   1.878   4.013   4.454
10397TIP3    H231149   1.772   4.026   4.561
10398TIP3   OH231150   5.275   6.651   5.659
10398TIP3    H131151   5.361   6.612   5.675
10398TIP3    H231152   5.217   6.607   5.722
10399TIP3   OH231153   2.207   0.691   2.011
10399TIP3    H131154   2.167   0.617   1.966
10399TIP3    H231155   2.275   0.722   1.951
10400TIP3   OH231156   7.465   1.454   1.843
10400TIP3    H131157   7.433   1.409   1.764
10400TIP3    H231158   7.475   1.384   1.908
10401TIP3   OH231159   2.079   2.651   0.766
10401TIP3    H131160   2.121   2.645   0.851
10401TIP3    H231161   1.994   2.609   0.778
10402TIP3   OH231162   4.369   1.040   0.820
10402TIP3    H131163   4.316   1.118   0.805
10402TIP3    H231164   4.392   1.009   0.732
10403TIP3   OH231165   7.602   4.897   5.080
10403TIP3    H131166   7.598   4.979   5.130
10403TIP3    H231167   7.516   4.891   5.038
10404TIP3   OH231168   6.380   3.383   5.879
10404TIP3    H131169   6.405   3.430   5.958
10404TIP3    H231170   6.297   3.340   5.901
10405TIP3   OH231171   8.226   5.862   1.796
10405TIP3    H131172   8.266   5.789   1.747
10405TIP3    H231173   8.198   5.823   1.879
10406TIP3   OH231174   5.597   2.629   5.662
10406TIP3    H131175   5.592   2.680   5.581
10406TIP3    H231176   5.507   2.597   5.676
10407TIP3   OH231177   7.246   0.995   5.051
10407TIP3    H131178   7.288   0.910   5.039
10407TIP3    H231179   7.317   1.053   5.080
10408TIP3   OH231180   8.274   7.396   2.604
10408TIP3    H131181   8.276   7.327   2.670
10408TIP3    H231182   8.354   7.446   2.619
10409TIP3   OH231183   0.491   3.848   3.222
10409TIP3    H131184   0.570   3.795   3.233
10409TIP3    H231185   0.517   3.919   3.163
10410TIP3   OH231186   6.135   7.765   1.434
10410TIP3    H131187   6.125   7.741   1.342
10410TIP3    H231188   6.229   7.768   1.448
10411TIP3   OH231189   1.814   4.522   5.525
10411TIP3    H131190   1.890   4.561   5.481
10411TIP3    H231191   1.753   4.595   5.537
10412TIP3   OH231192   7.923   1.617   4.649
10412TIP3    H131193   7.934   1.666   4.730
10412TIP3    H231194   7.835   1.641   4.618
10413TIP3   OH231195   7.681   3.167   6.008
10413TIP3    H131196   7.776   3.157   6.010
10413TIP3    H231197   7.666   3.233   5.940
10414TIP3   OH231198   0.910   3.506   1.100
10414TIP3    H131199   0.822   3.489   1.067
10414TIP3    H231200   0.969   3.478   1.030
10415TIP3   OH231201   0.005   7.261   1.366
10415TIP3    H131202   0.041   7.185   1.320
10415TIP3    H231203   0.002   7.234   1.458
10416TIP3   OH231204   6.708   5.844   3.782
10416TIP3    H131205   6.802   5.835   3.801
10416TIP3    H231206   6.685   5.929   3.819
10417TIP3   OH231207   4.760   5.847   1.048
10417TIP3    H131208   4.738   5.782   1.115
10417TIP3    H231209   4.794   5.796   0.975
10418TIP3   OH231210   0.754   3.596   4.002
10418TIP3    H131211   0.772   3.690   4.008
10418TIP3    H231212   0.665   3.591   3.967
10419TIP3   OH231213   3.814   3.040   1.785
10419TIP3    H131214   3.730   3.058   1.828
10419TIP3    H231215   3.794   3.041   1.692
10420TIP3   OH231216   4.398   6.034   0.330
10420TIP3    H131217   4.372   5.962   0.272
10420TIP3    H231218   4.391   5.997   0.418
10421TIP3   OH231219   3.090   4.215   0.264
10421TIP3    H131220   3.100   4.192   0.171
10421TIP3    H231221   3.093   4.131   0.309
10422TIP3   OH231222   2.937   1.807   5.276
10422TIP3    H131223   2.855   1.800   5.325
10422TIP3    H231224   2.937   1.897   5.243
10423TIP3   OH231225   6.108   4.585   0.654
10423TIP3    H131226   6.204   4.585   0.654
10423TIP3    H231227   6.085   4.651   0.720
10424TIP3   OH231228   6.013   5.054   4.546
10424TIP3    H131229   5.932   5.042   4.594
10424TIP3    H231230   6.061   5.120   4.596
10425TIP3   OH231231   0.837   6.878   2.005
10425TIP3    H131232   0.914   6.926   1.973
10425TIP3    H231233   0.860   6.786   1.994
10426TIP3   OH231234   0.450   6.762   0.146
10426TIP3    H131235   0.424   6.789   0.233
10426TIP3    H231236   0.426   6.835   0.089
10427TIP3   OH231237   6.831   4.109   6.611
10427TIP3    H131238   6.751   4.102   6.663
10427TIP3    H231239   6.833   4.029   6.558
10428TIP3   OH231240   7.885   4.771   5.468
10428TIP3    H131241   7.825   4.712   5.514
10428TIP3    H231242   7.890   4.737   5.379
10429TIP3   OH231243   3.309   5.777   4.120
10429TIP3    H131244   3.228   5.732   4.094
10429TIP3    H231245   3.364   5.772   4.042
10430TIP3   OH231246   3.566   5.830   2.532
10430TIP3    H131247   3.642   5.887   2.541
10430TIP3    H231248   3.491   5.890   2.526
10431TIP3   OH231249   6.371   5.180   1.692
10431TIP3    H131250   6.343   5.152   1.605
10431TIP3    H231251   6.290   5.192   1.742
10432TIP3   OH231252   2.729   3.353   1.737
10432TIP3    H131253   2.805   3.351   1.680
10432TIP3    H231254   2.689   3.439   1.723
10433TIP3   OH231255   3.984   3.677   4.233
10433TIP3    H131256   4.077   3.693   4.252
10433TIP3    H231257   3.974   3.704   4.142
10434TIP3   OH231258   2.435   3.045   5.162
10434TIP3    H131259   2.489   3.025   5.238
10434TIP3    H231260   2.497   3.051   5.089
10435TIP3   OH231261   7.143   0.246   3.659
10435TIP3    H131262   7.143   0.317   3.595
10435TIP3    H231263   7.099   0.283   3.736
10436TIP3   OH231264   3.405   2.545   5.272
10436TIP3    H131265   3.317   2.554   5.309
10436TIP3    H231266   3.464   2.569   5.343
10437TIP3   OH231267   0.436   2.025   2.918
10437TIP3    H131268   0.517   2.003   2.872
10437TIP3    H231269   0.404   1.942   2.952
10438TIP3   OH231270   6.653   5.066   6.613
10438TIP3    H131271   6.651   5.014   6.533
10438TIP3    H231272   6.700   5.011   6.676
10439TIP3   OH231273   0.734   5.076   4.657
10439TIP3    H131274   0.822   5.040   4.670
10439TIP3    H231275   0.749   5.161   4.615
10440TIP3   OH231276   5.681   5.141   4.666
10440TIP3    H131277   5.748   5.194   4.709
10440TIP3    H231278   5.649   5.196   4.595
10441TIP3   OH231279   6.977   5.755   5.377
10441TIP3    H131280   7.026   5.724   5.301
10441TIP3    H231281   6.922   5.681   5.403
10442TIP3   OH231282   1.250   6.473   3.659
10442TIP3    H131283   1.238   6.520   3.577
10442TIP3    H231284   1.213   6.386   3.643
10443TIP3   OH231285   8.075   3.463   6.058
10443TIP3    H131286   8.054   3.395   6.123
10443TIP3    H231287   7.994   3.475   6.009
10444TIP3   OH231288   2.784   0.676   5.566
10444TIP3    H131289   2.854   0.615   5.589
10444TIP3    H231290   2.809   0.710   5.481
10445TIP3   OH231291   2.183   5.061   5.099
10445TIP3    H131292   2.269   5.021   5.116
10445TIP3    H231293   2.134   4.992   5.054
10446TIP3   OH231294   6.420   3.564   5.345
10446TIP3    H131295   6.489   3.547   5.281
10446TIP3    H231296   6.414   3.483   5.396
10447TIP3   OH231297   0.981   1.984   3.793
10447TIP3    H131298   1.001   1.993   3.700
10447TIP3    H231299   0.894   2.024   3.802
10448TIP3   OH231300   6.038   2.621   0.108
10448TIP3    H131301   6.007   2.586   0.024
10448TIP3    H231302   5.990   2.572   0.174
10449TIP3   OH231303   5.747   0.820   5.143
10449TIP3    H131304   5.710   0.811   5.231
10449TIP3    H231305   5.749   0.730   5.109
10450TIP3   OH231306   4.418   2.085   4.241
10450TIP3    H131307   4.454   2.052   4.324
10450TIP3    H231308   4.379   2.169   4.263
10451TIP3   OH231309   2.120   4.949   3.565
10451TIP3    H131310   2.054   4.993   3.510
10451TIP3    H231311   2.168   4.893   3.504
10452TIP3   OH231312   5.161   4.393   1.134
10452TIP3    H131313   5.257   4.398   1.129
10452TIP3    H231314   5.143   4.371   1.225
10453TIP3   OH231315   6.102   0.087   3.887
10453TIP3    H131316   6.105   0.038   3.969
10453TIP3    H231317   6.028   0.147   3.897
10454TIP3   OH231318   0.398   0.350   2.814
10454TIP3    H131319   0.342   0.381   2.743
10454TIP3    H231320   0.461   0.421   2.827
10455TIP3   OH231321   6.362   0.870   2.049
10455TIP3    H131322   6.291   0.911   2.000
10455TIP3    H231323   6.333   0.870   2.140
10456TIP3   OH231324   8.246   7.237   6.742
10456TIP3    H131325   8.268   7.169   6.678
10456TIP3    H231326   8.167   7.204   6.786
10457TIP3   OH231327   8.189   1.222   1.380
10457TIP3    H131328   8.130   1.296   1.392
10457TIP3    H231329   8.213   1.194   1.468
10458TIP3   OH231330   1.629   3.248   3.751
10458TIP3    H131331   1.693   3.317   3.735
10458TIP3    H231332   1.653   3.178   3.690
10459TIP3   OH231333   5.992   2.751   5.787
10459TIP3    H131334   5.965   2.678   5.843
10459TIP3    H231335   5.915   2.808   5.782
10460TIP3   OH231336   6.547   3.018   2.343
10460TIP3    H131337   6.618   3.050   2.288
10460TIP3    H231338   6.563   2.924   2.353
10461TIP3   OH231339   8.004   4.564   6.207
10461TIP3    H131340   8.047   4.593   6.287
10461TIP3    H231341   7.916   4.537   6.236
10462TIP3   OH231342   4.704   0.493   3.340
10462TIP3    H131343   4.616   0.457   3.329
10462TIP3    H231344   4.692   0.567   3.399
10463TIP3   OH231345   4.630   6.205   6.702
10463TIP3    H131346   4.699   6.212   6.636
10463TIP3    H231347   4.646   6.120   6.745
10464TIP3   OH231348   7.373   7.013   5.962
10464TIP3    H131349   7.419   6.932   5.939
10464TIP3    H231350   7.406   7.077   5.898
10465TIP3   OH231351   4.179   2.694   4.720
10465TIP3    H131352   4.139   2.745   4.649
10465TIP3    H231353   4.228   2.759   4.771
10466TIP3   OH231354   7.675   1.504   6.477
10466TIP3    H131355   7.701   1.583   6.429
10466TIP3    H231356   7.749   1.486   6.535
10467TIP3   OH231357   2.967   1.412   3.054
10467TIP3    H131358   2.885   1.428   3.100
10467TIP3    H231359   2.940   1.386   2.966
10468TIP3   OH231360   3.829   7.172   0.734
10468TIP3    H131361   3.851   7.080   0.718
10468TIP3    H231362   3.750   7.168   0.789
10469TIP3   OH231363   7.795   1.743   6.340
10469TIP3    H131364   7.814   1.796   6.417
10469TIP3    H231365   7.710   1.775   6.309
10470TIP3   OH231366   0.257   3.340   1.063
10470TIP3    H131367   0.200   3.399   1.112
10470TIP3    H231368   0.226   3.252   1.085
10471TIP3   OH231369   1.356   4.441   4.581
10471TIP3    H131370   1.429   4.411   4.636
10471TIP3    H231371   1.317   4.360   4.547
10472TIP3   OH231372   3.230   7.722   3.149
10472TIP3    H131373   3.318   7.709   3.184
10472TIP3    H231374   3.238   7.700   3.056
10473TIP3   OH231375   7.759   0.616   4.798
10473TIP3    H131376   7.682   0.561   4.788
10473TIP3    H231377   7.828   0.571   4.750
10474TIP3   OH231378   4.632   2.183   3.594
10474TIP3    H131379   4.567   2.209   3.660
10474TIP3    H231380   4.610   2.237   3.518
10475TIP3   OH231381   1.663   5.461   6.118
10475TIP3    H131382   1.594   5.488   6.178
10475TIP3    H231383   1.618   5.404   6.054
10476TIP3   OH231384   4.817   5.465   3.547
10476TIP3    H131385   4.849   5.482   3.458
10476TIP3    H231386   4.781   5.549   3.576
10477TIP3   OH231387   0.866   6.421   2.802
10477TIP3    H131388   0.803   6.350   2.793
10477TIP3    H231389   0.931   6.405   2.734
10478TIP3   OH231390   4.977   6.576   3.827
10478TIP3    H131391   5.005   6.642   3.763
10478TIP3    H231392   5.003   6.492   3.788
10479TIP3   OH231393   1.730   7.183   2.354
10479TIP3    H131394   1.643   7.183   2.315
10479TIP3    H231395   1.772   7.105   2.317
10480TIP3   OH231396   5.686   7.526   5.038
10480TIP3    H131397   5.749   7.546   5.107
10480TIP3    H231398   5.665   7.434   5.050
10481TIP3   OH231399  -0.028   5.093   6.531
10481TIP3    H131400  -0.012   5.127   6.619
10481TIP3    H231401   0.002   5.002   6.536
10482TIP3   OH231402   6.752   0.130   6.365
10482TIP3    H131403   6.812   0.163   6.432
10482TIP3    H231404   6.806   0.122   6.287
10483TIP3   OH231405   0.520   5.230   0.230
10483TIP3    H131406   0.599   5.284   0.226
10483TIP3    H231407   0.465   5.273   0.296
10484TIP3   OH231408   4.234   0.493   2.241
10484TIP3    H131409   4.315   0.502   2.191
10484TIP3    H231410   4.165   0.493   2.175
10485TIP3   OH231411   7.703   4.415   3.620
10485TIP3    H131412   7.733   4.506   3.621
10485TIP3    H231413   7.676   4.399   3.530
10486TIP3   OH231414   5.216   6.473   4.001
10486TIP3    H131415   5.264   6.427   4.070
10486TIP3    H231416   5.148   6.411   3.974
10487TIP3   OH231417   5.997   5.039   3.309
10487TIP3    H131418   6.073   4.982   3.315
10487TIP3    H231419   5.965   5.046   3.399
10488TIP3   OH231420   1.877   0.867   2.494
10488TIP3    H131421   1.795   0.914   2.481
10488TIP3    H231422   1.866   0.785   2.446
10489TIP3   OH231423   3.005   6.345   0.839
10489TIP3    H131424   3.066   6.381   0.774
10489TIP3    H231425   2.918   6.361   0.802
10490TIP3   OH231426   1.479   5.195   1.656
10490TIP3    H131427   1.485   5.286   1.685
10490TIP3    H231428   1.570   5.164   1.656
10491TIP3   OH231429   5.113   3.481   2.387
10491TIP3    H131430   5.149   3.559   2.347
10491TIP3    H231431   5.145   3.484   2.478
10492TIP3   OH231432   4.610   0.786   5.775
10492TIP3    H131433   4.537   0.847   5.785
10492TIP3    H231434   4.629   0.756   5.864
10493TIP3   OH231435   4.396   7.112   5.539
10493TIP3    H131436   4.491   7.123   5.531
10493TIP3    H231437   4.360   7.187   5.492
10494TIP3   OH231438   4.053   4.229   0.492
10494TIP3    H131439   3.995   4.199   0.562
10494TIP3    H231440   4.086   4.148   0.453
10495TIP3   OH231441   0.816   1.809   5.899
10495TIP3    H131442   0.729   1.795   5.861
10495TIP3    H231443   0.800   1.859   5.979
10496TIP3   OH231444   8.311   5.565   0.439
10496TIP3    H131445   8.310   5.618   0.519
10496TIP3    H231446   8.266   5.484   0.463
10497TIP3   OH231447   7.887   3.296   3.760
10497TIP3    H131448   7.808   3.241   3.758
10497TIP3    H231449   7.871   3.360   3.829
10498TIP3   OH231450   4.798   7.617   2.212
10498TIP3    H131451   4.867   7.551   2.206
10498TIP3    H231452   4.733   7.579   2.272
10499TIP3   OH231453   3.552   4.853   1.970
10499TIP3    H131454   3.468   4.844   1.926
10499TIP3    H231455   3.611   4.886   1.903
10500TIP3   OH231456   4.552   1.451   5.807
10500TIP3    H131457   4.619   1.385   5.823
10500TIP3    H231458   4.498   1.414   5.737
10501TIP3   OH231459   2.020   7.787   0.409
10501TIP3    H131460   2.074   7.758   0.335
10501TIP3    H231461   1.930   7.780   0.377
10502TIP3   OH231462   1.829   3.155   0.375
10502TIP3    H131463   1.911   3.116   0.344
10502TIP3    H231464   1.824   3.240   0.332
10503TIP3   OH231465   2.602   3.277   0.052
10503TIP3    H131466   2.600   3.228  -0.030
10503TIP3    H231467   2.669   3.233   0.104
10504TIP3   OH231468   2.657   3.830   6.588
10504TIP3    H131469   2.720   3.769   6.625
10504TIP3    H231470   2.624   3.786   6.510
10505TIP3   OH231471   7.860   5.620   4.475
10505TIP3    H131472   7.930   5.626   4.540
10505TIP3    H231473   7.837   5.527   4.472
10506TIP3   OH231474   4.493   6.707   2.521
10506TIP3    H131475   4.479   6.634   2.581
10506TIP3    H231476   4.585   6.699   2.495
10507TIP3   OH231477   0.134   2.897   4.054
10507TIP3    H131478   0.157   2.808   4.029
10507TIP3    H231479   0.078   2.887   4.131
10508TIP3   OH231480   7.941   6.628   6.518
10508TIP3    H131481   8.011   6.690   6.500
10508TIP3    H231482   7.883   6.634   6.441
10509TIP3   OH231483   8.096   0.496   0.424
10509TIP3    H131484   8.106   0.579   0.378
10509TIP3    H231485   8.125   0.515   0.513
10510TIP3   OH231486   3.235   3.238   5.206
10510TIP3    H131487   3.169   3.240   5.136
10510TIP3    H231488   3.189   3.202   5.282
10511TIP3   OH231489   5.548   0.896   2.063
10511TIP3    H131490   5.625   0.951   2.078
10511TIP3    H231491   5.550   0.878   1.969
10512TIP3   OH231492   4.527   7.550   0.993
10512TIP3    H131493   4.529   7.605   0.915
10512TIP3    H231494   4.603   7.577   1.044
10513TIP3   OH231495   3.426   0.873   0.192
10513TIP3    H131496   3.522   0.876   0.195
10513TIP3    H231497   3.405   0.780   0.183
10514TIP3   OH231498   1.639   6.409   6.009
10514TIP3    H131499   1.683   6.324   6.008
10514TIP3    H231500   1.590   6.410   6.091
10515TIP3   OH231501   5.787   4.569   0.342
10515TIP3    H131502   5.748   4.655   0.357
10515TIP3    H231503   5.812   4.538   0.429
10516TIP3   OH231504   7.358   6.196   1.418
10516TIP3    H131505   7.423   6.236   1.475
10516TIP3    H231506   7.289   6.262   1.410
10517TIP3   OH231507   1.425   4.670   0.790
10517TIP3    H131508   1.442   4.672   0.696
10517TIP3    H231509   1.363   4.598   0.802
10518TIP3   OH231510   0.366   7.584   0.346
10518TIP3    H131511   0.459   7.592   0.327
10518TIP3    H231512   0.337   7.507   0.297
10519TIP3   OH231513   5.328   7.761   4.163
10519TIP3    H131514   5.376   7.695   4.213
10519TIP3    H231515   5.339   7.736   4.072
10520TIP3   OH231516   1.550   3.843   0.349
10520TIP3    H131517   1.513   3.768   0.302
10520TIP3    H231518   1.534   3.824   0.441
10521TIP3   OH231519   0.102   0.131   4.491
10521TIP3    H131520   0.059   0.160   4.410
10521TIP3    H231521   0.033   0.083   4.538
10522TIP3   OH231522   8.017   3.084   1.164
10522TIP3    H131523   8.028   3.055   1.254
10522TIP3    H231524   7.934   3.045   1.136
10523TIP3   OH231525   1.574   4.383   0.686
10523TIP3    H131526   1.612   4.460   0.643
10523TIP3    H231527   1.647   4.343   0.733
10524TIP3   OH231528   5.375   0.414   2.005
10524TIP3    H131529   5.411   0.482   2.062
10524TIP3    H231530   5.363   0.338   2.062
10525TIP3   OH231531   7.262   6.618   0.112
10525TIP3    H131532   7.308   6.694   0.149
10525TIP3    H231533   7.200   6.656   0.050
10526TIP3   OH231534   2.683   4.836   1.857
10526TIP3    H131535   2.701   4.886   1.937
10526TIP3    H231536   2.728   4.752   1.871
10527TIP3   OH231537   4.075   6.299   3.175
10527TIP3    H131538   4.054   6.302   3.268
10527TIP3    H231539   4.015   6.361   3.134
10528TIP3   OH231540   7.094   0.298   2.413
10528TIP3    H131541   7.016   0.251   2.383
10528TIP3    H231542   7.077   0.389   2.388
10529TIP3   OH231543   6.694   5.908   3.511
10529TIP3    H131544   6.753   5.858   3.455
10529TIP3    H231545   6.697   5.862   3.595
10530TIP3   OH231546   2.717   6.420   0.150
10530TIP3    H131547   2.733   6.464   0.233
10530TIP3    H231548   2.767   6.470   0.086
10531TIP3   OH231549   3.303  -0.048   0.187
10531TIP3    H131550   3.258  -0.007   0.262
10531TIP3    H231551   3.395  -0.024   0.198
10532TIP3   OH231552   1.213   4.920   3.195
10532TIP3    H131553   1.183   4.966   3.117
10532TIP3    H231554   1.304   4.946   3.205
10533TIP3   OH231555   7.005   5.898   5.982
10533TIP3    H131556   6.998   5.952   5.904
10533TIP3    H231557   7.025   5.960   6.053
10534TIP3   OH231558   2.493   0.457   6.333
10534TIP3    H131559   2.524   0.506   6.256
10534TIP3    H231560   2.555   0.480   6.402
10535TIP3   OH231561   3.847   2.904   3.431
10535TIP3    H131562   3.785   2.893   3.360
10535TIP3    H231563   3.809   2.858   3.505
10536TIP3   OH231564   0.442   7.068   4.103
10536TIP3    H131565   0.466   7.160   4.098
10536TIP3    H231566   0.369   7.059   4.041
10537TIP3   OH231567   3.551   1.349   5.188
10537TIP3    H131568   3.462   1.381   5.169
10537TIP3    H231569   3.537   1.261   5.222
10538TIP3   OH231570   4.036   7.264   0.037
10538TIP3    H131571   3.945   7.252   0.067
10538TIP3    H231572   4.027   7.296  -0.053
10539TIP3   OH231573   0.547   0.801   5.808
10539TIP3    H131574   0.544   0.706   5.819
10539TIP3    H231575   0.584   0.833   5.891
10540TIP3   OH231576   6.529   0.183   5.877
10540TIP3    H131577   6.541   0.136   5.960
10540TIP3    H231578   6.577   0.265   5.889
10541TIP3   OH231579   1.369   1.523   3.085
10541TIP3    H131580   1.402   1.523   2.994
10541TIP3    H231581   1.334   1.611   3.097
10542TIP3   OH231582   0.780   5.317   1.257
10542TIP3    H131583   0.847   5.273   1.309
10542TIP3    H231584   0.702   5.317   1.313
10543TIP3   OH231585   3.384   2.044   1.080
10543TIP3    H131586   3.334   2.106   1.026
10543TIP3    H231587   3.451   2.098   1.122
10544TIP3   OH231588   2.219   0.012   1.855
10544TIP3    H131589   2.175   0.052   1.930
10544TIP3    H231590   2.272  -0.059   1.893
10545TIP3   OH231591   7.706   5.587   6.319
10545TIP3    H131592   7.746   5.509   6.279
10545TIP3    H231593   7.668   5.555   6.401
10546TIP3   OH231594   6.454   5.016   6.168
10546TIP3    H131595   6.406   5.074   6.227
10546TIP3    H231596   6.388   4.952   6.139
10547TIP3   OH231597   4.956   7.255   3.245
10547TIP3    H131598   5.044   7.261   3.208
10547TIP3    H231599   4.948   7.331   3.302
10548TIP3   OH231600   2.778   5.500   4.156
10548TIP3    H131601   2.781   5.442   4.231
10548TIP3    H231602   2.868   5.503   4.124
10549TIP3   OH231603   3.678   7.490   3.719
10549TIP3    H131604   3.582   7.491   3.722
10549TIP3    H231605   3.702   7.408   3.763
10550TIP3   OH231606   6.041   7.365   4.814
10550TIP3    H131607   6.087   7.365   4.730
10550TIP3    H231608   6.087   7.430   4.867
10551TIP3   OH231609   4.026   3.173   4.314
10551TIP3    H131610   4.051   3.209   4.228
10551TIP3    H231611   3.945   3.126   4.297
10552TIP3   OH231612   6.781   3.105   2.172
10552TIP3    H131613   6.754   3.166   2.242
10552TIP3    H231614   6.876   3.111   2.172
10553TIP3   OH231615   6.149   5.164   4.777
10553TIP3    H131616   6.198   5.085   4.802
10553TIP3    H231617   6.068   5.160   4.829
10554TIP3   OH231618   6.159   4.713   5.640
10554TIP3    H131619   6.093   4.644   5.630
10554TIP3    H231620   6.112   4.794   5.621
10555TIP3   OH231621   3.029   1.409   2.363
10555TIP3    H131622   3.109   1.370   2.399
10555TIP3    H231623   3.016   1.363   2.280
10556TIP3   OH231624   2.089   7.485   3.968
10556TIP3    H131625   2.109   7.567   4.013
10556TIP3    H231626   2.007   7.502   3.921
10557TIP3   OH231627   4.517   7.003   2.683
10557TIP3    H131628   4.425   7.023   2.664
10557TIP3    H231629   4.559   6.997   2.597
10558TIP3   OH231630   8.064   3.819   3.001
10558TIP3    H131631   8.067   3.813   3.097
10558TIP3    H231632   7.974   3.798   2.978
10559TIP3   OH231633   5.546   6.229   0.536
10559TIP3    H131634   5.516   6.154   0.587
10559TIP3    H231635   5.479   6.297   0.551
10560TIP3   OH231636   6.289   3.772   6.090
10560TIP3    H131637   6.256   3.805   6.007
10560TIP3    H231638   6.317   3.851   6.137
10561TIP3   OH231639   0.314   0.075   5.127
10561TIP3    H131640   0.316   0.032   5.212
10561TIP3    H231641   0.405   0.074   5.097
10562TIP3   OH231642   0.786   5.183   5.680
10562TIP3    H131643   0.794   5.207   5.588
10562TIP3    H231644   0.709   5.233   5.710
10563TIP3   OH231645   5.027   1.390   4.869
10563TIP3    H131646   5.046   1.480   4.895
10563TIP3    H231647   5.106   1.341   4.892
10564TIP3   OH231648   4.914   0.421   1.591
10564TIP3    H131649   4.982   0.355   1.574
10564TIP3    H231650   4.940   0.497   1.539
10565TIP3   OH231651   3.023   6.947   6.491
10565TIP3    H131652   3.084   6.878   6.517
10565TIP3    H231653   2.969   6.961   6.569
10566TIP3   OH231654   4.343   4.343   0.362
10566TIP3    H131655   4.248   4.351   0.366
10566TIP3    H231656   4.375   4.433   0.358
10567TIP3   OH231657   0.533   2.906   4.376
10567TIP3    H131658   0.518   2.941   4.464
10567TIP3    H231659   0.528   2.982   4.319
10568TIP3   OH231660   6.263  -0.024   3.227
10568TIP3    H131661   6.213   0.045   3.270
10568TIP3    H231662   6.268   0.003   3.135
10569TIP3   OH231663   0.510   1.090   2.905
10569TIP3    H131664   0.471   1.173   2.880
10569TIP3    H231665   0.604   1.106   2.905
10570TIP3   OH231666   1.574   4.869   1.522
10570TIP3    H131667   1.621   4.952   1.514
10570TIP3    H231668   1.610   4.815   1.452
10571TIP3   OH231669   3.480   0.301   0.532
10571TIP3    H131670   3.546   0.304   0.463
10571TIP3    H231671   3.531   0.298   0.613
10572TIP3   OH231672   8.062   6.510   3.836
10572TIP3    H131673   8.013   6.591   3.842
10572TIP3    H231674   8.019   6.450   3.897
10573TIP3   OH231675   0.736   7.471   1.583
10573TIP3    H131676   0.741   7.563   1.608
10573TIP3    H231677   0.642   7.454   1.576
10574TIP3   OH231678   4.296   4.629   5.730
10574TIP3    H131679   4.228   4.642   5.664
10574TIP3    H231680   4.303   4.534   5.739
10575TIP3   OH231681   3.215   7.248   4.546
10575TIP3    H131682   3.170   7.215   4.468
10575TIP3    H231683   3.293   7.292   4.511
10576TIP3   OH231684   4.429   5.604   5.410
10576TIP3    H131685   4.517   5.619   5.373
10576TIP3    H231686   4.380   5.566   5.337
10577TIP3   OH231687   4.753   0.846   2.665
10577TIP3    H131688   4.838   0.804   2.680
10577TIP3    H231689   4.733   0.830   2.573
10578TIP3   OH231690   7.409   2.270   4.552
10578TIP3    H131691   7.448   2.305   4.633
10578TIP3    H231692   7.482   2.228   4.507
10579TIP3   OH231693   6.865   6.066   4.453
10579TIP3    H131694   6.807   6.118   4.510
10579TIP3    H231695   6.953   6.092   4.479
10580TIP3   OH231696   6.533   6.189   4.864
10580TIP3    H131697   6.541   6.198   4.959
10580TIP3    H231698   6.623   6.178   4.833
10581TIP3   OH231699   6.734   2.821   5.842
10581TIP3    H131700   6.756   2.906   5.805
10581TIP3    H231701   6.639   2.824   5.855
10582TIP3   OH231702   0.350   4.512   5.616
10582TIP3    H131703   0.284   4.559   5.668
10582TIP3    H231704   0.409   4.475   5.682
10583TIP3   OH231705   2.476   3.199   1.001
10583TIP3    H131706   2.486   3.260   1.074
10583TIP3    H231707   2.427   3.125   1.038
10584TIP3   OH231708   6.937   5.566   5.669
10584TIP3    H131709   6.886   5.584   5.748
10584TIP3    H231710   7.010   5.513   5.700
10585TIP3   OH231711   5.835   6.097   4.044
10585TIP3    H131712   5.878   6.137   4.118
10585TIP3    H231713   5.750   6.140   4.038
10586TIP3   OH231714   2.421   1.711   5.385
10586TIP3    H131715   2.376   1.638   5.340
10586TIP3    H231716   2.364   1.786   5.370
10587TIP3   OH231717   6.597   1.412   2.867
10587TIP3    H131718   6.575   1.490   2.816
10587TIP3    H231719   6.519   1.356   2.861
10588TIP3   OH231720   2.940   2.826   4.815
10588TIP3    H131721   2.852   2.849   4.784
10588TIP3    H231722   2.936   2.839   4.910
10589TIP3   OH231723   4.312   2.398   3.174
10589TIP3    H131724   4.232   2.359   3.138
10589TIP3    H231725   4.319   2.482   3.130
10590TIP3   OH231726   1.445   0.588   6.437
10590TIP3    H131727   1.518   0.629   6.485
10590TIP3    H231728   1.409   0.659   6.383
10591TIP3   OH231729   0.120   5.020   3.187
10591TIP3    H131730   0.122   5.096   3.245
10591TIP3    H231731   0.039   4.975   3.208
10592TIP3   OH231732   3.997   6.960   5.729
10592TIP3    H131733   4.065   6.928   5.789
10592TIP3    H231734   3.989   7.053   5.750
10593TIP3   OH231735   1.450   5.753   4.435
10593TIP3    H131736   1.407   5.717   4.357
10593TIP3    H231737   1.543   5.729   4.424
10594TIP3   OH231738   7.632   1.046   2.038
10594TIP3    H131739   7.632   0.983   2.109
10594TIP3    H231740   7.539   1.063   2.021
10595TIP3   OH231741   4.738   5.631   4.687
10595TIP3    H131742   4.738   5.660   4.778
10595TIP3    H231743   4.652   5.656   4.653
10596TIP3   OH231744   2.200   6.955   4.346
10596TIP3    H131745   2.199   6.915   4.259
10596TIP3    H231746   2.182   6.883   4.406
10597TIP3   OH231747  -0.013   7.715   4.398
10597TIP3    H131748  -0.033   7.802   4.434
10597TIP3    H231749   0.071   7.727   4.353
10598TIP3   OH231750   3.310   1.394   1.672
10598TIP3    H131751   3.340   1.345   1.748
10598TIP3    H231752   3.382   1.388   1.610
10599TIP3   OH231753   3.021   4.946   6.202
10599TIP3    H131754   3.081   5.007   6.245
10599TIP3    H231755   3.060   4.931   6.116
10600TIP3   OH231756   1.325   3.194   5.367
10600TIP3    H131757   1.411   3.198   5.407
10600TIP3    H231758   1.343   3.183   5.273
10601TIP3   OH231759   4.351   1.985   1.829
10601TIP3    H131760   4.280   2.001   1.890
10601TIP3    H231761   4.399   2.067   1.826
10602TIP3   OH231762   0.265   5.421   2.206
10602TIP3    H131763   0.308   5.356   2.152
10602TIP3    H231764   0.336   5.466   2.251
10603TIP3   OH231765   4.963   1.936   4.443
10603TIP3    H131766   5.055   1.960   4.454
10603TIP3    H231767   4.953   1.925   4.348
10604TIP3   OH231768   6.243   6.611   2.251
10604TIP3    H131769   6.331   6.583   2.278
10604TIP3    H231770   6.219   6.679   2.313
10605TIP3   OH231771   0.875   2.528   6.292
10605TIP3    H131772   0.790   2.538   6.249
10605TIP3    H231773   0.929   2.482   6.228
10606TIP3   OH231774   1.263   4.682   3.055
10606TIP3    H131775   1.283   4.749   3.119
10606TIP3    H231776   1.342   4.674   3.002
10607TIP3   OH231777   2.709   3.216   5.097
10607TIP3    H131778   2.720   3.255   5.011
10607TIP3    H231779   2.700   3.122   5.081
10608TIP3   OH231780   4.715   1.873   0.554
10608TIP3    H131781   4.750   1.820   0.626
10608TIP3    H231782   4.620   1.871   0.567
10609TIP3   OH231783   4.397   2.941   1.978
10609TIP3    H131784   4.341   3.001   2.027
10609TIP3    H231785   4.337   2.872   1.948
10610TIP3   OH231786   6.386   2.725   3.971
10610TIP3    H131787   6.338   2.654   3.928
10610TIP3    H231788   6.432   2.683   4.044
10611TIP3   OH231789   4.947   5.983   6.742
10611TIP3    H131790   4.866   5.990   6.792
10611TIP3    H231791   4.923   6.011   6.654
10612TIP3   OH231792   4.526   3.474   3.084
10612TIP3    H131793   4.519   3.382   3.061
10612TIP3    H231794   4.437   3.500   3.108
10613TIP3   OH231795   5.737   5.532   1.353
10613TIP3    H131796   5.671   5.570   1.411
10613TIP3    H231797   5.820   5.550   1.396
10614TIP3   OH231798   0.541   3.289   6.778
10614TIP3    H131799   0.573   3.341   6.703
10614TIP3    H231800   0.466   3.338   6.810
10615TIP3   OH231801   7.421   1.001   2.280
10615TIP3    H131802   7.370   0.928   2.243
10615TIP3    H231803   7.359   1.074   2.282
10616TIP3   OH231804   5.965   2.069   2.869
10616TIP3    H131805   6.052   2.052   2.832
10616TIP3    H231806   5.956   2.007   2.940
10617TIP3   OH231807   5.145   3.594   3.769
10617TIP3    H131808   5.113   3.533   3.703
10617TIP3    H231809   5.150   3.542   3.849
10618TIP3   OH231810   2.964   4.420   3.362
10618TIP3    H131811   2.885   4.473   3.354
10618TIP3    H231812   3.019   4.448   3.288
10619TIP3   OH231813   0.445   1.507   6.098
10619TIP3    H131814   0.416   1.571   6.163
10619TIP3    H231815   0.539   1.499   6.111
10620TIP3   OH231816   7.083   7.259   1.732
10620TIP3    H131817   7.143   7.328   1.759
10620TIP3    H231818   7.137   7.182   1.720
10621TIP3   OH231819   0.438   6.366   3.860
10621TIP3    H131820   0.510   6.391   3.802
10621TIP3    H231821   0.436   6.435   3.927
10622TIP3   OH231822   5.178   4.676   4.436
10622TIP3    H131823   5.251   4.642   4.385
10622TIP3    H231824   5.217   4.739   4.496
10623TIP3   OH231825   4.840   0.695   4.519
10623TIP3    H131826   4.846   0.686   4.424
10623TIP3    H231827   4.746   0.693   4.537
10624TIP3   OH231828   4.212   0.646   4.823
10624TIP3    H131829   4.295   0.668   4.865
10624TIP3    H231830   4.200   0.713   4.755
10625TIP3   OH231831   6.798   0.067   0.329
10625TIP3    H131832   6.886   0.091   0.300
10625TIP3    H231833   6.813   0.005   0.401
10626TIP3   OH231834   2.946   6.996   1.099
10626TIP3    H131835   3.032   7.032   1.123
10626TIP3    H231836   2.920   6.945   1.176
10627TIP3   OH231837   3.381   6.859   6.335
10627TIP3    H131838   3.463   6.834   6.377
10627TIP3    H231839   3.401   6.940   6.289
10628TIP3   OH231840   7.511   2.424   5.801
10628TIP3    H131841   7.418   2.425   5.777
10628TIP3    H231842   7.557   2.441   5.718
10629TIP3   OH231843   3.574   6.122   5.886
10629TIP3    H131844   3.665   6.121   5.918
10629TIP3    H231845   3.538   6.205   5.919
10630TIP3   OH231846   7.399   2.428   0.988
10630TIP3    H131847   7.307   2.429   0.962
10630TIP3    H231848   7.428   2.338   0.974
10631TIP3   OH231849   6.199   2.015   5.961
10631TIP3    H131850   6.267   1.979   6.018
10631TIP3    H231851   6.117   1.992   6.004
10632TIP3   OH231852   5.228   4.093   3.019
10632TIP3    H131853   5.255   4.011   3.061
10632TIP3    H231854   5.219   4.155   3.091
10633TIP3   OH231855   1.980   6.487   4.605
10633TIP3    H131856   2.023   6.539   4.672
10633TIP3    H231857   1.887   6.508   4.614
10634TIP3   OH231858   7.097   3.216   4.729
10634TIP3    H131859   7.182   3.254   4.750
10634TIP3    H231860   7.104   3.191   4.637
10635TIP3   OH231861   1.943   6.411   2.128
10635TIP3    H131862   2.025   6.427   2.175
10635TIP3    H231863   1.970   6.383   2.041
10636TIP3   OH231864   6.543   6.868   5.029
10636TIP3    H131865   6.583   6.802   4.973
10636TIP3    H231866   6.488   6.920   4.970
10637TIP3   OH231867   5.010   0.688   3.722
10637TIP3    H131868   4.996   0.612   3.665
10637TIP3    H231869   5.008   0.652   3.811
10638TIP3   OH231870   6.023   4.595   6.076
10638TIP3    H131871   6.062   4.682   6.085
10638TIP3    H231872   6.072   4.540   6.137
10639TIP3   OH231873  -0.006   7.566   0.178
10639TIP3    H131874   0.077   7.552   0.133
10639TIP3    H231875  -0.057   7.620   0.118
10640TIP3   OH231876   0.245   2.302   0.113
10640TIP3    H131877   0.242   2.282   0.206
10640TIP3    H231878   0.323   2.357   0.103
10641TIP3   OH231879   2.757   6.538   2.893
10641TIP3    H131880   2.726   6.472   2.955
10641TIP3    H231881   2.750   6.495   2.808
10642TIP3   OH231882   5.371   6.824   5.169
10642TIP3    H131883   5.304   6.880   5.209
10642TIP3    H231884   5.322   6.749   5.134
10643TIP3   OH231885   6.466   7.572   1.706
10643TIP3    H131886   6.489   7.646   1.762
10643TIP3    H231887   6.374   7.554   1.727
10644TIP3   OH231888   4.015   1.222   5.728
10644TIP3    H131889   4.015   1.176   5.813
10644TIP3    H231890   4.085   1.287   5.737
10645TIP3   OH231891   8.225   4.770  -0.035
10645TIP3    H131892   8.144   4.749   0.012
10645TIP3    H231893   8.265   4.840   0.016
10646TIP3   OH231894   0.939   1.371   3.865
10646TIP3    H131895   0.897   1.450   3.897
10646TIP3    H231896   0.868   1.319   3.827
10647TIP3   OH231897   7.449   1.331   2.189
10647TIP3    H131898   7.355   1.316   2.198
10647TIP3    H231899   7.457   1.423   2.164
10648TIP3   OH231900   2.818   6.605   6.713
10648TIP3    H131901   2.752   6.674   6.711
10648TIP3    H231902   2.838   6.587   6.621
10649TIP3   OH231903   7.901   0.130   5.999
10649TIP3    H131904   7.858   0.065   6.055
10649TIP3    H231905   7.848   0.130   5.919
10650TIP3   OH231906   3.534   7.838   0.857
10650TIP3    H131907   3.621   7.879   0.852
10650TIP3    H231908   3.552   7.745   0.843
10651TIP3   OH231909   6.029   4.543   6.416
10651TIP3    H131910   6.114   4.572   6.381
10651TIP3    H231911   6.020   4.589   6.499
10652TIP3   OH231912   8.137   5.555   5.878
10652TIP3    H131913   8.163   5.498   5.950
10652TIP3    H231914   8.047   5.580   5.898
10653TIP3   OH231915   5.858   4.483   0.591
10653TIP3    H131916   5.924   4.551   0.603
10653TIP3    H231917   5.868   4.426   0.667
10654TIP3   OH231918   4.696   4.926   4.183
10654TIP3    H131919   4.689   5.016   4.151
10654TIP3    H231920   4.641   4.876   4.123
10655TIP3   OH231921   4.086   5.236   4.557
10655TIP3    H131922   4.133   5.155   4.578
10655TIP3    H231923   3.996   5.208   4.541
10656TIP3   OH231924   5.369   3.930   4.192
10656TIP3    H131925   5.360   3.842   4.155
10656TIP3    H231926   5.282   3.950   4.226
10657TIP3   OH231927   5.701   5.218   1.964
10657TIP3    H131928   5.645   5.293   1.983
10657TIP3    H231929   5.705   5.169   2.046
10658TIP3   OH231930   4.658   6.670   6.563
10658TIP3    H131931   4.688   6.625   6.642
10658TIP3    H231932   4.577   6.625   6.539
10659TIP3   OH231933   6.278   1.031   1.256
10659TIP3    H131934   6.244   0.968   1.319
10659TIP3    H231935   6.344   0.983   1.207
10660TIP3   OH231936   4.586   4.753   5.814
10660TIP3    H131937   4.660   4.746   5.754
10660TIP3    H231938   4.509   4.738   5.758
10661TIP3   OH231939   5.397   2.504   0.190
10661TIP3    H131940   5.403   2.415   0.224
10661TIP3    H231941   5.382   2.493   0.096
10662TIP3   OH231942   2.809   2.171   2.795
10662TIP3    H131943   2.773   2.259   2.804
10662TIP3    H231944   2.903   2.184   2.789
10663TIP3   OH231945   6.203   1.838   4.939
10663TIP3    H131946   6.173   1.890   5.013
10663TIP3    H231947   6.226   1.902   4.872
10664TIP3   OH231948   0.205   1.968   3.233
10664TIP3    H131949   0.187   1.933   3.146
10664TIP3    H231950   0.249   2.052   3.217
10665TIP3   OH231951   2.408   2.477   2.875
10665TIP3    H131952   2.457   2.455   2.954
10665TIP3    H231953   2.322   2.505   2.907
10666TIP3   OH231954   5.766   5.207   2.551
10666TIP3    H131955   5.776   5.113   2.558
10666TIP3    H231956   5.854   5.240   2.532
10667TIP3   OH231957   1.242   1.094   5.925
10667TIP3    H131958   1.216   1.159   5.859
10667TIP3    H231959   1.244   1.143   6.007
10668TIP3   OH231960   1.630   2.675   5.739
10668TIP3    H131961   1.666   2.754   5.698
10668TIP3    H231962   1.696   2.648   5.802
10669TIP3   OH231963   2.484   4.074   5.696
10669TIP3    H131964   2.449   4.033   5.617
10669TIP3    H231965   2.516   4.159   5.667
10670TIP3   OH231966   3.160   0.886   2.058
10670TIP3    H131967   3.230   0.943   2.027
10670TIP3    H231968   3.118   0.853   1.978
10671TIP3   OH231969   7.801   4.173   6.361
10671TIP3    H131970   7.718   4.125   6.366
10671TIP3    H231971   7.868   4.107   6.377
10672TIP3   OH231972   0.662   6.210   6.185
10672TIP3    H131973   0.569   6.206   6.163
10672TIP3    H231974   0.665   6.258   6.268
10673TIP3   OH231975   1.715   1.807   0.868
10673TIP3    H131976   1.800   1.766   0.856
10673TIP3    H231977   1.679   1.765   0.946
10674TIP3   OH231978   4.756   6.314   0.471
10674TIP3    H131979   4.724   6.238   0.519
10674TIP3    H231980   4.686   6.337   0.410
10675TIP3   OH231981   7.977   7.149   0.330
10675TIP3    H131982   8.025   7.227   0.302
10675TIP3    H231983   7.923   7.179   0.403
10676TIP3   OH231984   6.464   3.548   6.092
10676TIP3    H131985   6.418   3.631   6.103
10676TIP3    H231986   6.455   3.504   6.177
10677TIP3   OH231987   0.804   3.038   1.604
10677TIP3    H131988   0.800   3.049   1.699
10677TIP3    H231989   0.733   2.978   1.583
10678TIP3   OH231990   6.432   0.294   4.750
10678TIP3    H131991   6.454   0.202   4.765
10678TIP3    H231992   6.338   0.294   4.733
10679TIP3   OH231993   3.566   2.028   6.743
10679TIP3    H131994   3.531   1.944   6.712
10679TIP3    H231995   3.661   2.016   6.743
10680TIP3   OH231996   5.676   3.576   5.943
10680TIP3    H131997   5.634   3.493   5.966
10680TIP3    H231998   5.686   3.573   5.848
10681TIP3   OH231999   3.178   6.584   4.967
10681TIP3    H132000   3.134   6.499   4.969
10681TIP3    H232001   3.271   6.564   4.979
10682TIP3   OH232002   1.535   6.604   5.735
10682TIP3    H132003   1.630   6.605   5.750
10682TIP3    H232004   1.502   6.679   5.785
10683TIP3   OH232005   0.614   7.000   4.942
10683TIP3    H132006   0.660   6.917   4.933
10683TIP3    H232007   0.529   6.985   4.900
10684TIP3   OH232008   0.705   6.868   3.041
10684TIP3    H132009   0.772   6.899   2.980
10684TIP3    H232010   0.749   6.800   3.092
10685TIP3   OH232011   1.834   3.647   5.284
10685TIP3    H132012   1.747   3.614   5.307
10685TIP3    H232013   1.822   3.742   5.278
10686TIP3   OH232014   7.586   1.906   1.905
10686TIP3    H132015   7.569   1.998   1.927
10686TIP3    H232016   7.502   1.874   1.871
10687TIP3   OH232017   5.849   4.963   3.576
10687TIP3    H132018   5.795   4.917   3.641
10687TIP3    H232019   5.892   5.033   3.626
10688TIP3   OH232020   8.266   5.532   4.455
10688TIP3    H132021   8.231   5.498   4.538
10688TIP3    H232022   8.223   5.480   4.388
10689TIP3   OH232023   6.170   2.871   3.075
10689TIP3    H132024   6.097   2.907   3.125
10689TIP3    H232025   6.197   2.794   3.124
10690TIP3   OH232026   2.550   3.887   2.636
10690TIP3    H132027   2.468   3.930   2.661
10690TIP3    H232028   2.564   3.912   2.545
10691TIP3   OH232029   1.685   2.081   0.205
10691TIP3    H132030   1.738   2.032   0.269
10691TIP3    H232031   1.700   2.173   0.227
10692TIP3   OH232032   5.071   0.690   0.784
10692TIP3    H132033   5.074   0.659   0.693
10692TIP3    H232034   5.059   0.785   0.776
10693TIP3   OH232035   5.994   5.038   4.250
10693TIP3    H132036   5.983   5.085   4.333
10693TIP3    H232037   6.088   5.037   4.236
10694TIP3   OH232038   1.476   7.097   5.993
10694TIP3    H132039   1.387   7.111   6.026
10694TIP3    H232040   1.475   7.134   5.905
10695TIP3   OH232041   4.323   1.216   2.106
10695TIP3    H132042   4.355   1.275   2.038
10695TIP3    H232043   4.231   1.203   2.086
10696TIP3   OH232044   3.489   0.738   5.588
10696TIP3    H132045   3.495   0.711   5.679
10696TIP3    H232046   3.458   0.659   5.542
10697TIP3   OH232047   5.751   6.629   4.265
10697TIP3    H132048   5.826   6.687   4.254
10697TIP3    H232049   5.744   6.583   4.181
10698TIP3   OH232050   3.677   4.226   3.601
10698TIP3    H132051   3.612   4.193   3.662
10698TIP3    H232052   3.630   4.235   3.518
10699TIP3   OH232053   4.260   5.251   5.395
10699TIP3    H132054   4.167   5.269   5.407
10699TIP3    H232055   4.263   5.186   5.324
10700TIP3   OH232056   4.270   0.674   6.063
10700TIP3    H132057   4.190   0.657   6.013
10700TIP3    H232058   4.327   0.600   6.043
10701TIP3   OH232059   2.882   4.884   4.719
10701TIP3    H132060   2.915   4.833   4.646
10701TIP3    H232061   2.925   4.969   4.710
10702TIP3   OH232062   2.588   2.591   6.371
10702TIP3    H132063   2.502   2.550   6.372
10702TIP3    H232064   2.587   2.647   6.293
10703TIP3   OH232065   6.303   7.217   0.623
10703TIP3    H132066   6.247   7.288   0.654
10703TIP3    H232067   6.250   7.138   0.634
10704TIP3   OH232068   2.424   4.571   5.207
10704TIP3    H132069   2.467   4.487   5.188
10704TIP3    H232070   2.421   4.616   5.123
10705TIP3   OH232071   4.734   2.983   5.999
10705TIP3    H132072   4.653   2.946   6.035
10705TIP3    H232073   4.764   2.918   5.935
10706TIP3   OH232074   0.713   1.250   1.484
10706TIP3    H132075   0.769   1.328   1.486
10706TIP3    H232076   0.707   1.227   1.391
10707TIP3   OH232077   6.116   1.073   0.628
10707TIP3    H132078   6.038   1.117   0.593
10707TIP3    H232079   6.106   0.982   0.601
10708TIP3   OH232080   4.064   5.579   1.636
10708TIP3    H132081   4.003   5.653   1.636
10708TIP3    H232082   4.150   5.619   1.645
10709TIP3   OH232083   2.956   1.623   0.719
10709TIP3    H132084   3.047   1.627   0.749
10709TIP3    H232085   2.961   1.592   0.629
10710TIP3   OH232086   3.931   0.651   6.074
10710TIP3    H132087   4.006   0.625   6.127
10710TIP3    H232088   3.874   0.699   6.134
10711TIP3   OH232089   4.771   2.557   4.926
10711TIP3    H132090   4.833   2.560   4.852
10711TIP3    H232091   4.688   2.587   4.889
10712TIP3   OH232092   5.645   1.200   3.680
10712TIP3    H132093   5.701   1.123   3.686
10712TIP3    H232094   5.559   1.165   3.657
10713TIP3   OH232095   6.587   3.309   4.110
10713TIP3    H132096   6.526   3.315   4.184
10713TIP3    H232097   6.673   3.312   4.150
10714TIP3   OH232098   6.209   0.398   6.184
10714TIP3    H132099   6.270   0.405   6.110
10714TIP3    H232100   6.168   0.312   6.173
10715TIP3   OH232101   5.839   6.508   3.393
10715TIP3    H132102   5.865   6.504   3.485
10715TIP3    H232103   5.752   6.547   3.394
10716TIP3   OH232104   4.255   1.702   1.848
10716TIP3    H132105   4.231   1.680   1.938
10716TIP3    H232106   4.293   1.790   1.854
10717TIP3   OH232107   2.627   2.757   6.139
10717TIP3    H132108   2.682   2.829   6.109
10717TIP3    H232109   2.543   2.798   6.158
10718TIP3   OH232110   7.962   6.556   4.842
10718TIP3    H132111   8.034   6.542   4.904
10718TIP3    H232112   7.944   6.650   4.846
10719TIP3   OH232113   1.280   1.539   3.385
10719TIP3    H132114   1.303   1.528   3.293
10719TIP3    H232115   1.276   1.450   3.420
10720TIP3   OH232116   0.748   5.509   4.981
10720TIP3    H132117   0.682   5.534   5.046
10720TIP3    H232118   0.800   5.588   4.968
10721TIP3   OH232119   6.635   5.650   1.792
10721TIP3    H132120   6.603   5.733   1.826
10721TIP3    H232121   6.585   5.584   1.840
10722TIP3   OH232122   2.087   7.036   5.252
10722TIP3    H132123   2.084   6.940   5.246
10722TIP3    H232124   2.035   7.066   5.177
10723TIP3   OH232125   1.794   2.459   1.374
10723TIP3    H132126   1.866   2.452   1.312
10723TIP3    H232127   1.817   2.399   1.445
10724TIP3   OH232128   7.416   7.687   2.629
10724TIP3    H132129   7.489   7.742   2.658
10724TIP3    H232130   7.367   7.742   2.568
10725TIP3   OH232131   3.108   2.540   0.113
10725TIP3    H132132   3.087   2.452   0.143
10725TIP3    H232133   3.162   2.526   0.035
10726TIP3   OH232134   4.808   3.906   3.512
10726TIP3    H132135   4.783   3.893   3.420
10726TIP3    H232136   4.876   3.841   3.527
10727TIP3   OH232137   6.980   7.223   4.102
10727TIP3    H132138   6.947   7.302   4.060
10727TIP3    H232139   7.064   7.206   4.058
10728TIP3   OH232140   4.552   5.835   4.863
10728TIP3    H132141   4.511   5.881   4.790
10728TIP3    H232142   4.488   5.769   4.889
10729TIP3   OH232143   7.147   2.805   0.863
10729TIP3    H132144   7.139   2.753   0.784
10729TIP3    H232145   7.207   2.756   0.919
10730TIP3   OH232146   1.685   2.081   2.578
10730TIP3    H132147   1.724   2.072   2.665
10730TIP3    H232148   1.721   2.007   2.529
10731TIP3   OH232149   7.099   6.340   5.804
10731TIP3    H132150   7.105   6.324   5.709
10731TIP3    H232151   7.081   6.255   5.842
10732TIP3   OH232152   2.054   0.678   6.541
10732TIP3    H132153   2.136   0.694   6.494
10732TIP3    H232154   2.081   0.627   6.618
10733TIP3   OH232155   1.874   0.328   2.985
10733TIP3    H132156   1.909   0.284   2.908
10733TIP3    H232157   1.929   0.297   3.058
10734TIP3   OH232158   2.732   1.896   2.853
10734TIP3    H132159   2.740   1.991   2.863
10734TIP3    H232160   2.816   1.862   2.883
10735TIP3   OH232161   2.086   4.464   5.695
10735TIP3    H132162   2.181   4.451   5.698
10735TIP3    H232163   2.074   4.544   5.644
10736TIP3   OH232164   1.428   5.947   6.405
10736TIP3    H132165   1.421   6.033   6.446
10736TIP3    H232166   1.347   5.902   6.429
10737TIP3   OH232167   2.514   3.945   3.200
10737TIP3    H132168   2.466   3.877   3.152
10737TIP3    H232169   2.519   4.018   3.139
10738TIP3   OH232170   3.422   2.270   3.871
10738TIP3    H132171   3.404   2.260   3.965
10738TIP3    H232172   3.354   2.217   3.829
10739TIP3   OH232173   3.351   5.361   4.346
10739TIP3    H132174   3.357   5.284   4.403
10739TIP3    H232175   3.425   5.416   4.373
10740TIP3   OH232176   5.774   7.232   4.509
10740TIP3    H132177   5.813   7.172   4.573
10740TIP3    H232178   5.838   7.238   4.439
10741TIP3   OH232179   2.686   7.697   0.143
10741TIP3    H132180   2.776   7.721   0.122
10741TIP3    H232181   2.633   7.768   0.106
10742TIP3   OH232182   6.628   5.611  -0.006
10742TIP3    H132183   6.655   5.701   0.012
10742TIP3    H232184   6.612   5.609  -0.101
10743TIP3   OH232185   6.550   6.820   0.831
10743TIP3    H132186   6.484   6.816   0.762
10743TIP3    H232187   6.501   6.849   0.908
10744TIP3   OH232188   5.396   6.212   1.059
10744TIP3    H132189   5.364   6.301   1.051
10744TIP3    H232190   5.491   6.221   1.069
10745TIP3   OH232191   4.289   5.868   0.137
10745TIP3    H132192   4.292   5.856   0.042
10745TIP3    H232193   4.320   5.784   0.173
10746TIP3   OH232194   2.979   6.992   0.456
10746TIP3    H132195   2.937   6.915   0.419
10746TIP3    H232196   3.066   6.962   0.483
10747TIP3   OH232197   1.150   5.066   2.992
10747TIP3    H132198   1.108   5.150   2.969
10747TIP3    H232199   1.215   5.053   2.923
10748TIP3   OH232200   1.075   2.256   5.560
10748TIP3    H132201   1.083   2.209   5.643
10748TIP3    H232202   1.129   2.206   5.499
10749TIP3   OH232203   0.840   6.760   2.624
10749TIP3    H132204   0.867   6.755   2.716
10749TIP3    H232205   0.753   6.722   2.622
10750TIP3   OH232206   2.081   5.071   2.007
10750TIP3    H132207   2.166   5.027   2.015
10750TIP3    H232208   2.017   5.000   2.009
10751TIP3   OH232209   4.429   3.213   3.182
10751TIP3    H132210   4.413   3.163   3.262
10751TIP3    H232211   4.357   3.276   3.178
10752TIP3   OH232212   3.658   6.212   2.724
10752TIP3    H132213   3.565   6.204   2.701
10752TIP3    H232214   3.704   6.212   2.641
10753TIP3   OH232215   5.617   0.937   2.716
10753TIP3    H132216   5.571   0.971   2.792
10753TIP3    H232217   5.646   0.850   2.742
10754TIP3   OH232218   6.660   5.207   2.258
10754TIP3    H132219   6.567   5.195   2.238
10754TIP3    H232220   6.665   5.204   2.353
10755TIP3   OH232221   6.680   4.073   5.090
10755TIP3    H132222   6.773   4.091   5.099
10755TIP3    H232223   6.675   3.999   5.030
10756TIP3   OH232224   6.329   3.076   4.900
10756TIP3    H132225   6.308   3.097   4.809
10756TIP3    H232226   6.251   3.031   4.933
10757TIP3   OH232227   6.569   7.150   0.584
10757TIP3    H132228   6.483   7.187   0.566
10757TIP3    H232229   6.569   7.066   0.538
10758TIP3   OH232230   6.434   5.455   0.126
10758TIP3    H132231   6.449   5.544   0.094
10758TIP3    H232232   6.398   5.409   0.050
10759TIP3   OH232233   4.084   1.930   2.374
10759TIP3    H132234   4.030   1.971   2.442
10759TIP3    H232235   4.112   2.002   2.318
10760TIP3   OH232236   4.628   2.827   0.581
10760TIP3    H132237   4.567   2.871   0.522
10760TIP3    H232238   4.601   2.856   0.668
10761TIP3   OH232239   1.267   6.428   6.361
10761TIP3    H132240   1.318   6.450   6.282
10761TIP3    H232241   1.176   6.447   6.336
10762TIP3   OH232242   2.058   3.419   3.578
10762TIP3    H132243   2.121   3.465   3.522
10762TIP3    H232244   2.055   3.330   3.543
10763TIP3   OH232245   7.634   1.324   6.232
10763TIP3    H132246   7.725   1.297   6.236
10763TIP3    H232247   7.628   1.400   6.290
10764TIP3   OH232248   1.459   4.274   1.053
10764TIP3    H132249   1.460   4.323   1.136
10764TIP3    H232250   1.408   4.195   1.072
10765TIP3   OH232251   3.403   4.052   1.145
10765TIP3    H132252   3.339   3.992   1.109
10765TIP3    H232253   3.423   4.017   1.232
10766TIP3   OH232254   0.955   2.387   0.966
10766TIP3    H132255   1.046   2.400   0.993
10766TIP3    H232256   0.949   2.430   0.881
10767TIP3   OH232257   3.040   6.355   0.197
10767TIP3    H132258   3.008   6.356   0.287
10767TIP3    H232259   3.038   6.446   0.169
10768TIP3   OH232260   4.019   4.948   0.686
10768TIP3    H132261   4.110   4.918   0.688
10768TIP3    H232262   3.993   4.939   0.594
10769TIP3   OH232263   2.999   1.713   1.339
10769TIP3    H132264   2.937   1.673   1.399
10769TIP3    H232265   3.019   1.798   1.379
10770TIP3   OH232266   1.488   6.507   4.259
10770TIP3    H132267   1.564   6.472   4.307
10770TIP3    H232268   1.517   6.593   4.229
10771TIP3   OH232269   6.634   7.853   5.025
10771TIP3    H132270   6.663   7.851   5.116
10771TIP3    H232271   6.627   7.761   5.000
10772TIP3   OH232272   8.173   3.929   4.508
10772TIP3    H132273   8.111   3.969   4.447
10772TIP3    H232274   8.249   3.907   4.454
10773TIP3   OH232275   2.308   7.173   6.524
10773TIP3    H132276   2.215   7.188   6.542
10773TIP3    H232277   2.328   7.233   6.452
10774TIP3   OH232278   6.322   4.226   2.170
10774TIP3    H132279   6.287   4.220   2.259
10774TIP3    H232280   6.413   4.253   2.181
10775TIP3   OH232281   4.320   1.024   4.929
10775TIP3    H132282   4.280   1.059   4.849
10775TIP3    H232283   4.328   0.930   4.913
10776TIP3   OH232284   7.591   7.396   4.512
10776TIP3    H132285   7.678   7.360   4.528
10776TIP3    H232286   7.576   7.380   4.418
10777TIP3   OH232287   1.391   4.189   5.683
10777TIP3    H132288   1.481   4.217   5.700
10777TIP3    H232289   1.399   4.102   5.644
10778TIP3   OH232290   7.805   3.362   0.033
10778TIP3    H132291   7.759   3.284   0.004
10778TIP3    H232292   7.785   3.368   0.127
10779TIP3   OH232293   4.598   0.448   6.446
10779TIP3    H132294   4.603   0.461   6.352
10779TIP3    H232295   4.512   0.409   6.461
10780TIP3   OH232296   4.798   3.788   3.234
10780TIP3    H132297   4.800   3.698   3.201
10780TIP3    H232298   4.846   3.839   3.169
10781TIP3   OH232299   7.630   2.646   6.777
10781TIP3    H132300   7.622   2.598   6.695
10781TIP3    H232301   7.722   2.668   6.784
10782TIP3   OH232302   8.105   3.016   6.102
10782TIP3    H132303   8.102   2.929   6.142
10782TIP3    H232304   8.031   3.017   6.041
10783TIP3   OH232305   5.765   6.166   2.953
10783TIP3    H132306   5.797   6.195   2.868
10783TIP3    H232307   5.684   6.215   2.967
10784TIP3   OH232308   5.129   4.637   5.968
10784TIP3    H132309   5.120   4.692   6.046
10784TIP3    H232310   5.054   4.661   5.913
10785TIP3   OH232311   5.767   3.299   4.786
10785TIP3    H132312   5.735   3.380   4.745
10785TIP3    H232313   5.862   3.314   4.796
10786TIP3   OH232314   1.970   4.011   6.583
10786TIP3    H132315   2.043   3.978   6.635
10786TIP3    H232316   1.989   3.982   6.494
10787TIP3   OH232317   4.409   2.095   2.436
10787TIP3    H132318   4.366   2.088   2.351
10787TIP3    H232319   4.483   2.153   2.421
10788TIP3   OH232320   4.709   4.297   1.903
10788TIP3    H132321   4.747   4.267   1.985
10788TIP3    H232322   4.768   4.262   1.835
10789TIP3   OH232323   6.608   5.987   1.378
10789TIP3    H132324   6.614   6.048   1.451
10789TIP3    H232325   6.699   5.973   1.351
10790TIP3   OH232326   5.501   3.852   1.813
10790TIP3    H132327   5.418   3.900   1.815
10790TIP3    H232328   5.474   3.760   1.819
10791TIP3   OH232329   1.288   3.723   2.914
10791TIP3    H132330   1.238   3.700   2.992
10791TIP3    H232331   1.222   3.733   2.846
10792TIP3   OH232332   3.963   4.216   0.156
10792TIP3    H132333   3.961   4.269   0.236
10792TIP3    H232334   4.050   4.233   0.119
10793TIP3   OH232335   7.721   6.496   4.664
10793TIP3    H132336   7.689   6.580   4.631
10793TIP3    H232337   7.779   6.520   4.736
10794TIP3   OH232338   5.314   3.640   4.384
10794TIP3    H132339   5.243   3.692   4.346
10794TIP3    H232340   5.386   3.649   4.322
10795TIP3   OH232341   5.462   0.419   3.208
10795TIP3    H132342   5.471   0.491   3.271
10795TIP3    H232343   5.527   0.354   3.236
10796TIP3   OH232344   6.682   6.354   6.496
10796TIP3    H132345   6.674   6.304   6.577
10796TIP3    H232346   6.654   6.293   6.427
10797TIP3   OH232347   7.795   7.446   4.809
10797TIP3    H132348   7.831   7.432   4.722
10797TIP3    H232349   7.872   7.455   4.866
10798TIP3   OH232350   0.533   2.115   4.812
10798TIP3    H132351   0.505   2.188   4.757
10798TIP3    H232352   0.604   2.073   4.763
10799TIP3   OH232353   4.790   3.924   4.350
10799TIP3    H132354   4.723   3.963   4.406
10799TIP3    H232355   4.771   3.957   4.262
10800TIP3   OH232356   5.510   6.997   6.424
10800TIP3    H132357   5.585   6.964   6.473
10800TIP3    H232358   5.548   7.038   6.347
10801TIP3   OH232359   0.922   0.693   6.321
10801TIP3    H132360   0.990   0.689   6.253
10801TIP3    H232361   0.963   0.740   6.393
10802TIP3   OH232362   0.268   3.094   0.057
10802TIP3    H132363   0.206   3.088  -0.016
10802TIP3    H232364   0.312   3.009   0.058
10803TIP3   OH232365   4.550   5.975   3.083
10803TIP3    H132366   4.463   5.947   3.055
10803TIP3    H232367   4.536   6.057   3.129
10804TIP3   OH232368   1.377   1.778   2.352
10804TIP3    H132369   1.317   1.790   2.427
10804TIP3    H232370   1.453   1.734   2.390
10805TIP3   OH232371   3.087   4.071   5.342
10805TIP3    H132372   3.073   4.015   5.419
10805TIP3    H232373   3.117   4.010   5.274
10806TIP3   OH232374   0.472   5.158   3.427
10806TIP3    H132375   0.457   5.181   3.336
10806TIP3    H232376   0.513   5.071   3.423
10807TIP3   OH232377   5.018   3.363   2.721
10807TIP3    H132378   5.018   3.284   2.667
10807TIP3    H232379   5.090   3.416   2.686
10808TIP3   OH232380   5.098   5.527   5.482
10808TIP3    H132381   5.156   5.481   5.421
10808TIP3    H232382   5.010   5.510   5.450
10809TIP3   OH232383   0.830   4.986   2.328
10809TIP3    H132384   0.818   4.961   2.237
10809TIP3    H232385   0.925   4.987   2.340
10810TIP3   OH232386   3.847   0.916   1.571
10810TIP3    H132387   3.787   0.867   1.626
10810TIP3    H232388   3.914   0.950   1.631
10811TIP3   OH232389   0.611   6.499   1.937
10811TIP3    H132390   0.574   6.534   2.019
10811TIP3    H232391   0.611   6.404   1.949
10812TIP3   OH232392   0.022   5.097   2.930
10812TIP3    H132393   0.074   5.049   2.994
10812TIP3    H232394  -0.029   5.030   2.885
10813TIP3   OH232395   0.080   1.556   0.746
10813TIP3    H132396   0.065   1.546   0.652
10813TIP3    H232397   0.170   1.526   0.760
10814TIP3   OH232398   1.937   7.069   0.378
10814TIP3    H132399   1.984   7.017   0.313
10814TIP3    H232400   1.893   7.004   0.433
10815TIP3   OH232401   7.363   6.284   6.343
10815TIP3    H132402   7.347   6.370   6.303
10815TIP3    H232403   7.390   6.304   6.433
10816TIP3   OH232404   6.399   2.139   4.074
10816TIP3    H132405   6.431   2.065   4.126
10816TIP3    H232406   6.451   2.214   4.103
10817TIP3   OH232407   4.722   1.445   1.858
10817TIP3    H132408   4.684   1.471   1.774
10817TIP3    H232409   4.653   1.461   1.922
10818TIP3   OH232410   2.680   5.988   0.763
10818TIP3    H132411   2.691   6.013   0.672
10818TIP3    H232412   2.585   5.989   0.777
10819TIP3   OH232413   7.185   1.524   6.368
10819TIP3    H132414   7.253   1.588   6.347
10819TIP3    H232415   7.103   1.567   6.343
10820TIP3   OH232416   5.993   2.029   3.843
10820TIP3    H132417   6.002   1.992   3.931
10820TIP3    H232418   6.004   1.954   3.785
10821TIP3   OH232419   5.704   0.238   4.591
10821TIP3    H132420   5.623   0.288   4.597
10821TIP3    H232421   5.680   0.149   4.615
10822TIP3   OH232422   2.154   6.917   0.974
10822TIP3    H132423   2.103   6.885   0.900
10822TIP3    H232424   2.196   6.997   0.941
10823TIP3   OH232425   7.371   7.046   2.131
10823TIP3    H132426   7.304   7.041   2.062
10823TIP3    H232427   7.327   7.015   2.210
10824TIP3   OH232428   4.117   4.836   3.834
10824TIP3    H132429   4.167   4.783   3.896
10824TIP3    H232430   4.150   4.810   3.748
10825TIP3   OH232431   0.325   1.874   0.010
10825TIP3    H132432   0.320   1.779   0.020
10825TIP3    H232433   0.375   1.904   0.086
10826TIP3   OH232434   2.733   5.993   3.283
10826TIP3    H132435   2.753   6.086   3.270
10826TIP3    H232436   2.686   5.967   3.204
10827TIP3   OH232437   4.887   7.101   0.741
10827TIP3    H132438   4.890   7.054   0.825
10827TIP3    H232439   4.950   7.054   0.686
10828TIP3   OH232440   1.541   6.705   1.381
10828TIP3    H132441   1.623   6.721   1.333
10828TIP3    H232442   1.525   6.788   1.427
10829TIP3   OH232443   4.618   5.256   5.220
10829TIP3    H132444   4.525   5.252   5.197
10829TIP3    H232445   4.654   5.325   5.165
10830TIP3   OH232446   6.914   1.161   6.027
10830TIP3    H132447   6.874   1.182   6.112
10830TIP3    H232448   6.913   1.066   6.024
10831TIP3   OH232449   3.500   6.243   1.013
10831TIP3    H132450   3.405   6.236   1.028
10831TIP3    H232451   3.536   6.267   1.098
10832TIP3   OH232452   6.585   0.723   2.879
10832TIP3    H132453   6.545   0.687   2.800
10832TIP3    H232454   6.679   0.712   2.866
10833TIP3   OH232455   7.093   7.311   3.266
10833TIP3    H132456   7.147   7.351   3.334
10833TIP3    H232457   7.154   7.294   3.194
10834TIP3   OH232458   6.602   7.306   4.102
10834TIP3    H132459   6.540   7.346   4.163
10834TIP3    H232460   6.600   7.364   4.025
10835TIP3   OH232461   2.274   0.986   0.237
10835TIP3    H132462   2.215   0.944   0.174
10835TIP3    H232463   2.270   1.079   0.215
10836TIP3   OH232464   4.087   4.666   0.474
10836TIP3    H132465   4.088   4.604   0.547
10836TIP3    H232466   4.157   4.728   0.494
10837TIP3   OH232467   6.302   1.737   2.829
10837TIP3    H132468   6.208   1.749   2.819
10837TIP3    H232469   6.329   1.808   2.886
10838TIP3   OH232470   6.995   1.496   3.847
10838TIP3    H132471   6.915   1.494   3.899
10838TIP3    H232472   6.992   1.416   3.794
10839TIP3   OH232473   1.069   3.165   3.721
10839TIP3    H132474   1.115   3.249   3.714
10839TIP3    H232475   1.083   3.138   3.812
10840TIP3   OH232476   0.420   2.814   6.664
10840TIP3    H132477   0.401   2.722   6.684
10840TIP3    H232478   0.494   2.810   6.603
10841TIP3   OH232479   4.384   2.466   5.564
10841TIP3    H132480   4.291   2.488   5.569
10841TIP3    H232481   4.386   2.371   5.563
10842TIP3   OH232482   6.950   3.323   5.080
10842TIP3    H132483   6.929   3.284   4.995
10842TIP3    H232484   6.882   3.289   5.138
10843TIP3   OH232485   7.589   0.942   3.998
10843TIP3    H132486   7.642   1.011   3.959
10843TIP3    H232487   7.634   0.860   3.976
10844TIP3   OH232488   2.722   4.266   3.897
10844TIP3    H132489   2.757   4.333   3.838
10844TIP3    H232490   2.663   4.315   3.955
10845TIP3   OH232491   5.009   2.971   2.772
10845TIP3    H132492   4.989   3.039   2.707
10845TIP3    H232493   5.086   2.926   2.736
10846TIP3   OH232494   5.597   2.433   2.401
10846TIP3    H132495   5.635   2.494   2.339
10846TIP3    H232496   5.625   2.346   2.372
10847TIP3   OH232497   0.585   4.588   0.738
10847TIP3    H132498   0.645   4.625   0.673
10847TIP3    H232499   0.641   4.560   0.810
10848TIP3   OH232500   2.753   4.990   2.817
10848TIP3    H132501   2.684   5.042   2.858
10848TIP3    H232502   2.813   5.054   2.779
10849TIP3   OH232503   0.268   5.823   5.125
10849TIP3    H132504   0.337   5.787   5.069
10849TIP3    H232505   0.223   5.747   5.160
10850TIP3   OH232506   2.480   3.910   3.522
10850TIP3    H132507   2.547   3.906   3.454
10850TIP3    H232508   2.399   3.930   3.475
10851TIP3   OH232509   0.219   4.278   1.922
10851TIP3    H132510   0.287   4.216   1.950
10851TIP3    H232511   0.258   4.364   1.940
10852TIP3   OH232512   4.474   3.177   5.111
10852TIP3    H132513   4.472   3.097   5.162
10852TIP3    H232514   4.433   3.154   5.028
10853TIP3   OH232515   6.831   5.524   5.431
10853TIP3    H132516   6.853   5.540   5.523
10853TIP3    H232517   6.818   5.429   5.425
10854TIP3   OH232518   1.420   7.639   4.624
10854TIP3    H132519   1.467   7.663   4.544
10854TIP3    H232520   1.350   7.581   4.595
10855TIP3   OH232521   5.798   5.887   2.949
10855TIP3    H132522   5.778   5.980   2.936
10855TIP3    H232523   5.718   5.851   2.988
10856TIP3   OH232524   7.320   7.441   1.726
10856TIP3    H132525   7.255   7.509   1.712
10856TIP3    H232526   7.334   7.402   1.640
10857TIP3   OH232527   0.123   3.062   4.397
10857TIP3    H132528   0.128   3.080   4.303
10857TIP3    H232529   0.166   2.977   4.408
10858TIP3   OH232530   5.550   1.546   1.702
10858TIP3    H132531   5.587   1.571   1.617
10858TIP3    H232532   5.457   1.535   1.685
10859TIP3   OH232533   5.209   4.986   4.383
10859TIP3    H132534   5.122   4.996   4.344
10859TIP3    H232535   5.261   4.944   4.315
10860TIP3   OH232536   0.974   3.377   5.956
10860TIP3    H132537   0.933   3.432   5.890
10860TIP3    H232538   1.047   3.429   5.989
10861TIP3   OH232539   0.303   5.407   3.338
10861TIP3    H132540   0.335   5.325   3.300
10861TIP3    H232541   0.379   5.445   3.381
10862TIP3   OH232542   3.810   6.946   0.128
10862TIP3    H132543   3.747   6.977   0.193
10862TIP3    H232544   3.812   6.851   0.141
10863TIP3   OH232545   3.903   4.878   1.913
10863TIP3    H132546   3.882   4.795   1.956
10863TIP3    H232547   3.821   4.904   1.870
10864TIP3   OH232548   4.445   0.762   4.962
10864TIP3    H132549   4.419   0.757   5.054
10864TIP3    H232550   4.540   0.749   4.963
10865TIP3   OH232551   3.575   5.071   5.668
10865TIP3    H132552   3.517   5.136   5.709
10865TIP3    H232553   3.602   5.014   5.740
10866TIP3   OH232554   3.280   2.296   5.561
10866TIP3    H132555   3.348   2.354   5.597
10866TIP3    H232556   3.225   2.354   5.508
10867TIP3   OH232557   1.411   4.435   5.283
10867TIP3    H132558   1.383   4.520   5.317
10867TIP3    H232559   1.465   4.398   5.353
10868TIP3   OH232560   5.256   3.703   0.224
10868TIP3    H132561   5.313   3.659   0.287
10868TIP3    H232562   5.307   3.707   0.143
10869TIP3   OH232563   3.032   0.386   0.671
10869TIP3    H132564   3.122   0.356   0.682
10869TIP3    H232565   2.987   0.313   0.627
10870TIP3   OH232566   1.308   1.722   2.627
10870TIP3    H132567   1.244   1.757   2.689
10870TIP3    H232568   1.381   1.784   2.629
10871TIP3   OH232569   6.353   1.305   1.274
10871TIP3    H132570   6.367   1.211   1.283
10871TIP3    H232571   6.410   1.331   1.202
10872TIP3   OH232572   7.172   0.241   2.851
10872TIP3    H132573   7.245   0.235   2.789
10872TIP3    H232574   7.160   0.152   2.883
10873TIP3   OH232575   1.355   4.748   2.272
10873TIP3    H132576   1.350   4.743   2.368
10873TIP3    H232577   1.268   4.777   2.245
10874TIP3   OH232578   1.785   1.859   0.360
10874TIP3    H132579   1.832   1.790   0.406
10874TIP3    H232580   1.699   1.862   0.402
10875TIP3   OH232581   0.265   7.427   3.875
10875TIP3    H132582   0.234   7.372   3.804
10875TIP3    H232583   0.323   7.491   3.833
10876TIP3   OH232584   1.028   5.855   2.618
10876TIP3    H132585   1.016   5.840   2.712
10876TIP3    H232586   1.119   5.883   2.610
10877TIP3   OH232587   4.707   2.520   5.712
10877TIP3    H132588   4.775   2.464   5.673
10877TIP3    H232589   4.682   2.579   5.641
10878TIP3   OH232590   6.492   4.753   4.224
10878TIP3    H132591   6.485   4.807   4.303
10878TIP3    H232592   6.586   4.736   4.216
10879TIP3   OH232593   7.745   4.712   3.575
10879TIP3    H132594   7.668   4.702   3.520
10879TIP3    H232595   7.818   4.684   3.520
10880TIP3   OH232596   1.381   6.216   3.150
10880TIP3    H132597   1.408   6.232   3.240
10880TIP3    H232598   1.444   6.263   3.096
10881TIP3   OH232599   2.155   7.201   3.580
10881TIP3    H132600   2.150   7.161   3.493
10881TIP3    H232601   2.104   7.282   3.572
10882TIP3   OH232602   7.826   7.628   2.594
10882TIP3    H132603   7.766   7.683   2.645
10882TIP3    H232604   7.904   7.620   2.648
10883TIP3   OH232605   6.498   2.724   1.297
10883TIP3    H132606   6.535   2.637   1.309
10883TIP3    H232607   6.573   2.782   1.288
10884TIP3   OH232608   0.156   7.209   5.720
10884TIP3    H132609   0.069   7.190   5.684
10884TIP3    H232610   0.183   7.289   5.674
10885TIP3   OH232611   2.986   3.381   1.601
10885TIP3    H132612   2.923   3.368   1.530
10885TIP3    H232613   3.026   3.295   1.613
10886TIP3   OH232614   7.926   2.602   4.183
10886TIP3    H132615   7.935   2.581   4.090
10886TIP3    H232616   7.833   2.591   4.202
10887TIP3   OH232617   7.946   4.421   3.142
10887TIP3    H132618   8.037   4.398   3.158
10887TIP3    H232619   7.896   4.351   3.183
10888TIP3   OH232620   7.622   4.302   2.755
10888TIP3    H132621   7.540   4.310   2.708
10888TIP3    H232622   7.690   4.302   2.687
10889TIP3   OH232623   2.325   4.101   5.418
10889TIP3    H132624   2.281   4.019   5.393
10889TIP3    H232625   2.314   4.159   5.343
10890TIP3   OH232626   7.132   3.293   0.123
10890TIP3    H132627   7.075   3.222   0.093
10890TIP3    H232628   7.109   3.367   0.067
10891TIP3   OH232629   5.585   0.976   2.455
10891TIP3    H132630   5.565   0.885   2.434
10891TIP3    H232631   5.601   0.975   2.550
10892TIP3   OH232632   2.743   2.141   3.717
10892TIP3    H132633   2.735   2.126   3.623
10892TIP3    H232634   2.788   2.063   3.750
10893TIP3   OH232635   1.047   0.080   2.766
10893TIP3    H132636   1.088   0.159   2.802
10893TIP3    H232637   1.034   0.023   2.842
10894TIP3   OH232638   6.660   1.411   3.820
10894TIP3    H132639   6.695   1.465   3.891
10894TIP3    H232640   6.668   1.321   3.853
10895TIP3   OH232641   6.735   4.130   0.710
10895TIP3    H132642   6.727   4.101   0.619
10895TIP3    H232643   6.717   4.052   0.762
10896TIP3   OH232644   0.257   4.481   1.339
10896TIP3    H132645   0.217   4.404   1.380
10896TIP3    H232646   0.185   4.544   1.332
10897TIP3   OH232647   5.936   5.405   4.455
10897TIP3    H132648   5.887   5.334   4.414
10897TIP3    H232649   6.024   5.370   4.467
10898TIP3   OH232650   1.995   6.594   6.767
10898TIP3    H132651   2.032   6.508   6.748
10898TIP3    H232652   1.951   6.620   6.686
10899TIP3   OH232653   2.408   4.283   1.816
10899TIP3    H132654   2.354   4.255   1.890
10899TIP3    H232655   2.493   4.242   1.832
10900TIP3   OH232656   6.773   0.262   3.126
10900TIP3    H132657   6.700   0.263   3.065
10900TIP3    H232658   6.734   0.281   3.211
10901TIP3   OH232659   8.059   0.950   2.001
10901TIP3    H132660   7.992   0.893   2.038
10901TIP3    H232661   8.031   1.038   2.024
10902TIP3   OH232662   3.299   3.185   5.936
10902TIP3    H132663   3.342   3.103   5.914
10902TIP3    H232664   3.230   3.161   5.997
10903TIP3   OH232665   1.684   0.671   2.425
10903TIP3    H132666   1.616   0.627   2.373
10903TIP3    H232667   1.643   0.753   2.453
10904TIP3   OH232668   3.531   1.982   2.271
10904TIP3    H132669   3.625   2.002   2.267
10904TIP3    H232670   3.518   1.913   2.206
10905TIP3   OH232671   7.418   2.132   1.898
10905TIP3    H132672   7.438   2.189   1.973
10905TIP3    H232673   7.359   2.184   1.843
10906TIP3   OH232674   5.267   5.300   3.810
10906TIP3    H132675   5.286   5.217   3.766
10906TIP3    H232676   5.188   5.282   3.862
10907TIP3   OH232677   5.182   2.112   2.412
10907TIP3    H132678   5.175   2.204   2.389
10907TIP3    H232679   5.275   2.098   2.431
10908TIP3   OH232680   1.465   1.324   3.716
10908TIP3    H132681   1.479   1.304   3.624
10908TIP3    H232682   1.378   1.363   3.720
10909TIP3   OH232683   2.010   1.525   2.810
10909TIP3    H132684   2.038   1.580   2.883
10909TIP3    H232685   2.006   1.584   2.735
10910TIP3   OH232686   2.144   3.092   6.636
10910TIP3    H132687   2.097   3.022   6.681
10910TIP3    H232688   2.115   3.172   6.679
10911TIP3   OH232689   5.361   5.829   6.461
10911TIP3    H132690   5.403   5.767   6.402
10911TIP3    H232691   5.267   5.820   6.444
10912TIP3   OH232692   0.919   5.741   6.600
10912TIP3    H132693   0.898   5.651   6.575
10912TIP3    H232694   0.871   5.795   6.537
10913TIP3   OH232695   1.768   2.683   5.974
10913TIP3    H132696   1.782   2.745   6.045
10913TIP3    H232697   1.793   2.598   6.010
10914TIP3   OH232698   1.031   2.201   4.741
10914TIP3    H132699   1.076   2.178   4.660
10914TIP3    H232700   0.989   2.120   4.769
10915TIP3   OH232701   5.948   4.606   4.953
10915TIP3    H132702   5.998   4.594   4.872
10915TIP3    H232703   5.985   4.685   4.992
10916TIP3   OH232704   3.710   6.270   1.809
10916TIP3    H132705   3.780   6.304   1.865
10916TIP3    H232706   3.629   6.300   1.850
10917TIP3   OH232707   7.228   0.895   0.113
10917TIP3    H132708   7.312   0.900   0.159
10917TIP3    H232709   7.237   0.820   0.054
10918TIP3   OH232710   7.029   1.189   4.629
10918TIP3    H132711   6.993   1.119   4.575
10918TIP3    H232712   7.096   1.147   4.682
10919TIP3   OH232713   8.107   1.558   3.392
10919TIP3    H132714   8.198   1.577   3.366
10919TIP3    H232715   8.115   1.506   3.472
10920TIP3   OH232716   6.134   7.567   2.243
10920TIP3    H132717   6.047   7.528   2.249
10920TIP3    H232718   6.176   7.523   2.169
10921TIP3   OH232719   4.807   0.460   2.091
10921TIP3    H132720   4.890   0.414   2.080
10921TIP3    H232721   4.817   0.540   2.040
10922TIP3   OH232722   0.055   0.490   1.257
10922TIP3    H132723   0.028   0.558   1.195
10922TIP3    H232724   0.144   0.469   1.232
10923TIP3   OH232725   7.299   4.318   6.296
10923TIP3    H132726   7.216   4.278   6.319
10923TIP3    H232727   7.324   4.276   6.213
10924TIP3   OH232728   4.203   3.441   1.831
10924TIP3    H132729   4.242   3.424   1.745
10924TIP3    H232730   4.143   3.368   1.846
10925TIP3   OH232731   4.363   3.625   4.917
10925TIP3    H132732   4.314   3.701   4.949
10925TIP3    H232733   4.430   3.610   4.984
10926TIP3   OH232734   3.711   1.542   0.700
10926TIP3    H132735   3.745   1.472   0.644
10926TIP3    H232736   3.696   1.615   0.641
10927TIP3   OH232737   5.102   2.828   6.750
10927TIP3    H132738   5.031   2.873   6.705
10927TIP3    H232739   5.102   2.865   6.838
10928TIP3   OH232740   7.479   2.955   5.403
10928TIP3    H132741   7.513   2.957   5.492
10928TIP3    H232742   7.449   3.045   5.387
10929TIP3   OH232743   4.000   6.937   1.517
10929TIP3    H132744   3.943   6.906   1.447
10929TIP3    H232745   4.085   6.951   1.476
10930TIP3   OH232746   1.891   0.204   2.688
10930TIP3    H132747   1.828   0.253   2.635
10930TIP3    H232748   1.961   0.182   2.626
10931TIP3   OH232749   1.274   1.729   3.738
10931TIP3    H132750   1.219   1.728   3.817
10931TIP3    H232751   1.346   1.669   3.757
10932TIP3   OH232752   6.997   5.992   3.239
10932TIP3    H132753   6.945   5.916   3.266
10932TIP3    H232754   7.070   5.954   3.189
10933TIP3   OH232755   4.366   0.360   3.742
10933TIP3    H132756   4.435   0.346   3.807
10933TIP3    H232757   4.310   0.427   3.780
10934TIP3   OH232758   5.827   3.469   1.571
10934TIP3    H132759   5.856   3.488   1.660
10934TIP3    H232760   5.902   3.427   1.529
10935TIP3   OH232761   0.375   5.211   2.591
10935TIP3    H132762   0.439   5.282   2.597
10935TIP3    H232763   0.293   5.250   2.621
10936TIP3   OH232764   7.596   2.124   2.724
10936TIP3    H132765   7.623   2.061   2.790
10936TIP3    H232766   7.608   2.079   2.641
10937TIP3   OH232767   7.402   0.279   5.731
10937TIP3    H132768   7.435   0.222   5.661
10937TIP3    H232769   7.377   0.219   5.801
10938TIP3   OH232770   3.493   2.903   4.726
10938TIP3    H132771   3.587   2.919   4.733
10938TIP3    H232772   3.476   2.830   4.785
10939TIP3   OH232773   0.310   2.606   3.513
10939TIP3    H132774   0.357   2.605   3.596
10939TIP3    H232775   0.314   2.697   3.484
10940TIP3   OH232776   1.748   7.777   1.692
10940TIP3    H132777   1.842   7.760   1.702
10940TIP3    H232778   1.735   7.860   1.737
10941TIP3   OH232779   8.214   6.209   0.469
10941TIP3    H132780   8.187   6.301   0.479
10941TIP3    H232781   8.164   6.178   0.394
10942TIP3   OH232782   4.073   3.049  -0.013
10942TIP3    H132783   4.112   3.056   0.074
10942TIP3    H232784   4.129   3.102  -0.069
10943TIP3   OH232785   1.529   0.763   3.072
10943TIP3    H132786   1.508   0.803   3.156
10943TIP3    H232787   1.612   0.804   3.046
10944TIP3   OH232788   2.542   7.588   6.423
10944TIP3    H132789   2.468   7.622   6.373
10944TIP3    H232790   2.507   7.513   6.471
10945TIP3   OH232791   5.016   3.720   1.793
10945TIP3    H132792   4.932   3.745   1.754
10945TIP3    H232793   5.041   3.640   1.748
10946TIP3   OH232794   3.123   7.213   4.865
10946TIP3    H132795   3.218   7.209   4.879
10946TIP3    H232796   3.114   7.227   4.770
10947TIP3   OH232797   7.984   7.248   1.851
10947TIP3    H132798   8.032   7.264   1.770
10947TIP3    H232799   8.032   7.298   1.917
10948TIP3   OH232800   0.793   7.374   2.852
10948TIP3    H132801   0.783   7.373   2.947
10948TIP3    H232802   0.887   7.387   2.839
10949TIP3   OH232803   1.588   2.375   4.959
10949TIP3    H132804   1.497   2.384   4.932
10949TIP3    H232805   1.589   2.401   5.051
10950TIP3   OH232806   7.173   4.786   1.074
10950TIP3    H132807   7.212   4.798   0.988
10950TIP3    H232808   7.095   4.734   1.058
10951TIP3   OH232809   7.429   7.262   5.141
10951TIP3    H132810   7.449   7.226   5.054
10951TIP3    H232811   7.514   7.286   5.177
10952TIP3   OH232812   5.825   2.183   6.344
10952TIP3    H132813   5.899   2.227   6.387
10952TIP3    H232814   5.811   2.104   6.396
10953TIP3   OH232815   1.232   7.702   5.507
10953TIP3    H132816   1.190   7.695   5.421
10953TIP3    H232817   1.179   7.767   5.554
10954TIP3   OH232818   6.295   7.778   2.676
10954TIP3    H132819   6.279   7.867   2.647
10954TIP3    H232820   6.386   7.761   2.652
10955TIP3   OH232821   4.110   3.292   2.906
10955TIP3    H132822   4.023   3.297   2.945
10955TIP3    H232823   4.147   3.211   2.939
10956TIP3   OH232824   0.179   3.878   4.012
10956TIP3    H132825   0.107   3.902   4.070
10956TIP3    H232826   0.253   3.864   4.070
10957TIP3   OH232827   4.443   2.160   1.028
10957TIP3    H132828   4.353   2.181   1.055
10957TIP3    H232829   4.489   2.244   1.028
10958TIP3   OH232830   4.769   5.746   1.750
10958TIP3    H132831   4.699   5.716   1.692
10958TIP3    H232832   4.781   5.674   1.812
10959TIP3   OH232833   0.499   1.218   6.094
10959TIP3    H132834   0.472   1.149   6.155
10959TIP3    H232835   0.425   1.278   6.091
10960TIP3   OH232836   7.170   1.107   2.140
10960TIP3    H132837   7.103   1.039   2.147
10960TIP3    H232838   7.138   1.180   2.193
10961TIP3   OH232839   6.866   1.137   3.843
10961TIP3    H132840   6.904   1.166   3.925
10961TIP3    H232841   6.774   1.121   3.864
10962TIP3   OH232842   1.609   2.421   4.257
10962TIP3    H132843   1.667   2.486   4.217
10962TIP3    H232844   1.524   2.435   4.216
10963TIP3   OH232845   3.265   2.469   0.569
10963TIP3    H132846   3.356   2.449   0.547
10963TIP3    H232847   3.244   2.546   0.518
10964TIP3   OH232848   7.068   1.043   5.258
10964TIP3    H132849   7.111   0.975   5.309
10964TIP3    H232850   7.104   1.033   5.170
10965TIP3   OH232851   5.263   3.363   4.433
10965TIP3    H132852   5.296   3.452   4.420
10965TIP3    H232853   5.327   3.307   4.389
10966TIP3   OH232854   1.946   4.041   2.201
10966TIP3    H132855   1.976   4.097   2.130
10966TIP3    H232856   1.866   4.000   2.167
10967TIP3   OH232857   7.556   4.657   2.380
10967TIP3    H132858   7.469   4.679   2.413
10967TIP3    H232859   7.612   4.656   2.458
10968TIP3   OH232860   2.711   5.849   1.173
10968TIP3    H132861   2.689   5.769   1.124
10968TIP3    H232862   2.708   5.822   1.265
10969TIP3   OH232863   6.887   7.020   1.824
10969TIP3    H132864   6.894   7.059   1.737
10969TIP3    H232865   6.808   6.966   1.820
10970TIP3   OH232866   0.778   0.956   6.112
10970TIP3    H132867   0.860   0.971   6.158
10970TIP3    H232868   0.782   0.864   6.086
10971TIP3   OH232869   2.576   6.609   4.850
10971TIP3    H132870   2.662   6.575   4.825
10971TIP3    H232871   2.594   6.698   4.881
10972TIP3   OH232872   0.125   1.387   6.247
10972TIP3    H132873   0.083   1.398   6.332
10972TIP3    H232874   0.163   1.299   6.251
10973TIP3   OH232875   5.902   1.884   3.070
10973TIP3    H132876   5.901   1.791   3.047
10973TIP3    H232877   5.821   1.897   3.120
10974TIP3   OH232878   7.995   3.263   1.503
10974TIP3    H132879   7.933   3.271   1.430
10974TIP3    H232880   7.955   3.314   1.573
10975TIP3   OH232881   4.290   5.366   3.364
10975TIP3    H132882   4.288   5.272   3.345
10975TIP3    H232883   4.383   5.387   3.373
10976TIP3   OH232884   1.538   5.988   0.552
10976TIP3    H132885   1.463   6.015   0.499
10976TIP3    H232886   1.501   5.937   0.623
10977TIP3   OH232887   7.871   5.642   4.214
10977TIP3    H132888   7.954   5.598   4.196
10977TIP3    H232889   7.871   5.655   4.308
10978TIP3   OH232890   1.518   6.944   5.629
10978TIP3    H132891   1.472   6.947   5.712
10978TIP3    H232892   1.583   7.015   5.634
10979TIP3   OH232893   5.959   0.473   3.368
10979TIP3    H132894   5.941   0.416   3.443
10979TIP3    H232895   5.890   0.450   3.305
10980TIP3   OH232896   5.753   0.808   4.157
10980TIP3    H132897   5.826   0.855   4.196
10980TIP3    H232898   5.676   0.859   4.180
10981TIP3   OH232899   5.932   2.347   6.548
10981TIP3    H132900   6.020   2.314   6.567
10981TIP3    H232901   5.905   2.389   6.629
10982TIP3   OH232902   5.651   2.365   3.966
10982TIP3    H132903   5.642   2.363   3.871
10982TIP3    H232904   5.742   2.338   3.982
10983TIP3   OH232905   7.853   0.506   3.432
10983TIP3    H132906   7.770   0.513   3.385
10983TIP3    H232907   7.842   0.431   3.491
10984TIP3   OH232908   4.348   2.803   6.423
10984TIP3    H132909   4.352   2.798   6.328
10984TIP3    H232910   4.419   2.863   6.447
10985TIP3   OH232911   5.928   4.091   6.187
10985TIP3    H132912   5.968   4.178   6.193
10985TIP3    H232913   5.836   4.106   6.211
10986TIP3   OH232914   4.401   7.234   5.925
10986TIP3    H132915   4.415   7.326   5.903
10986TIP3    H232916   4.479   7.189   5.894
10987TIP3   OH232917   2.337   5.764   6.406
10987TIP3    H132918   2.270   5.738   6.343
10987TIP3    H232919   2.377   5.842   6.367
10988TIP3   OH232920   6.447   1.201   2.576
10988TIP3    H132921   6.405   1.137   2.633
10988TIP3    H232922   6.532   1.163   2.554
10989TIP3   OH232923   6.925   4.204   3.923
10989TIP3    H132924   6.958   4.275   3.868
10989TIP3    H232925   6.975   4.211   4.005
10990TIP3   OH232926   3.620   7.386   6.363
10990TIP3    H132927   3.658   7.323   6.301
10990TIP3    H232928   3.681   7.460   6.361
10991TIP3   OH232929   6.259   4.330   6.492
10991TIP3    H132930   6.174   4.365   6.465
10991TIP3    H232931   6.304   4.405   6.530
10992TIP3   OH232932   5.050   2.232   0.912
10992TIP3    H132933   5.126   2.225   0.854
10992TIP3    H232934   5.051   2.151   0.962
10993TIP3   OH232935   1.273   3.606   5.883
10993TIP3    H132936   1.289   3.576   5.794
10993TIP3    H232937   1.285   3.528   5.938
10994TIP3   OH232938   5.889   3.985   4.942
10994TIP3    H132939   5.920   4.071   4.970
10994TIP3    H232940   5.847   3.947   5.020
10995TIP3   OH232941   6.418   7.463   3.077
10995TIP3    H132942   6.461   7.394   3.127
10995TIP3    H232943   6.369   7.418   3.009
10996TIP3   OH232944   8.065   3.111   4.075
10996TIP3    H132945   8.076   3.148   3.987
10996TIP3    H232946   8.150   3.125   4.117
10997TIP3   OH232947   4.018   4.423   5.507
10997TIP3    H132948   3.982   4.339   5.536
10997TIP3    H232949   3.947   4.464   5.457
10998TIP3   OH232950   0.949   5.285   5.888
10998TIP3    H132951   0.930   5.245   5.803
10998TIP3    H232952   1.022   5.344   5.871
10999TIP3   OH232953   8.150   2.697   5.039
10999TIP3    H132954   8.081   2.661   4.982
10999TIP3    H232955   8.159   2.788   5.011
11000TIP3   OH232956   1.949   3.339   0.152
11000TIP3    H132957   1.897   3.418   0.171
11000TIP3    H232958   1.923   3.315   0.063
11001TIP3   OH232959   1.244   3.670   4.710
11001TIP3    H132960   1.243   3.721   4.791
11001TIP3    H232961   1.304   3.598   4.728
11002TIP3   OH232962   5.359   5.907   1.640
11002TIP3    H132963   5.426   5.892   1.573
11002TIP3    H232964   5.362   6.001   1.656
11003TIP3   OH232965   6.269   0.629   0.105
11003TIP3    H132966   6.302   0.619   0.194
11003TIP3    H232967   6.305   0.712   0.075
11004TIP3   OH232968   6.115   5.627   3.110
11004TIP3    H132969   6.058   5.564   3.066
11004TIP3    H232970   6.062   5.661   3.182
11005TIP3   OH232971   1.319   6.517   4.555
11005TIP3    H132972   1.351   6.574   4.485
11005TIP3    H232973   1.359   6.432   4.537
11006TIP3   OH232974   0.094   2.241   2.804
11006TIP3    H132975   0.153   2.225   2.730
11006TIP3    H232976   0.145   2.296   2.864
11007TIP3   OH232977   6.171   4.835   0.196
11007TIP3    H132978   6.219   4.861   0.275
11007TIP3    H232979   6.156   4.741   0.206
11008TIP3   OH232980   5.018   5.767   5.944
11008TIP3    H132981   4.985   5.703   6.007
11008TIP3    H232982   4.969   5.748   5.864
11009TIP3   OH232983   2.255   2.440   4.427
11009TIP3    H132984   2.178   2.493   4.405
11009TIP3    H232985   2.219   2.355   4.453
11010TIP3   OH232986   1.624   1.327   6.214
11010TIP3    H132987   1.604   1.234   6.199
11010TIP3    H232988   1.717   1.336   6.192
11011TIP3   OH232989   6.809   4.989   4.525
11011TIP3    H132990   6.766   5.057   4.577
11011TIP3    H232991   6.902   4.998   4.547
11012TIP3   OH232992   2.703   7.501   4.499
11012TIP3    H132993   2.727   7.556   4.424
11012TIP3    H232994   2.698   7.413   4.463
11013TIP3   OH232995   5.821   1.614   4.963
11013TIP3    H132996   5.914   1.619   4.984
11013TIP3    H232997   5.776   1.627   5.046
11014TIP3   OH232998   7.372   0.533   0.928
11014TIP3    H132999   7.431   0.551   1.001
11014TIP3    H233000   7.383   0.439   0.911
11015TIP3   OH233001   0.408   5.238   4.691
11015TIP3    H133002   0.331   5.181   4.693
11015TIP3    H233003   0.441   5.230   4.601
11016TIP3   OH233004   5.687   1.076   5.466
11016TIP3    H133005   5.593   1.057   5.459
11016TIP3    H233006   5.702   1.088   5.559
11017TIP3   OH233007   4.794   3.695   2.201
11017TIP3    H133008   4.825   3.737   2.281
11017TIP3    H233009   4.703   3.722   2.193
11018TIP3   OH233010   0.110   7.111   5.156
11018TIP3    H133011   0.186   7.056   5.138
11018TIP3    H233012   0.142   7.176   5.218
11019TIP3   OH233013   2.831   2.848   0.672
11019TIP3    H133014   2.914   2.887   0.644
11019TIP3    H233015   2.830   2.860   0.767
11020TIP3   OH233016   8.272   4.172   1.852
11020TIP3    H133017   8.228   4.253   1.826
11020TIP3    H233018   8.353   4.201   1.894
11021TIP3   OH233019   7.023   7.557   6.033
11021TIP3    H133020   6.934   7.541   6.003
11021TIP3    H233021   7.063   7.609   5.964
11022TIP3   OH233022   7.768   2.001   1.078
11022TIP3    H133023   7.696   1.943   1.057
11022TIP3    H233024   7.806   2.023   0.992
11023TIP3   OH233025   6.205   6.497   6.411
11023TIP3    H133026   6.182   6.405   6.406
11023TIP3    H233027   6.147   6.533   6.479
11024TIP3   OH233028   1.073   5.509   2.011
11024TIP3    H133029   1.000   5.460   1.974
11024TIP3    H233030   1.064   5.497   2.106
11025TIP3   OH233031   1.555   4.686   1.036
11025TIP3    H133032   1.524   4.696   0.946
11025TIP3    H233033   1.621   4.755   1.047
11026TIP3   OH233034   3.963   5.835   1.659
11026TIP3    H133035   3.932   5.891   1.587
11026TIP3    H233036   3.965   5.893   1.735
11027TIP3   OH233037   1.316   5.678   4.208
11027TIP3    H133038   1.225   5.650   4.199
11027TIP3    H233039   1.336   5.723   4.126
11028TIP3   OH233040   7.627   6.970   0.294
11028TIP3    H133041   7.669   7.036   0.350
11028TIP3    H233042   7.546   6.947   0.340
11029TIP3   OH233043   4.882   1.413   1.478
11029TIP3    H133044   4.850   1.331   1.441
11029TIP3    H233045   4.946   1.444   1.414
11030TIP3   OH233046   5.802   2.466   1.412
11030TIP3    H133047   5.710   2.441   1.422
11030TIP3    H233048   5.816   2.534   1.478
11031TIP3   OH233049   6.205   6.350   6.696
11031TIP3    H133050   6.199   6.445   6.704
11031TIP3    H233051   6.271   6.324   6.760
11032TIP3   OH233052   6.368   5.403   2.220
11032TIP3    H133053   6.325   5.454   2.152
11032TIP3    H233054   6.331   5.436   2.302
11033TIP3   OH233055   2.489   1.024   6.607
11033TIP3    H133056   2.403   1.051   6.638
11033TIP3    H233057   2.527   0.975   6.680
11034TIP3   OH233058   5.043   2.388   0.621
11034TIP3    H133059   5.014   2.470   0.582
11034TIP3    H233060   4.975   2.366   0.685
11035TIP3   OH233061   0.655   0.857   4.688
11035TIP3    H133062   0.720   0.915   4.729
11035TIP3    H233063   0.668   0.870   4.594
11036TIP3   OH233064   4.198   7.563   5.961
11036TIP3    H133065   4.168   7.648   5.928
11036TIP3    H233066   4.257   7.530   5.893
11037TIP3   OH233067   4.239   1.904   3.505
11037TIP3    H133068   4.301   1.879   3.436
11037TIP3    H233069   4.255   1.997   3.519
11038TIP3   OH233070   6.809   2.985   1.503
11038TIP3    H133071   6.815   2.948   1.591
11038TIP3    H233072   6.844   2.917   1.445
11039TIP3   OH233073   7.172   0.196   4.128
11039TIP3    H133074   7.168   0.272   4.069
11039TIP3    H233075   7.086   0.155   4.119
11040TIP3   OH233076   1.484   3.313   0.591
11040TIP3    H133077   1.443   3.306   0.504
11040TIP3    H233078   1.570   3.351   0.574
11041TIP3   OH233079   8.299   7.676   2.344
11041TIP3    H133080   8.292   7.754   2.289
11041TIP3    H233081   8.293   7.709   2.434
11042TIP3   OH233082   6.855   2.044   4.733
11042TIP3    H133083   6.936   2.090   4.757
11042TIP3    H233084   6.786   2.090   4.780
11043TIP3   OH233085   7.779   7.650   1.117
11043TIP3    H133086   7.791   7.591   1.042
11043TIP3    H233087   7.867   7.664   1.151
11044TIP3   OH233088   4.626   2.277   2.455
11044TIP3    H133089   4.615   2.338   2.382
11044TIP3    H233090   4.679   2.324   2.518
11045TIP3   OH233091   0.250   3.536   3.301
11045TIP3    H133092   0.327   3.591   3.313
11045TIP3    H233093   0.239   3.491   3.384
11046TIP3   OH233094   2.673   2.711   3.887
11046TIP3    H133095   2.725   2.773   3.938
11046TIP3    H233096   2.618   2.667   3.952
11047TIP3   OH233097   5.590   5.062   3.699
11047TIP3    H133098   5.513   5.025   3.656
11047TIP3    H233099   5.623   5.127   3.637
11048TIP3   OH233100   6.498   6.722   6.004
11048TIP3    H133101   6.427   6.668   5.969
11048TIP3    H233102   6.454   6.792   6.052
11049TIP3   OH233103   5.782   5.197   4.363
11049TIP3    H133104   5.707   5.240   4.405
11049TIP3    H233105   5.762   5.103   4.368
11050TIP3   OH233106   0.796   5.319   6.100
11050TIP3    H133107   0.720   5.341   6.045
11050TIP3    H233108   0.865   5.297   6.037
11051TIP3   OH233109   7.102   0.755   1.862
11051TIP3    H133110   7.167   0.689   1.838
11051TIP3    H233111   7.045   0.762   1.786
11052TIP3   OH233112   1.260   4.528   2.075
11052TIP3    H133113   1.280   4.586   2.149
11052TIP3    H233114   1.280   4.581   1.998
11053TIP3   OH233115   4.647   2.963   3.832
11053TIP3    H133116   4.573   2.949   3.774
11053TIP3    H233117   4.635   3.052   3.865
11054TIP3   OH233118   0.787   0.608   6.754
11054TIP3    H133119   0.861   0.606   6.815
11054TIP3    H233120   0.797   0.528   6.703
11055TIP3   OH233121   3.101   3.238   0.352
11055TIP3    H133122   3.077   3.186   0.276
11055TIP3    H233123   3.181   3.198   0.385
11056TIP3   OH233124   0.295   0.729   0.245
11056TIP3    H133125   0.249   0.795   0.193
11056TIP3    H233126   0.255   0.646   0.219
11057TIP3   OH233127   6.838   1.706   1.594
11057TIP3    H133128   6.756   1.656   1.589
11057TIP3    H233129   6.883   1.671   1.671
11058TIP3   OH233130   7.845   6.914   3.592
11058TIP3    H133131   7.761   6.958   3.580
11058TIP3    H233132   7.909   6.975   3.555
11059TIP3   OH233133   0.821   3.112   6.479
11059TIP3    H133134   0.795   3.085   6.567
11059TIP3    H233135   0.877   3.188   6.493
11060TIP3   OH233136   5.631   0.852   6.091
11060TIP3    H133137   5.560   0.916   6.103
11060TIP3    H233138   5.591   0.781   6.041
11061TIP3   OH233139   1.031   1.204   0.703
11061TIP3    H133140   1.002   1.276   0.760
11061TIP3    H233141   0.952   1.178   0.657
11062TIP3   OH233142   7.720   4.625   0.378
11062TIP3    H133143   7.814   4.608   0.374
11062TIP3    H233144   7.712   4.705   0.430
11063TIP3   OH233145   5.197   6.349   5.985
11063TIP3    H133146   5.194   6.324   5.893
11063TIP3    H233147   5.287   6.328   6.013
11064TIP3   OH233148   4.488   4.673   2.770
11064TIP3    H133149   4.560   4.641   2.824
11064TIP3    H233150   4.521   4.755   2.733
11065TIP3   OH233151   7.354   3.942   1.243
11065TIP3    H133152   7.440   3.972   1.212
11065TIP3    H233153   7.333   3.867   1.188
11066TIP3   OH233154   2.336   2.454   1.107
11066TIP3    H133155   2.371   2.397   1.175
11066TIP3    H233156   2.362   2.413   1.025
11067TIP3   OH233157   6.001   2.737   2.900
11067TIP3    H133158   5.936   2.809   2.900
11067TIP3    H233159   6.073   2.770   2.953
11068TIP3   OH233160   7.616   5.116   5.235
11068TIP3    H133161   7.558   5.145   5.305
11068TIP3    H233162   7.620   5.191   5.175
11069TIP3   OH233163   5.491   3.233   4.653
11069TIP3    H133164   5.421   3.278   4.700
11069TIP3    H233165   5.508   3.289   4.576
11070TIP3   OH233166   0.073   4.680   0.773
11070TIP3    H133167   0.125   4.752   0.738
11070TIP3    H233168   0.037   4.636   0.696
11071TIP3   OH233169   1.234   2.485   2.685
11071TIP3    H133170   1.219   2.392   2.669
11071TIP3    H233171   1.312   2.488   2.741
11072TIP3   OH233172   7.136   0.954   6.377
11072TIP3    H133173   7.186   0.974   6.298
11072TIP3    H233174   7.118   0.860   6.370
11073TIP3   OH233175   1.882   0.130   3.410
11073TIP3    H133176   1.812   0.195   3.406
11073TIP3    H233177   1.952   0.173   3.459
11074TIP3   OH233178   5.745   1.931   6.490
11074TIP3    H133179   5.826   1.887   6.514
11074TIP3    H233180   5.681   1.903   6.556
11075TIP3   OH233181   0.977   0.589   2.310
11075TIP3    H133182   0.960   0.544   2.392
11075TIP3    H233183   0.892   0.594   2.267
11076TIP3   OH233184   1.872   4.410   3.336
11076TIP3    H133185   1.879   4.434   3.244
11076TIP3    H233186   1.788   4.445   3.364
11077TIP3   OH233187   4.947   4.862   2.271
11077TIP3    H133188   4.873   4.805   2.295
11077TIP3    H233189   5.007   4.805   2.224
11078TIP3   OH233190   3.935   4.530   1.046
11078TIP3    H133191   3.890   4.456   1.007
11078TIP3    H233192   3.939   4.510   1.139
11079TIP3   OH233193   1.538   4.267   4.083
11079TIP3    H133194   1.612   4.319   4.051
11079TIP3    H233195   1.562   4.244   4.172
11080TIP3   OH233196   3.507   3.118   2.906
11080TIP3    H133197   3.564   3.188   2.939
11080TIP3    H233198   3.462   3.157   2.831
11081TIP3   OH233199   6.978   6.255   1.713
11081TIP3    H133200   6.914   6.212   1.769
11081TIP3    H233201   7.056   6.265   1.768
11082TIP3   OH233202   6.637   1.131   4.155
11082TIP3    H133203   6.666   1.188   4.226
11082TIP3    H233204   6.716   1.116   4.103
11083TIP3   OH233205   4.360   5.118   6.643
11083TIP3    H133206   4.295   5.055   6.610
11083TIP3    H233207   4.310   5.196   6.665
11084TIP3   OH233208   0.627   2.522   0.619
11084TIP3    H133209   0.572   2.451   0.652
11084TIP3    H233210   0.605   2.529   0.526
11085TIP3   OH233211   6.178   6.572   2.576
11085TIP3    H133212   6.092   6.535   2.556
11085TIP3    H233213   6.180   6.655   2.527
11086TIP3   OH233214   0.735   1.955   2.008
11086TIP3    H133215   0.773   1.915   2.086
11086TIP3    H233216   0.811   1.983   1.957
11087TIP3   OH233217   1.715   1.265   0.975
11087TIP3    H133218   1.802   1.286   1.009
11087TIP3    H233219   1.709   1.316   0.894
11088TIP3   OH233220   1.504   4.237   3.728
11088TIP3    H133221   1.420   4.195   3.743
11088TIP3    H233222   1.565   4.164   3.713
11089TIP3   OH233223   0.498   0.094   3.437
11089TIP3    H133224   0.408   0.086   3.469
11089TIP3    H233225   0.530   0.177   3.472
11090TIP3   OH233226   4.909   0.870   1.218
11090TIP3    H133227   4.908   0.870   1.314
11090TIP3    H233228   4.998   0.844   1.195
11091TIP3   OH233229   6.811   2.770   3.880
11091TIP3    H133230   6.900   2.790   3.849
11091TIP3    H233231   6.781   2.700   3.823
11092TIP3   OH233232   2.239   2.321   5.227
11092TIP3    H133233   2.268   2.247   5.174
11092TIP3    H233234   2.319   2.357   5.265
11093TIP3   OH233235   1.682   5.933   6.521
11093TIP3    H133236   1.637   6.013   6.549
11093TIP3    H233237   1.613   5.878   6.484
11094TIP3   OH233238   5.337   4.376   4.454
11094TIP3    H133239   5.326   4.313   4.382
11094TIP3    H233240   5.277   4.345   4.522
11095TIP3   OH233241   1.325   6.424   5.757
11095TIP3    H133242   1.415   6.456   5.759
11095TIP3    H233243   1.273   6.494   5.798
11096TIP3   OH233244   8.123   0.427   3.385
11096TIP3    H133245   8.190   0.445   3.319
11096TIP3    H233246   8.049   0.482   3.359
11097TIP3   OH233247   2.114   2.161   1.830
11097TIP3    H133248   2.111   2.223   1.903
11097TIP3    H233249   2.150   2.212   1.757
11098TIP3   OH233250   7.773   3.832   5.275
11098TIP3    H133251   7.779   3.923   5.304
11098TIP3    H233252   7.762   3.838   5.180
11099TIP3   OH233253   1.681   0.758   0.211
11099TIP3    H133254   1.772   0.746   0.183
11099TIP3    H233255   1.643   0.817   0.146
11100TIP3   OH233256   4.171   0.880   2.056
11100TIP3    H133257   4.090   0.918   2.091
11100TIP3    H233258   4.230   0.878   2.131
11101TIP3   OH233259   1.406   0.812   5.129
11101TIP3    H133260   1.478   0.842   5.073
11101TIP3    H233261   1.442   0.736   5.175
11102TIP3   OH233262   8.102   1.701   5.012
11102TIP3    H133263   8.109   1.711   5.107
11102TIP3    H233264   8.156   1.625   4.992
11103TIP3   OH233265   4.525   1.500   3.693
11103TIP3    H133266   4.490   1.574   3.642
11103TIP3    H233267   4.617   1.496   3.669
11104TIP3   OH233268   3.345   7.865   5.540
11104TIP3    H133269   3.290   7.791   5.568
11104TIP3    H233270   3.433   7.842   5.568
11105TIP3   OH233271   0.560   0.961   3.598
11105TIP3    H133272   0.538   1.000   3.513
11105TIP3    H233273   0.623   1.021   3.637
11106TIP3   OH233274   7.042   2.575   6.485
11106TIP3    H133275   7.119   2.631   6.492
11106TIP3    H233276   6.970   2.629   6.519
11107TIP3   OH233277   5.563   2.517   4.888
11107TIP3    H133278   5.507   2.479   4.956
11107TIP3    H233279   5.509   2.515   4.808
11108TIP3   OH233280   7.615   2.152   4.402
11108TIP3    H133281   7.559   2.169   4.326
11108TIP3    H233282   7.588   2.066   4.433
11109TIP3   OH233283   4.797   2.743   0.194
11109TIP3    H133284   4.739   2.795   0.250
11109TIP3    H233285   4.877   2.733   0.246
11110TIP3   OH233286   6.085   4.417   3.399
11110TIP3    H133287   6.104   4.329   3.366
11110TIP3    H233288   6.135   4.476   3.343
11111TIP3   OH233289   1.673   2.205   3.959
11111TIP3    H133290   1.592   2.211   4.009
11111TIP3    H233291   1.695   2.112   3.960
11112TIP3   OH233292   2.259   2.229   2.824
11112TIP3    H133293   2.178   2.269   2.792
11112TIP3    H233294   2.274   2.270   2.909
11113TIP3   OH233295   3.794   4.736   6.124
11113TIP3    H133296   3.885   4.714   6.145
11113TIP3    H233297   3.743   4.695   6.194
11114TIP3   OH233298   3.219   7.466   1.969
11114TIP3    H133299   3.132   7.458   2.007
11114TIP3    H233300   3.271   7.399   2.015
11115TIP3   OH233301   1.653   2.596   0.108
11115TIP3    H133302   1.747   2.595   0.087
11115TIP3    H233303   1.641   2.675   0.160
11116TIP3   OH233304   5.043   6.878   2.532
11116TIP3    H133305   5.030   6.965   2.569
11116TIP3    H233306   5.117   6.888   2.472
11117TIP3   OH233307   2.460   5.665   0.677
11117TIP3    H133308   2.445   5.744   0.729
11117TIP3    H233309   2.517   5.693   0.605
11118TIP3   OH233310   2.047   1.182   4.537
11118TIP3    H133311   1.996   1.255   4.572
11118TIP3    H233312   2.030   1.185   4.442
11119TIP3   OH233313   7.757   2.383   1.743
11119TIP3    H133314   7.746   2.397   1.649
11119TIP3    H233315   7.780   2.470   1.777
11120TIP3   OH233316   1.766   2.856   4.809
11120TIP3    H133317   1.753   2.762   4.822
11120TIP3    H233318   1.778   2.892   4.897
11121TIP3   OH233319   5.260   1.636   6.590
11121TIP3    H133320   5.188   1.574   6.581
11121TIP3    H233321   5.256   1.689   6.510
11122TIP3   OH233322   2.627   6.055   5.576
11122TIP3    H133323   2.627   6.115   5.502
11122TIP3    H233324   2.598   5.971   5.540
11123TIP3   OH233325   5.596   1.939   1.460
11123TIP3    H133326   5.621   1.930   1.552
11123TIP3    H233327   5.670   1.982   1.418
11124TIP3   OH233328   0.995   5.126   0.062
11124TIP3    H133329   0.929   5.064   0.031
11124TIP3    H233330   1.036   5.084   0.137
11125TIP3   OH233331   2.651   4.617   0.070
11125TIP3    H133332   2.726   4.620   0.130
11125TIP3    H233333   2.685   4.574  -0.008
11126TIP3   OH233334   3.259   2.651   2.063
11126TIP3    H133335   3.307   2.653   1.981
11126TIP3    H233336   3.218   2.565   2.065
11127TIP3   OH233337   8.051   5.067   6.066
11127TIP3    H133338   8.088   5.088   6.152
11127TIP3    H233339   7.988   5.138   6.049
11128TIP3   OH233340   0.262   3.741   6.638
11128TIP3    H133341   0.219   3.801   6.699
11128TIP3    H233342   0.347   3.782   6.620
11129TIP3   OH233343   3.653   6.956   4.987
11129TIP3    H133344   3.559   6.970   4.977
11129TIP3    H233345   3.688   7.041   5.010
11130TIP3   OH233346   7.758   7.716   1.383
11130TIP3    H133347   7.757   7.669   1.300
11130TIP3    H233348   7.705   7.663   1.442
11131TIP3   OH233349   5.721   2.581   0.729
11131TIP3    H133350   5.670   2.556   0.652
11131TIP3    H233351   5.667   2.553   0.803
11132TIP3   OH233352   6.253   5.374   0.785
11132TIP3    H133353   6.280   5.302   0.727
11132TIP3    H233354   6.319   5.441   0.771
11133TIP3   OH233355   3.026   4.120   1.071
11133TIP3    H133356   2.944   4.078   1.045
11133TIP3    H233357   3.074   4.052   1.118
11134TIP3   OH233358   0.541   1.735   2.517
11134TIP3    H133359   0.539   1.793   2.593
11134TIP3    H233360   0.524   1.648   2.553
11135TIP3   OH233361   1.419   5.494   6.261
11135TIP3    H133362   1.361   5.499   6.337
11135TIP3    H233363   1.379   5.428   6.204
11136TIP3   OH233364   3.479   2.473   2.250
11136TIP3    H133365   3.429   2.393   2.235
11136TIP3    H233366   3.443   2.510   2.331
11137TIP3   OH233367   0.858   6.272   1.786
11137TIP3    H133368   0.908   6.291   1.865
11137TIP3    H233369   0.848   6.177   1.785
11138TIP3   OH233370   0.270   0.398   2.575
11138TIP3    H133371   0.239   0.361   2.492
11138TIP3    H233372   0.241   0.489   2.573
11139TIP3   OH233373   7.764   2.799   2.134
11139TIP3    H133374   7.690   2.835   2.086
11139TIP3    H233375   7.732   2.714   2.166
11140TIP3   OH233376   1.302   3.143   4.421
11140TIP3    H133377   1.372   3.208   4.410
11140TIP3    H233378   1.226   3.181   4.376
11141TIP3   OH233379   3.786   5.836   0.658
11141TIP3    H133380   3.804   5.886   0.738
11141TIP3    H233381   3.869   5.834   0.611
11142TIP3   OH233382   6.222   1.376   2.080
11142TIP3    H133383   6.243   1.388   1.987
11142TIP3    H233384   6.242   1.285   2.098
11143TIP3   OH233385   2.382   6.946   0.259
11143TIP3    H133386   2.401   6.973   0.168
11143TIP3    H233387   2.453   6.885   0.280
11144TIP3   OH233388   1.445   7.086   2.431
11144TIP3    H133389   1.359   7.048   2.417
11144TIP3    H233390   1.430   7.181   2.427
11145TIP3   OH233391   4.110   5.935   5.863
11145TIP3    H133392   4.029   5.892   5.893
11145TIP3    H233393   4.178   5.869   5.874
11146TIP3   OH233394   7.001   0.620   4.402
11146TIP3    H133395   6.949   0.612   4.323
11146TIP3    H233396   6.943   0.592   4.472
11147TIP3   OH233397   2.964   6.964   3.823
11147TIP3    H133398   2.875   6.962   3.789
11147TIP3    H233399   2.954   6.951   3.917
11148TIP3   OH233400   5.451   7.398   3.492
11148TIP3    H133401   5.511   7.464   3.525
11148TIP3    H233402   5.402   7.442   3.422
11149TIP3   OH233403   3.737   0.772   3.944
11149TIP3    H133404   3.680   0.696   3.955
11149TIP3    H233405   3.681   0.839   3.907
11150TIP3   OH233406   2.924   6.592   5.597
11150TIP3    H133407   2.945   6.659   5.662
11150TIP3    H233408   2.909   6.641   5.516
11151TIP3   OH233409   6.100   4.388   3.926
11151TIP3    H133410   6.129   4.477   3.906
11151TIP3    H233411   6.022   4.400   3.980
11152TIP3   OH233412   4.648   3.296   6.142
11152TIP3    H133413   4.643   3.215   6.194
11152TIP3    H233414   4.604   3.275   6.060
11153TIP3   OH233415   1.094   2.013   4.515
11153TIP3    H133416   1.060   1.942   4.462
11153TIP3    H233417   1.165   2.051   4.462
11154TIP3   OH233418   3.275   3.954   6.596
11154TIP3    H133419   3.303   4.042   6.571
11154TIP3    H233420   3.342   3.925   6.658
11155TIP3   OH233421   5.885   6.356   5.150
11155TIP3    H133422   5.877   6.416   5.077
11155TIP3    H233423   5.796   6.340   5.179
11156TIP3   OH233424   7.132   1.347   2.284
11156TIP3    H133425   7.060   1.315   2.338
11156TIP3    H233426   7.094   1.420   2.235
11157TIP3   OH233427   1.612   6.749   2.868
11157TIP3    H133428   1.633   6.734   2.776
11157TIP3    H233429   1.608   6.844   2.876
11158TIP3   OH233430   3.888   4.328   2.046
11158TIP3    H133431   3.902   4.239   2.015
11158TIP3    H233432   3.974   4.358   2.075
11159TIP3   OH233433   7.497   0.221   6.421
11159TIP3    H133434   7.502   0.300   6.474
11159TIP3    H233435   7.479   0.253   6.333
11160TIP3   OH233436   8.150   3.839   0.855
11160TIP3    H133437   8.218   3.878   0.910
11160TIP3    H233438   8.093   3.793   0.917
11161TIP3   OH233439   0.236   7.495   2.374
11161TIP3    H133440   0.245   7.490   2.470
11161TIP3    H233441   0.151   7.536   2.360
11162TIP3   OH233442   7.818   1.730   5.861
11162TIP3    H133443   7.887   1.677   5.900
11162TIP3    H233444   7.863   1.808   5.829
11163TIP3   OH233445   2.314   3.059   3.494
11163TIP3    H133446   2.408   3.072   3.487
11163TIP3    H233447   2.305   2.973   3.536
11164TIP3   OH233448   2.267   4.273   1.555
11164TIP3    H133449   2.316   4.274   1.637
11164TIP3    H233450   2.189   4.221   1.575
11165TIP3   OH233451   7.856   6.353   3.124
11165TIP3    H133452   7.852   6.398   3.039
11165TIP3    H233453   7.801   6.276   3.113
11166TIP3   OH233454   2.043   4.513   5.988
11166TIP3    H133455   2.039   4.529   5.894
11166TIP3    H233456   2.066   4.420   5.996
11167TIP3   OH233457   6.130   1.686   2.545
11167TIP3    H133458   6.226   1.695   2.546
11167TIP3    H233459   6.115   1.592   2.530
11168TIP3   OH233460   4.229   7.758   6.480
11168TIP3    H133461   4.225   7.853   6.493
11168TIP3    H233462   4.291   7.747   6.408
11169TIP3   OH233463   2.747   7.760   2.859
11169TIP3    H133464   2.740   7.687   2.920
11169TIP3    H233465   2.827   7.806   2.884
11170TIP3   OH233466   4.861   5.786   2.525
11170TIP3    H133467   4.894   5.828   2.445
11170TIP3    H233468   4.918   5.819   2.595
11171TIP3   OH233469   3.921   6.337   2.767
11171TIP3    H133470   3.946   6.264   2.710
11171TIP3    H233471   3.832   6.315   2.795
11172TIP3   OH233472   7.829   3.449   6.473
11172TIP3    H133473   7.802   3.429   6.383
11172TIP3    H233474   7.924   3.440   6.472
11173TIP3   OH233475   5.979   6.088   4.925
11173TIP3    H133476   5.892   6.101   4.963
11173TIP3    H233477   5.962   6.047   4.840
11174TIP3   OH233478   4.681   0.120   2.679
11174TIP3    H133479   4.646   0.152   2.596
11174TIP3    H233480   4.696   0.199   2.732
11175TIP3   OH233481   1.111   6.219   3.684
11175TIP3    H133482   1.173   6.171   3.629
11175TIP3    H233483   1.042   6.156   3.702
11176TIP3   OH233484   4.199   3.650   2.866
11176TIP3    H133485   4.112   3.667   2.830
11176TIP3    H233486   4.201   3.556   2.881
11177TIP3   OH233487   2.684   2.129   1.593
11177TIP3    H133488   2.714   2.178   1.670
11177TIP3    H233489   2.596   2.162   1.577
11178TIP3   OH233490   5.685   7.348   6.570
11178TIP3    H133491   5.709   7.259   6.597
11178TIP3    H233492   5.752   7.372   6.506
11179TIP3   OH233493   0.100   0.414   4.530
11179TIP3    H133494   0.048   0.373   4.599
11179TIP3    H233495   0.036   0.442   4.465
11180TIP3   OH233496   0.434   4.888   5.678
11180TIP3    H133497   0.466   4.948   5.611
11180TIP3    H233498   0.487   4.809   5.666
11181TIP3   OH233499   3.722   2.307   1.841
11181TIP3    H133500   3.710   2.273   1.753
11181TIP3    H233501   3.690   2.238   1.899
11182TIP3   OH233502   1.329   4.518   3.631
11182TIP3    H133503   1.268   4.553   3.696
11182TIP3    H233504   1.310   4.568   3.552
11183TIP3   OH233505   4.908   4.516   5.534
11183TIP3    H133506   4.874   4.506   5.445
11183TIP3    H233507   5.003   4.516   5.523
11184TIP3   OH233508   0.859   1.933   4.067
11184TIP3    H133509   0.834   1.971   3.983
11184TIP3    H233510   0.803   1.977   4.131
11185TIP3   OH233511   3.866   5.257   2.834
11185TIP3    H133512   3.779   5.275   2.800
11185TIP3    H233513   3.923   5.319   2.789
11186TIP3   OH233514   1.724   6.527   3.794
11186TIP3    H133515   1.739   6.615   3.829
11186TIP3    H233516   1.677   6.541   3.712
11187TIP3   OH233517   4.700   7.475   4.887
11187TIP3    H133518   4.654   7.513   4.812
11187TIP3    H233519   4.727   7.551   4.939
11188TIP3   OH233520   0.234   0.426   5.913
11188TIP3    H133521   0.227   0.449   5.820
11188TIP3    H233522   0.310   0.475   5.944
11189TIP3   OH233523   0.458   5.629   5.531
11189TIP3    H133524   0.457   5.705   5.472
11189TIP3    H233525   0.414   5.560   5.481
11190TIP3   OH233526   4.234   0.407   4.662
11190TIP3    H133527   4.198   0.494   4.675
11190TIP3    H233528   4.302   0.399   4.729
11191TIP3   OH233529   7.352   4.184   0.947
11191TIP3    H133530   7.412   4.185   1.021
11191TIP3    H233531   7.348   4.092   0.921
11192TIP3   OH233532   3.922   4.174   2.452
11192TIP3    H133533   3.911   4.158   2.545
11192TIP3    H233534   3.849   4.128   2.411
11193TIP3   OH233535   4.792   3.657   5.199
11193TIP3    H133536   4.862   3.594   5.182
11193TIP3    H233537   4.787   3.663   5.294
11194TIP3   OH233538   3.396   2.774   4.458
11194TIP3    H133539   3.423   2.804   4.545
11194TIP3    H233540   3.310   2.734   4.474
11195TIP3   OH233541   8.172   2.426   0.740
11195TIP3    H133542   8.147   2.465   0.824
11195TIP3    H233543   8.103   2.363   0.722
11196TIP3   OH233544   3.991   5.615   0.177
11196TIP3    H133545   4.029   5.665   0.249
11196TIP3    H233546   4.042   5.642   0.100
11197TIP3   OH233547   3.173   1.195   1.956
11197TIP3    H133548   3.091   1.174   2.001
11197TIP3    H233549   3.145   1.237   1.874
11198TIP3   OH233550   0.310   3.970   1.846
11198TIP3    H133551   0.232   3.951   1.794
11198TIP3    H233552   0.282   3.956   1.937
11199TIP3   OH233553   3.264   7.811   4.624
11199TIP3    H133554   3.330   7.767   4.570
11199TIP3    H233555   3.315   7.863   4.686
11200TIP3   OH233556   7.037   2.828   3.008
11200TIP3    H133557   7.121   2.836   2.963
11200TIP3    H233558   6.990   2.760   2.960
11201TIP3   OH233559   6.140   6.837   5.859
11201TIP3    H133560   6.131   6.863   5.951
11201TIP3    H233561   6.181   6.751   5.862
11202TIP3   OH233562   0.218   4.535   5.068
11202TIP3    H133563   0.137   4.519   5.116
11202TIP3    H233564   0.224   4.631   5.062
11203TIP3   OH233565   7.150   3.197   5.343
11203TIP3    H133566   7.160   3.281   5.299
11203TIP3    H233567   7.076   3.209   5.403
11204TIP3   OH233568   5.897   0.303   4.827
11204TIP3    H133569   5.918   0.220   4.869
11204TIP3    H233570   5.831   0.281   4.761
11205TIP3   OH233571   4.212   1.368   2.838
11205TIP3    H133572   4.155   1.349   2.912
11205TIP3    H233573   4.246   1.456   2.855
11206TIP3   OH233574   2.165   2.465   1.769
11206TIP3    H133575   2.224   2.488   1.841
11206TIP3    H233576   2.131   2.549   1.738
11207TIP3   OH233577   2.924   3.220   0.646
11207TIP3    H133578   2.853   3.251   0.702
11207TIP3    H233579   2.926   3.282   0.572
11208TIP3   OH233580   3.990   3.243   0.921
11208TIP3    H133581   3.951   3.328   0.900
11208TIP3    H233582   3.929   3.204   0.984
11209TIP3   OH233583   6.089   2.675   6.400
11209TIP3    H133584   6.025   2.609   6.371
11209TIP3    H233585   6.144   2.689   6.323
11210TIP3   OH233586   7.168   0.760   4.072
11210TIP3    H133587   7.148   0.810   3.993
11210TIP3    H233588   7.171   0.669   4.042
11211TIP3   OH233589   5.198   6.359   5.411
11211TIP3    H133590   5.160   6.445   5.389
11211TIP3    H233591   5.194   6.310   5.328
11212TIP3   OH233592   1.146   0.516   2.540
11212TIP3    H133593   1.168   0.457   2.612
11212TIP3    H233594   1.051   0.531   2.550
11213TIP3   OH233595   5.352   2.102   1.452
11213TIP3    H133596   5.339   2.128   1.543
11213TIP3    H233597   5.437   2.059   1.452
11214TIP3   OH233598   2.566   1.409   1.557
11214TIP3    H133599   2.529   1.476   1.614
11214TIP3    H233600   2.521   1.421   1.473
11215TIP3   OH233601   4.151   6.001   4.349
11215TIP3    H133602   4.064   6.042   4.347
11215TIP3    H233603   4.173   5.988   4.257
11216TIP3   OH233604   1.410   2.871   6.608
11216TIP3    H133605   1.317   2.891   6.615
11216TIP3    H233606   1.452   2.954   6.588
11217TIP3   OH233607   2.125   2.209   0.385
11217TIP3    H133608   2.122   2.189   0.479
11217TIP3    H233609   2.218   2.203   0.362
11218TIP3   OH233610   4.577   5.531   2.622
11218TIP3    H133611   4.591   5.626   2.626
11218TIP3    H233612   4.648   5.494   2.673
11219TIP3   OH233613   1.374   0.367   3.551
11219TIP3    H133614   1.321   0.370   3.471
11219TIP3    H233615   1.317   0.325   3.616
11220TIP3   OH233616   4.462   5.802   1.181
11220TIP3    H133617   4.515   5.793   1.101
11220TIP3    H233618   4.448   5.712   1.210
11221TIP3   OH233619   2.846   3.604   5.902
11221TIP3    H133620   2.900   3.610   5.981
11221TIP3    H233621   2.775   3.667   5.917
11222TIP3   OH233622   7.160   2.690   2.080
11222TIP3    H133623   7.230   2.693   2.145
11222TIP3    H233624   7.195   2.740   2.006
11223TIP3   OH233625   6.430   3.689   3.165
11223TIP3    H133626   6.355   3.630   3.171
11223TIP3    H233627   6.405   3.752   3.098
11224TIP3   OH233628   6.600   3.509   5.121
11224TIP3    H133629   6.569   3.536   5.034
11224TIP3    H233630   6.693   3.531   5.120
11225TIP3   OH233631   3.065   1.973   2.927
11225TIP3    H133632   3.058   1.941   3.018
11225TIP3    H233633   3.123   2.049   2.933
11226TIP3   OH233634   6.602   5.193   5.284
11226TIP3    H133635   6.603   5.104   5.317
11226TIP3    H233636   6.681   5.233   5.321
11227TIP3   OH233637   2.489   3.374   0.504
11227TIP3    H133638   2.446   3.430   0.439
11227TIP3    H233639   2.418   3.322   0.542
11228TIP3   OH233640   8.269   4.253   2.619
11228TIP3    H133641   8.229   4.300   2.546
11228TIP3    H233642   8.255   4.309   2.695
11229TIP3   OH233643   1.114   1.698   4.815
11229TIP3    H133644   1.185   1.649   4.772
11229TIP3    H233645   1.135   1.790   4.798
11230TIP3   OH233646   7.518   6.556   1.274
11230TIP3    H133647   7.543   6.612   1.348
11230TIP3    H233648   7.423   6.545   1.283
11231TIP3   OH233649   3.959   6.264   3.450
11231TIP3    H133650   3.880   6.216   3.476
11231TIP3    H233651   3.931   6.356   3.449
11232TIP3   OH233652   5.506   3.746   1.401
11232TIP3    H133653   5.556   3.757   1.321
11232TIP3    H233654   5.511   3.653   1.421
11233TIP3   OH233655   3.612   6.022   4.178
11233TIP3    H133656   3.530   6.051   4.219
11233TIP3    H233657   3.617   6.070   4.096
11234TIP3   OH233658   5.805   4.028   1.365
11234TIP3    H133659   5.771   3.938   1.371
11234TIP3    H233660   5.794   4.064   1.453
11235TIP3   OH233661   2.516   1.539   3.297
11235TIP3    H133662   2.526   1.529   3.392
11235TIP3    H233663   2.440   1.595   3.287
11236TIP3   OH233664   4.493   7.703   5.986
11236TIP3    H133665   4.555   7.776   5.985
11236TIP3    H233666   4.522   7.645   5.916
11237TIP3   OH233667   8.329   5.778   4.362
11237TIP3    H133668   8.327   5.688   4.396
11237TIP3    H233669   8.272   5.827   4.421
11238TIP3   OH233670   1.896   5.262   3.147
11238TIP3    H133671   1.981   5.224   3.126
11238TIP3    H233672   1.862   5.294   3.063
11239TIP3   OH233673   7.141   2.152   0.422
11239TIP3    H133674   7.172   2.168   0.333
11239TIP3    H233675   7.142   2.056   0.430
11240TIP3   OH233676   8.011   7.803   0.405
11240TIP3    H133677   8.015   7.894   0.433
11240TIP3    H233678   8.100   7.770   0.420
11241TIP3   OH233679   4.406   1.407   4.022
11241TIP3    H133680   4.310   1.411   4.025
11241TIP3    H233681   4.433   1.498   4.009
11242TIP3   OH233682   0.509   0.552   3.818
11242TIP3    H133683   0.509   0.626   3.757
11242TIP3    H233684   0.522   0.593   3.904
11243TIP3   OH233685   5.369   1.063   3.649
11243TIP3    H133686   5.363   1.124   3.575
11243TIP3    H233687   5.281   1.028   3.658
11244TIP3   OH233688   1.974   5.811   0.815
11244TIP3    H133689   2.056   5.861   0.814
11244TIP3    H233690   1.921   5.850   0.746
11245TIP3   OH233691   7.177   2.359   3.095
11245TIP3    H133692   7.210   2.415   3.025
11245TIP3    H233693   7.251   2.303   3.117
11246TIP3   OH233694   5.843   3.046   6.512
11246TIP3    H133695   5.814   3.070   6.424
11246TIP3    H233696   5.824   2.952   6.519
11247TIP3   OH233697   5.439   1.431   1.357
11247TIP3    H133698   5.401   1.415   1.271
11247TIP3    H233699   5.431   1.526   1.369
11248TIP3   OH233700   8.138   6.297   6.725
11248TIP3    H133701   8.095   6.223   6.768
11248TIP3    H233702   8.083   6.317   6.650
11249TIP3   OH233703   4.884   5.043   3.076
11249TIP3    H133704   4.827   4.978   3.119
11249TIP3    H233705   4.929   4.993   3.008
11250TIP3   OH233706   2.614   1.948   1.191
11250TIP3    H133707   2.599   1.856   1.216
11250TIP3    H233708   2.679   1.978   1.255
11251TIP3   OH233709   1.913   3.759   2.826
11251TIP3    H133710   1.882   3.673   2.854
11251TIP3    H233711   1.834   3.805   2.798
11252TIP3   OH233712   4.945   6.421   4.258
11252TIP3    H133713   4.982   6.343   4.217
11252TIP3    H233714   4.866   6.391   4.302
11253TIP3   OH233715   6.874   1.555   3.317
11253TIP3    H133716   6.829   1.490   3.263
11253TIP3    H233717   6.820   1.564   3.395
11254TIP3   OH233718   6.378   2.254   0.354
11254TIP3    H133719   6.334   2.338   0.337
11254TIP3    H233720   6.423   2.234   0.272
11255TIP3   OH233721   6.532   0.702   4.707
11255TIP3    H133722   6.598   0.751   4.658
11255TIP3    H233723   6.520   0.621   4.657
11256TIP3   OH233724   2.969   2.256   5.502
11256TIP3    H133725   3.028   2.274   5.429
11256TIP3    H233726   2.897   2.318   5.490
11257TIP3   OH233727   0.707   4.202   5.991
11257TIP3    H133728   0.751   4.262   6.051
11257TIP3    H233729   0.757   4.208   5.910
11258TIP3   OH233730   4.042   2.763   3.029
11258TIP3    H133731   4.085   2.738   3.110
11258TIP3    H233732   4.072   2.698   2.965
11259TIP3   OH233733   1.105   1.760   2.017
11259TIP3    H133734   1.052   1.700   2.070
11259TIP3    H233735   1.193   1.722   2.018
11260TIP3   OH233736   7.522   5.443   5.387
11260TIP3    H133737   7.507   5.349   5.387
11260TIP3    H233738   7.545   5.464   5.296
11261TIP3   OH233739   1.193   6.078   1.214
11261TIP3    H133740   1.128   6.023   1.258
11261TIP3    H233741   1.225   6.136   1.283
11262TIP3   OH233742   4.052   6.092   0.038
11262TIP3    H133743   4.028   6.009  -0.004
11262TIP3    H233744   4.000   6.158  -0.008
11263TIP3   OH233745   4.461   5.213   0.147
11263TIP3    H133746   4.521   5.232   0.219
11263TIP3    H233747   4.383   5.177   0.190
11264TIP3   OH233748   4.718   6.798   1.039
11264TIP3    H133749   4.739   6.717   1.086
11264TIP3    H233750   4.801   6.844   1.031
11265TIP3   OH233751   7.106   1.474   2.575
11265TIP3    H133752   7.064   1.398   2.534
11265TIP3    H233753   7.040   1.507   2.637
11266TIP3   OH233754   3.584   0.428   1.466
11266TIP3    H133755   3.564   0.346   1.422
11266TIP3    H233756   3.614   0.486   1.396
11267TIP3   OH233757   8.267   0.654   2.338
11267TIP3    H133758   8.311   0.706   2.406
11267TIP3    H233759   8.182   0.633   2.375
11268TIP3   OH233760   4.922   3.407   6.097
11268TIP3    H133761   4.958   3.453   6.173
11268TIP3    H233762   4.844   3.364   6.129
11269TIP3   OH233763   1.435   0.968   0.390
11269TIP3    H133764   1.485   1.048   0.377
11269TIP3    H233765   1.343   0.995   0.387
11270TIP3   OH233766   2.892   4.238   5.240
11270TIP3    H133767   2.812   4.220   5.289
11270TIP3    H233768   2.953   4.169   5.267
11271TIP3   OH233769   3.834   2.713   5.036
11271TIP3    H133770   3.803   2.793   4.993
11271TIP3    H233771   3.869   2.660   4.965
11272TIP3   OH233772   3.077   2.902   1.926
11272TIP3    H133773   3.117   2.963   1.864
11272TIP3    H233774   3.041   2.832   1.871
11273TIP3   OH233775   7.856   3.101   2.319
11273TIP3    H133776   7.944   3.095   2.283
11273TIP3    H233777   7.813   3.169   2.267
11274TIP3   OH233778   0.303   5.238   4.167
11274TIP3    H133779   0.371   5.190   4.119
11274TIP3    H233780   0.244   5.170   4.200
11275TIP3   OH233781   0.298   5.017   6.448
11275TIP3    H133782   0.233   4.957   6.484
11275TIP3    H233783   0.351   4.963   6.389
11276TIP3   OH233784   3.428   4.099   1.444
11276TIP3    H133785   3.389   4.148   1.516
11276TIP3    H233786   3.489   4.039   1.486
11277TIP3   OH233787   7.092   6.685   0.937
11277TIP3    H133788   7.019   6.679   0.875
11277TIP3    H233789   7.133   6.769   0.917
11278TIP3   OH233790   5.789   5.231   1.060
11278TIP3    H133791   5.740   5.265   1.135
11278TIP3    H233792   5.871   5.200   1.097
11279TIP3   OH233793   6.686   2.202   5.995
11279TIP3    H133794   6.649   2.244   5.917
11279TIP3    H233795   6.745   2.135   5.960
11280TIP3   OH233796   4.068   4.740   6.091
11280TIP3    H133797   4.115   4.818   6.062
11280TIP3    H233798   4.124   4.702   6.159
11281TIP3   OH233799   0.528   4.683   4.310
11281TIP3    H133800   0.594   4.683   4.380
11281TIP3    H233801   0.533   4.594   4.273
11282TIP3   OH233802   2.749   3.940   4.615
11282TIP3    H133803   2.781   3.891   4.540
11282TIP3    H233804   2.764   4.032   4.592
11283TIP3   OH233805   6.834   6.934   4.142
11283TIP3    H133806   6.846   6.892   4.056
11283TIP3    H233807   6.874   7.020   4.132
11284TIP3   OH233808   5.869   3.010   3.026
11284TIP3    H133809   5.777   3.033   3.036
11284TIP3    H233810   5.917   3.075   3.078
11285TIP3   OH233811   3.759   7.838   0.234
11285TIP3    H133812   3.748   7.750   0.197
11285TIP3    H233813   3.847   7.837   0.273
11286TIP3   OH233814   3.176   5.101   1.572
11286TIP3    H133815   3.245   5.081   1.634
11286TIP3    H233816   3.222   5.114   1.489
11287TIP3   OH233817   0.979   2.636   2.803
11287TIP3    H133818   1.021   2.702   2.857
11287TIP3    H233819   1.051   2.588   2.763
11288TIP3   OH233820   5.020   1.659   4.957
11288TIP3    H133821   4.971   1.690   5.034
11288TIP3    H233822   4.972   1.694   4.882
11289TIP3   OH233823   4.492   1.589   6.288
11289TIP3    H133824   4.480   1.516   6.227
11289TIP3    H233825   4.426   1.574   6.356
11290TIP3   OH233826   6.870   6.981   1.198
11290TIP3    H133827   6.882   7.074   1.177
11290TIP3    H233828   6.957   6.952   1.226
11291TIP3   OH233829   3.063   5.994   3.151
11291TIP3    H133830   3.129   6.023   3.214
11291TIP3    H233831   3.047   5.902   3.175
11292TIP3   OH233832   3.855   1.933   3.891
11292TIP3    H133833   3.922   1.951   3.826
11292TIP3    H233834   3.846   1.837   3.891
11293TIP3   OH233835   8.205   1.374   6.098
11293TIP3    H133836   8.247   1.371   6.011
11293TIP3    H233837   8.279   1.381   6.159
11294TIP3   OH233838   3.120   6.564   2.968
11294TIP3    H133839   3.162   6.640   3.009
11294TIP3    H233840   3.191   6.502   2.953
11295TIP3   OH233841   0.066   6.019   0.331
11295TIP3    H133842   0.045   5.927   0.316
11295TIP3    H233843  -0.011   6.054   0.377
11296TIP3   OH233844   0.301   7.168   1.135
11296TIP3    H133845   0.302   7.218   1.217
11296TIP3    H233846   0.341   7.084   1.158
11297TIP3   OH233847   6.028   2.736   3.301
11297TIP3    H133848   6.058   2.666   3.359
11297TIP3    H233849   5.994   2.690   3.224
11298TIP3   OH233850   4.299   2.123   1.264
11298TIP3    H133851   4.313   2.059   1.333
11298TIP3    H233852   4.369   2.187   1.275
11299TIP3   OH233853   4.440   1.237   2.344
11299TIP3    H133854   4.394   1.217   2.262
11299TIP3    H233855   4.371   1.264   2.404
11300TIP3   OH233856   7.720   5.393   1.076
11300TIP3    H133857   7.695   5.393   1.168
11300TIP3    H233858   7.684   5.311   1.041
11301TIP3   OH233859   1.795   6.868   5.705
11301TIP3    H133860   1.705   6.900   5.700
11301TIP3    H233861   1.786   6.774   5.719
11302TIP3   OH233862   0.564   0.708   0.979
11302TIP3    H133863   0.569   0.618   1.014
11302TIP3    H233864   0.472   0.732   0.989
11303TIP3   OH233865   0.749   5.563   1.095
11303TIP3    H133866   0.735   5.620   1.171
11303TIP3    H233867   0.773   5.479   1.134
11304TIP3   OH233868   1.093   3.139   1.288
11304TIP3    H133869   1.019   3.173   1.339
11304TIP3    H233870   1.089   3.044   1.301
11305TIP3   OH233871   1.717   6.726   6.292
11305TIP3    H133872   1.644   6.769   6.246
11305TIP3    H233873   1.678   6.697   6.375
11306TIP3   OH233874   0.188   2.241   3.459
11306TIP3    H133875   0.215   2.229   3.368
11306TIP3    H233876   0.205   2.157   3.500
11307TIP3   OH233877   7.902   1.827   3.009
11307TIP3    H133878   7.945   1.820   3.093
11307TIP3    H233879   7.914   1.919   2.983
11308TIP3   OH233880   2.203   7.694   0.194
11308TIP3    H133881   2.161   7.691   0.108
11308TIP3    H233882   2.273   7.629   0.190
11309TIP3   OH233883   6.578   2.161   5.196
11309TIP3    H133884   6.649   2.225   5.198
11309TIP3    H233885   6.502   2.210   5.163
11310TIP3   OH233886   2.723   6.963   6.421
11310TIP3    H133887   2.776   7.041   6.407
11310TIP3    H233888   2.741   6.907   6.346
11311TIP3   OH233889   7.094   3.777   6.302
11311TIP3    H133890   7.085   3.719   6.227
11311TIP3    H233891   7.096   3.865   6.264
11312TIP3   OH233892   5.711   7.343   0.777
11312TIP3    H133893   5.668   7.388   0.704
11312TIP3    H233894   5.674   7.255   0.777
11313TIP3   OH233895   1.034   3.290   3.155
11313TIP3    H133896   1.066   3.212   3.108
11313TIP3    H233897   1.061   3.275   3.246
11314TIP3   OH233898   1.112   5.785   3.228
11314TIP3    H133899   1.106   5.690   3.240
11314TIP3    H233900   1.139   5.818   3.314
11315TIP3   OH233901   1.205   6.768   6.227
11315TIP3    H133902   1.181   6.825   6.154
11315TIP3    H233903   1.122   6.749   6.271
11316TIP3   OH233904   7.405   7.045   4.140
11316TIP3    H133905   7.373   7.005   4.221
11316TIP3    H233906   7.343   7.016   4.073
11317TIP3   OH233907   4.919   3.278   4.924
11317TIP3    H133908   4.952   3.189   4.930
11317TIP3    H233909   4.873   3.293   5.006
11318TIP3   OH233910   6.360   2.114   5.593
11318TIP3    H133911   6.374   2.103   5.499
11318TIP3    H233912   6.395   2.033   5.632
11319TIP3   OH233913   1.844   0.501   4.704
11319TIP3    H133914   1.799   0.519   4.621
11319TIP3    H233915   1.935   0.485   4.679
11320TIP3   OH233916   2.966   7.502   1.325
11320TIP3    H133917   2.877   7.506   1.359
11320TIP3    H233918   2.967   7.565   1.253
11321TIP3   OH233919   0.790   3.056   0.510
11321TIP3    H133920   0.812   3.138   0.554
11321TIP3    H233921   0.821   2.988   0.571
11322TIP3   OH233922   3.599   2.434   5.542
11322TIP3    H133923   3.557   2.368   5.487
11322TIP3    H233924   3.599   2.396   5.630
11323TIP3   OH233925   2.940   4.829   0.516
11323TIP3    H133926   2.967   4.815   0.606
11323TIP3    H233927   3.002   4.777   0.464
11324TIP3   OH233928   4.966   2.481   6.519
11324TIP3    H133929   5.035   2.415   6.509
11324TIP3    H233930   4.934   2.468   6.608
11325TIP3   OH233931   7.968   4.035   4.348
11325TIP3    H133932   7.961   3.960   4.289
11325TIP3    H233933   8.023   4.097   4.301
11326TIP3   OH233934   5.865   7.450   1.266
11326TIP3    H133935   5.815   7.407   1.197
11326TIP3    H233936   5.867   7.385   1.337
11327TIP3   OH233937   4.277   4.675   6.240
11327TIP3    H133938   4.357   4.694   6.190
11327TIP3    H233939   4.303   4.688   6.332
11328TIP3   OH233940   0.216   5.133   5.992
11328TIP3    H133941   0.183   5.191   6.060
11328TIP3    H233942   0.175   5.166   5.911
11329TIP3   OH233943   6.161   4.040   2.774
11329TIP3    H133944   6.208   3.961   2.746
11329TIP3    H233945   6.069   4.015   2.771
11330TIP3   OH233946   1.507   1.686   4.277
11330TIP3    H133947   1.532   1.663   4.188
11330TIP3    H233948   1.439   1.753   4.267
11331TIP3   OH233949   6.293   2.286   0.688
11331TIP3    H133950   6.317   2.313   0.600
11331TIP3    H233951   6.344   2.206   0.704
11332TIP3   OH233952   7.804   0.213   0.783
11332TIP3    H133953   7.890   0.215   0.826
11332TIP3    H233954   7.745   0.180   0.851
11333TIP3   OH233955   5.131   7.718   3.035
11333TIP3    H133956   5.131   7.624   3.014
11333TIP3    H233957   5.217   7.748   3.006
11334TIP3   OH233958   4.072   0.803   3.658
11334TIP3    H133959   4.113   0.886   3.638
11334TIP3    H233960   4.105   0.742   3.592
11335TIP3   OH233961   4.400   3.784   5.290
11335TIP3    H133962   4.316   3.792   5.334
11335TIP3    H233963   4.458   3.845   5.337
11336TIP3   OH233964   2.102   3.944   0.316
11336TIP3    H133965   2.130   3.944   0.407
11336TIP3    H233966   2.181   3.965   0.266
11337TIP3   OH233967   1.617   0.698   6.596
11337TIP3    H133968   1.612   0.793   6.588
11337TIP3    H233969   1.618   0.683   6.691
11338TIP3   OH233970   4.877   6.027   5.419
11338TIP3    H133971   4.971   6.046   5.423
11338TIP3    H233972   4.869   5.940   5.457
11339TIP3   OH233973   7.804   0.841   5.829
11339TIP3    H133974   7.741   0.882   5.888
11339TIP3    H233975   7.859   0.914   5.799
11340TIP3   OH233976   7.943   1.837   1.427
11340TIP3    H133977   7.953   1.931   1.413
11340TIP3    H233978   7.853   1.827   1.458
11341TIP3   OH233979   4.530   4.380   2.305
11341TIP3    H133980   4.523   4.458   2.250
11341TIP3    H233981   4.454   4.384   2.362
11342TIP3   OH233982   0.740   3.330   5.152
11342TIP3    H133983   0.803   3.269   5.113
11342TIP3    H233984   0.731   3.299   5.242
11343TIP3   OH233985   6.638   7.256   3.713
11343TIP3    H133986   6.647   7.199   3.636
11343TIP3    H233987   6.585   7.206   3.774
11344TIP3   OH233988   6.629   3.037   6.345
11344TIP3    H133989   6.672   2.962   6.387
11344TIP3    H233990   6.701   3.092   6.314
11345TIP3   OH233991   5.825   7.573   3.779
11345TIP3    H133992   5.906   7.554   3.731
11345TIP3    H233993   5.781   7.639   3.726
11346TIP3   OH233994   7.256   3.946   6.032
11346TIP3    H133995   7.290   4.036   6.035
11346TIP3    H233996   7.163   3.956   6.011
11347TIP3   OH233997   3.118   5.969   1.800
11347TIP3    H133998   3.144   5.914   1.726
11347TIP3    H233999   3.024   5.983   1.788
11348TIP3   OH234000   7.520   7.168   0.870
11348TIP3    H134001   7.523   7.208   0.957
11348TIP3    H234002   7.547   7.077   0.884
11349TIP3   OH234003   3.961   0.625   0.512
11349TIP3    H134004   3.944   0.655   0.601
11349TIP3    H234005   4.045   0.580   0.517
11350TIP3   OH234006   7.284   4.741   1.323
11350TIP3    H134007   7.373   4.709   1.308
11350TIP3    H234008   7.249   4.757   1.235
11351TIP3   OH234009   4.571   1.815   3.605
11351TIP3    H134010   4.607   1.853   3.684
11351TIP3    H234011   4.613   1.862   3.533
11352TIP3   OH234012   6.328   6.769   2.011
11352TIP3    H134013   6.419   6.738   2.007
11352TIP3    H234014   6.295   6.736   2.095
11353TIP3   OH234015   4.383   2.895   2.668
11353TIP3    H134016   4.449   2.961   2.690
11353TIP3    H234017   4.368   2.906   2.574
11354TIP3   OH234018   4.472   4.335   2.931
11354TIP3    H134019   4.425   4.404   2.977
11354TIP3    H234020   4.470   4.260   2.991
11355TIP3   OH234021   6.644   0.586   0.493
11355TIP3    H134022   6.575   0.606   0.556
11355TIP3    H234023   6.705   0.659   0.501
11356TIP3   OH234024   7.977   1.609   2.552
11356TIP3    H134025   7.967   1.669   2.626
11356TIP3    H234026   8.068   1.621   2.524
11357TIP3   OH234027   6.018   3.258   1.024
11357TIP3    H134028   6.016   3.352   1.007
11357TIP3    H234029   5.933   3.239   1.064
11358TIP3   OH234030   3.073   2.842   6.161
11358TIP3    H134031   3.079   2.931   6.195
11358TIP3    H234032   3.005   2.800   6.214
11359TIP3   OH234033   6.783   1.451   4.834
11359TIP3    H134034   6.854   1.428   4.893
11359TIP3    H234035   6.827   1.485   4.756
11360TIP3   OH234036   3.027   7.403   2.211
11360TIP3    H134037   3.058   7.316   2.186
11360TIP3    H234038   3.105   7.447   2.244
11361TIP3   OH234039   3.627   6.247   3.913
11361TIP3    H134040   3.574   6.279   3.839
11361TIP3    H234041   3.695   6.193   3.872
11362TIP3   OH234042   1.759   3.001   4.381
11362TIP3    H134043   1.690   3.054   4.422
11362TIP3    H234044   1.741   3.007   4.287
11363TIP3   OH234045   0.496   3.699   1.091
11363TIP3    H134046   0.552   3.642   1.143
11363TIP3    H234047   0.502   3.664   1.002
11364TIP3   OH234048   0.485   6.634   6.153
11364TIP3    H134049   0.569   6.673   6.178
11364TIP3    H234050   0.488   6.546   6.191
11365TIP3   OH234051   8.288   1.336   2.797
11365TIP3    H134052   8.266   1.323   2.704
11365TIP3    H234053   8.253   1.258   2.840
11366TIP3   OH234054   0.984   3.552   4.471
11366TIP3    H134055   1.010   3.602   4.549
11366TIP3    H234056   1.066   3.536   4.424
11367TIP3   OH234057   7.037   6.952   3.652
11367TIP3    H134058   6.987   7.028   3.623
11367TIP3    H234059   7.095   6.933   3.578
11368TIP3   OH234060   2.773   0.161   4.464
11368TIP3    H134061   2.834   0.113   4.519
11368TIP3    H234062   2.734   0.226   4.523
11369TIP3   OH234063   3.178   1.826   0.390
11369TIP3    H134064   3.267   1.849   0.415
11369TIP3    H234065   3.124   1.855   0.465
11370TIP3   OH234066   7.627   5.781   2.703
11370TIP3    H134067   7.578   5.852   2.661
11370TIP3    H234068   7.630   5.806   2.795
11371TIP3   OH234069   4.973   3.920   0.348
11371TIP3    H134070   5.061   3.957   0.356
11371TIP3    H234071   4.985   3.826   0.360
11372TIP3   OH234072   5.515   3.725   2.151
11372TIP3    H134073   5.608   3.744   2.137
11372TIP3    H234074   5.477   3.807   2.181
11373TIP3   OH234075   7.794   1.578   3.038
11373TIP3    H134076   7.809   1.537   2.953
11373TIP3    H234077   7.832   1.666   3.029
11374TIP3   OH234078   7.834   7.172   0.974
11374TIP3    H134079   7.848   7.191   1.067
11374TIP3    H234080   7.752   7.122   0.972
11375TIP3   OH234081   7.051   3.754   1.157
11375TIP3    H134082   7.015   3.842   1.168
11375TIP3    H234083   6.978   3.696   1.179
11376TIP3   OH234084   3.650   2.572   6.489
11376TIP3    H134085   3.649   2.655   6.536
11376TIP3    H234086   3.742   2.545   6.488
11377TIP3   OH234087   1.981   6.418   3.468
11377TIP3    H134088   2.051   6.447   3.410
11377TIP3    H234089   2.000   6.325   3.484
11378TIP3   OH234090   4.252   0.520   0.315
11378TIP3    H134091   4.327   0.471   0.348
11378TIP3    H234092   4.192   0.453   0.283
11379TIP3   OH234093   6.900   1.478   0.840
11379TIP3    H134094   6.990   1.446   0.846
11379TIP3    H234095   6.908   1.564   0.799
11380TIP3   OH234096   6.334   5.718   2.152
11380TIP3    H134097   6.395   5.784   2.121
11380TIP3    H234098   6.280   5.698   2.075
11381TIP3   OH234099   7.529   3.566   5.734
11381TIP3    H134100   7.466   3.612   5.679
11381TIP3    H234101   7.550   3.628   5.804
11382TIP3   OH234102   1.906   3.254   1.684
11382TIP3    H134103   1.890   3.184   1.747
11382TIP3    H234104   1.914   3.333   1.737
11383TIP3   OH234105   0.048   7.434   4.485
11383TIP3    H134106   0.043   7.528   4.468
11383TIP3    H234107   0.131   7.422   4.530
11384TIP3   OH234108   2.002   4.738   3.761
11384TIP3    H134109   1.925   4.681   3.755
11384TIP3    H234110   1.997   4.792   3.682
11385TIP3   OH234111   4.512   6.774   3.964
11385TIP3    H134112   4.552   6.801   4.047
11385TIP3    H234113   4.423   6.810   3.967
11386TIP3   OH234114   3.673   1.208   2.451
11386TIP3    H134115   3.646   1.296   2.476
11386TIP3    H234116   3.766   1.204   2.474
11387TIP3   OH234117   6.462   1.886   5.745
11387TIP3    H134118   6.488   1.922   5.830
11387TIP3    H234119   6.521   1.812   5.730
11388TIP3   OH234120   6.815   5.929   4.219
11388TIP3    H134121   6.876   5.858   4.200
11388TIP3    H234122   6.851   5.971   4.298
11389TIP3   OH234123   0.247   3.380   1.552
11389TIP3    H134124   0.197   3.405   1.474
11389TIP3    H234125   0.291   3.461   1.579
11390TIP3   OH234126   1.422   7.061   0.811
11390TIP3    H134127   1.329   7.067   0.788
11390TIP3    H234128   1.421   7.025   0.900
11391TIP3   OH234129   2.944   2.365   4.958
11391TIP3    H134130   2.924   2.354   4.865
11391TIP3    H234131   2.994   2.286   4.981
11392TIP3   OH234132   5.250   1.554   1.130
11392TIP3    H134133   5.175   1.522   1.079
11392TIP3    H234134   5.222   1.547   1.221
11393TIP3   OH234135   1.595   4.872   4.813
11393TIP3    H134136   1.650   4.932   4.764
11393TIP3    H234137   1.518   4.859   4.758
11394TIP3   OH234138   0.904   4.802   4.361
11394TIP3    H134139   0.842   4.754   4.414
11394TIP3    H234140   0.974   4.826   4.422
11395TIP3   OH234141   5.708   0.037   0.029
11395TIP3    H134142   5.710   0.101   0.101
11395TIP3    H234143   5.759   0.078  -0.041
11396TIP3   OH234144   5.931   3.883   0.329
11396TIP3    H134145   5.980   3.836   0.262
11396TIP3    H234146   5.868   3.937   0.281
11397TIP3   OH234147   1.426   5.034   0.921
11397TIP3    H134148   1.456   5.039   1.012
11397TIP3    H234149   1.346   4.980   0.925
11398TIP3   OH234150   7.931   1.818   4.836
11398TIP3    H134151   8.008   1.782   4.879
11398TIP3    H234152   7.870   1.836   4.907
11399TIP3   OH234153   2.013   2.931   0.790
11399TIP3    H134154   2.021   2.836   0.793
11399TIP3    H234155   2.081   2.959   0.729
11400TIP3   OH234156   2.202   6.233   3.492
11400TIP3    H134157   2.248   6.234   3.576
11400TIP3    H234158   2.245   6.301   3.440
11401TIP3   OH234159   2.603   3.091   6.449
11401TIP3    H134160   2.584   3.001   6.477
11401TIP3    H234161   2.525   3.140   6.475
11402TIP3   OH234162   3.961   3.740   2.575
11402TIP3    H134163   4.003   3.812   2.623
11402TIP3    H234164   3.933   3.679   2.643
11403TIP3   OH234165   4.884   5.673   0.428
11403TIP3    H134166   4.899   5.592   0.475
11403TIP3    H234167   4.923   5.741   0.483
11404TIP3   OH234168   1.509   2.516   5.532
11404TIP3    H134169   1.592   2.477   5.503
11404TIP3    H234170   1.536   2.586   5.592
11405TIP3   OH234171   3.136   1.052   1.697
11405TIP3    H134172   3.179   1.065   1.612
11405TIP3    H234173   3.093   1.135   1.716
11406TIP3   OH234174   3.710   5.700   2.104
11406TIP3    H134175   3.756   5.769   2.057
11406TIP3    H234176   3.767   5.624   2.096
11407TIP3   OH234177   7.567   2.661   3.588
11407TIP3    H134178   7.476   2.690   3.595
11407TIP3    H234179   7.598   2.700   3.506
11408TIP3   OH234180   7.159   2.881   1.892
11408TIP3    H134181   7.125   2.845   1.810
11408TIP3    H234182   7.173   2.974   1.873
11409TIP3   OH234183   3.266   5.279   6.091
11409TIP3    H134184   3.184   5.325   6.076
11409TIP3    H234185   3.332   5.348   6.103
11410TIP3   OH234186   7.477   5.564   4.397
11410TIP3    H134187   7.453   5.651   4.430
11410TIP3    H234188   7.479   5.574   4.302
11411TIP3   OH234189   4.654   4.550   0.733
11411TIP3    H134190   4.562   4.559   0.708
11411TIP3    H234191   4.692   4.636   0.718
11412TIP3   OH234192   7.024   5.304   5.459
11412TIP3    H134193   7.067   5.386   5.484
11412TIP3    H234194   7.092   5.237   5.469
11413TIP3   OH234195   4.054   0.712   2.650
11413TIP3    H134196   4.100   0.716   2.734
11413TIP3    H234197   4.122   0.728   2.584
11414TIP3   OH234198   1.442   7.175   4.660
11414TIP3    H134199   1.361   7.219   4.689
11414TIP3    H234200   1.451   7.200   4.568
11415TIP3   OH234201   1.011   7.718   5.765
11415TIP3    H134202   0.936   7.725   5.707
11415TIP3    H234203   1.067   7.793   5.741
11416TIP3   OH234204   0.082   1.474   3.472
11416TIP3    H134205   0.007   1.490   3.529
11416TIP3    H234206   0.130   1.557   3.471
11417TIP3   OH234207   3.210   5.787   2.154
11417TIP3    H134208   3.152   5.858   2.182
11417TIP3    H234209   3.283   5.791   2.215
11418TIP3   OH234210   6.429   1.244   0.385
11418TIP3    H134211   6.503   1.263   0.443
11418TIP3    H234212   6.467   1.243   0.297
11419TIP3   OH234213   2.410   0.134   3.261
11419TIP3    H134214   2.399   0.113   3.168
11419TIP3    H234215   2.498   0.171   3.267
11420TIP3   OH234216   7.872   0.790   1.350
11420TIP3    H134217   7.779   0.802   1.334
11420TIP3    H234218   7.913   0.798   1.264
11421TIP3   OH234219   2.544   5.235   4.456
11421TIP3    H134220   2.610   5.278   4.403
11421TIP3    H234221   2.593   5.173   4.511
11422TIP3   OH234222   2.746   7.013   5.173
11422TIP3    H134223   2.770   7.005   5.265
11422TIP3    H234224   2.806   7.078   5.138
11423TIP3   OH234225   1.709   5.571   5.857
11423TIP3    H134226   1.679   5.595   5.945
11423TIP3    H234227   1.803   5.590   5.858
11424TIP3   OH234228   1.518   6.028   1.458
11424TIP3    H134229   1.609   6.004   1.440
11424TIP3    H234230   1.483   5.953   1.506
11425TIP3   OH234231   2.135   4.837   5.739
11425TIP3    H134232   2.213   4.799   5.698
11425TIP3    H234233   2.169   4.879   5.818
11426TIP3   OH234234   7.110   5.329   2.347
11426TIP3    H134235   7.031   5.357   2.301
11426TIP3    H234236   7.141   5.408   2.392
11427TIP3   OH234237   2.531   3.826   1.414
11427TIP3    H134238   2.448   3.805   1.371
11427TIP3    H234239   2.535   3.921   1.415
11428TIP3   OH234240   5.234   0.371   1.406
11428TIP3    H134241   5.195   0.333   1.486
11428TIP3    H234242   5.206   0.313   1.336
11429TIP3   OH234243   1.577   5.398   3.600
11429TIP3    H134244   1.530   5.384   3.517
11429TIP3    H234245   1.605   5.311   3.627
11430TIP3   OH234246   4.013   0.974   1.060
11430TIP3    H134247   3.937   1.032   1.054
11430TIP3    H234248   4.025   0.961   1.154
11431TIP3   OH234249   0.435   5.474   1.004
11431TIP3    H134250   0.528   5.457   1.015
11431TIP3    H234251   0.431   5.552   0.949
11432TIP3   OH234252   1.872   6.052   1.736
11432TIP3    H134253   1.792   6.016   1.773
11432TIP3    H234254   1.856   6.146   1.732
11433TIP3   OH234255   0.053   6.568   0.114
11433TIP3    H134256  -0.007   6.639   0.133
11433TIP3    H234257   0.126   6.610   0.069
11434TIP3   OH234258   4.973   3.950   5.036
11434TIP3    H134259   4.892   3.997   5.016
11434TIP3    H234260   5.014   4.001   5.106
11435TIP3   OH234261   1.057   4.322   0.763
11435TIP3    H134262   1.034   4.259   0.832
11435TIP3    H234263   1.146   4.350   0.786
11436TIP3   OH234264   4.828   6.838   1.305
11436TIP3    H134265   4.774   6.871   1.233
11436TIP3    H234266   4.857   6.916   1.351
11437TIP3   OH234267   2.164   3.925   5.245
11437TIP3    H134268   2.073   3.898   5.258
11437TIP3    H234269   2.160   3.991   5.176
11438TIP3   OH234270   7.148   4.047   4.447
11438TIP3    H134271   7.183   4.030   4.534
11438TIP3    H234272   7.183   3.976   4.393
11439TIP3   OH234273   1.080   1.963   2.674
11439TIP3    H134274   1.130   2.030   2.721
11439TIP3    H234275   1.081   1.887   2.733
11440TIP3   OH234276   4.258   6.802   2.415
11440TIP3    H134277   4.226   6.765   2.498
11440TIP3    H234278   4.352   6.784   2.416
11441TIP3   OH234279   2.009   3.904   1.152
11441TIP3    H134280   2.002   3.815   1.184
11441TIP3    H234281   2.103   3.923   1.154
11442TIP3   OH234282   7.783   2.337   5.371
11442TIP3    H134283   7.701   2.291   5.353
11442TIP3    H234284   7.851   2.270   5.360
11443TIP3   OH234285   4.992   6.505   2.538
11443TIP3    H134286   5.017   6.416   2.565
11443TIP3    H234287   4.913   6.523   2.589
11444TIP3   OH234288   7.944   5.049   0.401
11444TIP3    H134289   7.851   5.063   0.385
11444TIP3    H234290   7.972   5.129   0.446
11445TIP3   OH234291   6.033   5.997   2.671
11445TIP3    H134292   6.062   5.930   2.732
11445TIP3    H234293   5.980   6.057   2.724
11446TIP3   OH234294   4.608   3.137   5.408
11446TIP3    H134295   4.695   3.167   5.432
11446TIP3    H234296   4.551   3.213   5.423
11447TIP3   OH234297   6.279   3.835   1.659
11447TIP3    H134298   6.229   3.784   1.723
11447TIP3    H234299   6.213   3.881   1.608
11448TIP3   OH234300   7.515   5.433   1.597
11448TIP3    H134301   7.450   5.373   1.562
11448TIP3    H234302   7.467   5.487   1.660
11449TIP3   OH234303   4.007   1.476   5.536
11449TIP3    H134304   3.920   1.441   5.553
11449TIP3    H234305   4.014   1.478   5.440
11450TIP3   OH234306   4.664   6.750   1.644
11450TIP3    H134307   4.586   6.762   1.590
11450TIP3    H234308   4.631   6.756   1.734
11451TIP3   OH234309   6.004   2.838   5.243
11451TIP3    H134310   6.059   2.909   5.210
11451TIP3    H234311   6.018   2.839   5.338
11452TIP3   OH234312   1.243   6.829   3.909
11452TIP3    H134313   1.187   6.759   3.878
11452TIP3    H234314   1.233   6.898   3.843
11453TIP3   OH234315   3.047   2.298   0.191
11453TIP3    H134316   2.955   2.279   0.170
11453TIP3    H234317   3.065   2.247   0.269
11454TIP3   OH234318   6.858   0.852   0.023
11454TIP3    H134319   6.896   0.825   0.106
11454TIP3    H234320   6.785   0.792   0.009
11455TIP3   OH234321   1.247   2.573   5.462
11455TIP3    H134322   1.321   2.516   5.483
11455TIP3    H234323   1.287   2.658   5.440
11456TIP3   OH234324   6.285   5.908   3.664
11456TIP3    H134325   6.288   5.974   3.733
11456TIP3    H234326   6.290   5.958   3.583
11457TIP3   OH234327   6.382   2.951   4.184
11457TIP3    H134328   6.380   2.930   4.277
11457TIP3    H234329   6.454   2.900   4.149
11458TIP3   OH234330   3.752   2.995   3.737
11458TIP3    H134331   3.751   2.900   3.727
11458TIP3    H234332   3.731   3.010   3.829
11459TIP3   OH234333   7.550   5.334   5.082
11459TIP3    H134334   7.466   5.377   5.068
11459TIP3    H234335   7.607   5.403   5.116
11460TIP3   OH234336   1.992   3.078   2.199
11460TIP3    H134337   2.063   3.033   2.243
11460TIP3    H234338   1.952   3.132   2.268
11461TIP3   OH234339   3.218   4.492   6.200
11461TIP3    H134340   3.259   4.567   6.245
11461TIP3    H234341   3.274   4.477   6.124
11462TIP3   OH234342   0.840   1.840   2.972
11462TIP3    H134343   0.835   1.789   3.053
11462TIP3    H234344   0.901   1.791   2.916
11463TIP3   OH234345   7.686   4.399   6.766
11463TIP3    H134346   7.695   4.307   6.742
11463TIP3    H234347   7.691   4.447   6.684
11464TIP3   OH234348   0.038   5.832   1.329
11464TIP3    H134349   0.095   5.872   1.263
11464TIP3    H234350   0.075   5.862   1.412
11465TIP3   OH234351   6.546   0.283   2.739
11465TIP3    H134352   6.455   0.310   2.725
11465TIP3    H234353   6.548   0.248   2.827
11466TIP3   OH234354   4.517   4.333   1.590
11466TIP3    H134355   4.606   4.352   1.619
11466TIP3    H234356   4.462   4.396   1.638
11467TIP3   OH234357   4.997   1.759   0.331
11467TIP3    H134358   5.015   1.755   0.237
11467TIP3    H234359   4.941   1.684   0.348
11468TIP3   OH234360   8.158   2.293   5.970
11468TIP3    H134361   8.142   2.214   6.022
11468TIP3    H234362   8.252   2.293   5.955
11469TIP3   OH234363   3.627   3.827   1.290
11469TIP3    H134364   3.532   3.830   1.277
11469TIP3    H234365   3.655   3.749   1.243
11470TIP3   OH234366   0.346   4.100   0.835
11470TIP3    H134367   0.251   4.105   0.834
11470TIP3    H234368   0.369   4.110   0.928
11471TIP3   OH234369   7.266   1.444   3.565
11471TIP3    H134370   7.185   1.435   3.516
11471TIP3    H234371   7.310   1.519   3.526
11472TIP3   OH234372   0.664   1.164   1.768
11472TIP3    H134373   0.725   1.212   1.711
11472TIP3    H234374   0.598   1.129   1.708
11473TIP3   OH234375   6.522   2.611   3.158
11473TIP3    H134376   6.493   2.695   3.121
11473TIP3    H234377   6.592   2.634   3.218
11474TIP3   OH234378   4.096   1.016   6.641
11474TIP3    H134379   4.170   1.023   6.580
11474TIP3    H234380   4.026   0.978   6.588
11475TIP3   OH234381   2.410   5.471   5.724
11475TIP3    H134382   2.468   5.410   5.677
11475TIP3    H234383   2.413   5.441   5.815
11476TIP3   OH234384   2.439   2.284   1.582
11476TIP3    H134385   2.400   2.356   1.531
11476TIP3    H234386   2.431   2.312   1.673
11477TIP3   OH234387   2.236   7.745   2.412
11477TIP3    H134388   2.163   7.807   2.407
11477TIP3    H234389   2.197   7.661   2.388
11478TIP3   OH234390   6.128   1.709   4.645
11478TIP3    H134391   6.161   1.791   4.607
11478TIP3    H234392   6.054   1.736   4.698
11479TIP3   OH234393   0.795   0.545   5.489
11479TIP3    H134394   0.851   0.604   5.540
11479TIP3    H234395   0.817   0.563   5.398
11480TIP3   OH234396   7.640   0.470   1.550
11480TIP3    H134397   7.622   0.379   1.575
11480TIP3    H234398   7.672   0.511   1.630
11481TIP3   OH234399   2.433   4.241   2.248
11481TIP3    H134400   2.409   4.178   2.317
11481TIP3    H234401   2.352   4.257   2.200
11482TIP3   OH234402   3.544   7.101   1.979
11482TIP3    H134403   3.493   7.137   2.052
11482TIP3    H234404   3.515   7.152   1.903
11483TIP3   OH234405   1.752   1.562   0.498
11483TIP3    H134406   1.695   1.525   0.431
11483TIP3    H234407   1.832   1.585   0.452
11484TIP3   OH234408   1.925   6.675   3.571
11484TIP3    H134409   1.907   6.588   3.535
11484TIP3    H234410   1.922   6.734   3.496
11485TIP3   OH234411   6.339   6.608   6.673
11485TIP3    H134412   6.397   6.651   6.611
11485TIP3    H234413   6.250   6.628   6.642
11486TIP3   OH234414   6.477   4.227   2.753
11486TIP3    H134415   6.461   4.133   2.744
11486TIP3    H234416   6.389   4.264   2.762
11487TIP3   OH234417   6.413   6.387   2.583
11487TIP3    H134418   6.322   6.379   2.553
11487TIP3    H234419   6.407   6.441   2.662
11488TIP3   OH234420   6.767   4.620   4.314
11488TIP3    H134421   6.860   4.643   4.305
11488TIP3    H234422   6.748   4.636   4.407
11489TIP3   OH234423   1.023   7.349   4.295
11489TIP3    H134424   0.945   7.296   4.276
11489TIP3    H234425   0.988   7.431   4.328
11490TIP3   OH234426   2.801   1.654   5.723
11490TIP3    H134427   2.725   1.673   5.778
11490TIP3    H234428   2.851   1.589   5.774
11491TIP3   OH234429   4.088   5.849   0.766
11491TIP3    H134430   4.110   5.809   0.850
11491TIP3    H234431   4.161   5.909   0.749
11492TIP3   OH234432   4.615   3.364   4.529
11492TIP3    H134433   4.646   3.394   4.443
11492TIP3    H234434   4.558   3.433   4.560
11493TIP3   OH234435   6.531   3.462   0.457
11493TIP3    H134436   6.444   3.495   0.477
11493TIP3    H234437   6.575   3.456   0.542
11494TIP3   OH234438   5.350   1.330   2.794
11494TIP3    H134439   5.281   1.264   2.801
11494TIP3    H234440   5.410   1.310   2.865
11495TIP3   OH234441   1.005   1.436   3.295
11495TIP3    H134442   1.018   1.362   3.237
11495TIP3    H234443   1.003   1.513   3.237
11496TIP3   OH234444   3.413   4.676   3.639
11496TIP3    H134445   3.452   4.742   3.695
11496TIP3    H234446   3.342   4.638   3.691
11497TIP3   OH234447   3.440   5.793   3.896
11497TIP3    H134448   3.431   5.889   3.897
11497TIP3    H234449   3.468   5.772   3.807
11498TIP3   OH234450   0.666   0.718   2.317
11498TIP3    H134451   0.710   0.661   2.254
11498TIP3    H234452   0.590   0.668   2.346
11499TIP3   OH234453   5.246   5.768   4.485
11499TIP3    H134454   5.222   5.820   4.409
11499TIP3    H234455   5.163   5.739   4.523
11500TIP3   OH234456   3.461   5.322   1.739
11500TIP3    H134457   3.425   5.353   1.822
11500TIP3    H234458   3.416   5.373   1.672
11501TIP3   OH234459   0.201   5.574   5.857
11501TIP3    H134460   0.128   5.520   5.886
11501TIP3    H234461   0.251   5.518   5.798
11502TIP3   OH234462   5.930   3.553   5.062
11502TIP3    H134463   6.003   3.561   5.124
11502TIP3    H234464   5.868   3.620   5.090
11503TIP3   OH234465   6.031   3.346   0.658
11503TIP3    H134466   5.966   3.414   0.676
11503TIP3    H234467   6.057   3.362   0.567
11504TIP3   OH234468   3.338   4.420   3.936
11504TIP3    H134469   3.409   4.476   3.906
11504TIP3    H234470   3.369   4.385   4.020
11505TIP3   OH234471   3.884   2.313   2.088
11505TIP3    H134472   3.845   2.316   2.001
11505TIP3    H234473   3.911   2.222   2.099
11506TIP3   OH234474   6.131   2.990   5.456
11506TIP3    H134475   6.052   3.024   5.498
11506TIP3    H234476   6.129   3.025   5.367
11507TIP3   OH234477   1.682   2.815   0.257
11507TIP3    H134478   1.639   2.886   0.305
11507TIP3    H234479   1.743   2.776   0.320
11508TIP3   OH234480   7.690   1.920   1.367
11508TIP3    H134481   7.631   1.850   1.339
11508TIP3    H234482   7.753   1.929   1.295
11509TIP3   OH234483   5.282   5.778   5.137
11509TIP3    H134484   5.257   5.701   5.189
11509TIP3    H234485   5.209   5.790   5.076
11510TIP3   OH234486   5.909   6.298   2.744
11510TIP3    H134487   5.955   6.334   2.820
11510TIP3    H234488   5.936   6.354   2.671
11511TIP3   OH234489   2.102   4.924   2.848
11511TIP3    H134490   2.191   4.956   2.837
11511TIP3    H234491   2.079   4.887   2.762
11512TIP3   OH234492   3.691   4.103   4.178
11512TIP3    H134493   3.771   4.100   4.126
11512TIP3    H234494   3.644   4.179   4.145
11513TIP3   OH234495   4.780  -0.037   5.931
11513TIP3    H134496   4.800  -0.001   6.018
11513TIP3    H234497   4.807   0.032   5.870
11514TIP3   OH234498   4.676   3.929   5.141
11514TIP3    H134499   4.735   3.854   5.146
11514TIP3    H234500   4.653   3.948   5.232
11515TIP3   OH234501   3.998   3.065   3.961
11515TIP3    H134502   3.908   3.086   3.987
11515TIP3    H234503   4.049   3.141   3.986
11516TIP3   OH234504   6.240   4.283   0.737
11516TIP3    H134505   6.247   4.355   0.674
11516TIP3    H234506   6.251   4.325   0.822
11517TIP3   OH234507   4.065   5.295   6.213
11517TIP3    H134508   4.073   5.224   6.148
11517TIP3    H234509   3.993   5.349   6.181
11518TIP3   OH234510   1.051   3.994   4.275
11518TIP3    H134511   1.077   3.954   4.192
11518TIP3    H234512   0.989   3.931   4.314
11519TIP3   OH234513   5.443   3.337   3.286
11519TIP3    H134514   5.408   3.255   3.320
11519TIP3    H234515   5.521   3.312   3.236
11520TIP3   OH234516   5.084   1.588   1.363
11520TIP3    H134517   5.159   1.634   1.400
11520TIP3    H234518   5.013   1.652   1.364
11521TIP3   OH234519   1.427   6.424   5.285
11521TIP3    H134520   1.478   6.456   5.211
11521TIP3    H234521   1.339   6.410   5.249
11522TIP3   OH234522   2.201   4.842   0.514
11522TIP3    H134523   2.204   4.934   0.541
11522TIP3    H234524   2.224   4.793   0.594
11523TIP3   OH234525   0.280   5.017   2.746
11523TIP3    H134526   0.252   5.096   2.793
11523TIP3    H234527   0.329   5.049   2.671
11524TIP3   OH234528   7.349   5.908   4.791
11524TIP3    H134529   7.407   5.857   4.847
11524TIP3    H234530   7.264   5.906   4.836
11525TIP3   OH234531   6.051   4.211   3.159
11525TIP3    H134532   5.994   4.265   3.103
11525TIP3    H234533   6.106   4.163   3.097
11526TIP3   OH234534   5.624   1.977   3.119
11526TIP3    H134535   5.539   1.942   3.094
11526TIP3    H234536   5.611   2.010   3.208
11527TIP3   OH234537   3.735   0.067   1.709
11527TIP3    H134538   3.648   0.029   1.704
11527TIP3    H234539   3.794  -0.008   1.715
11528TIP3   OH234540   1.214   6.943   1.569
11528TIP3    H134541   1.182   7.028   1.539
11528TIP3    H234542   1.155   6.919   1.641
11529TIP3   OH234543   4.558   2.316   3.037
11529TIP3    H134544   4.643   2.291   3.075
11529TIP3    H234545   4.494   2.293   3.105
11530TIP3   OH234546   6.647   4.201   5.605
11530TIP3    H134547   6.719   4.263   5.616
11530TIP3    H234548   6.649   4.176   5.513
11531TIP3   OH234549   7.748   1.273   0.595
11531TIP3    H134550   7.830   1.317   0.576
11531TIP3    H234551   7.740   1.276   0.691
11532TIP3   OH234552   2.243   7.570   3.695
11532TIP3    H134553   2.331   7.533   3.692
11532TIP3    H234554   2.201   7.525   3.768
11533TIP3   OH234555   3.183   6.486   5.503
11533TIP3    H134556   3.238   6.492   5.425
11533TIP3    H234557   3.095   6.510   5.472
11534TIP3   OH234558   3.755   3.245   2.739
11534TIP3    H134559   3.721   3.276   2.823
11534TIP3    H234560   3.762   3.150   2.749
11535TIP3   OH234561   0.120   0.654   6.406
11535TIP3    H134562   0.196   0.712   6.400
11535TIP3    H234563   0.068   0.674   6.329
11536TIP3   OH234564   1.090   7.648   0.788
11536TIP3    H134565   1.130   7.583   0.845
11536TIP3    H234566   1.096   7.730   0.836
11537TIP3   OH234567   8.114   2.775   3.125
11537TIP3    H134568   8.058   2.727   3.187
11537TIP3    H234569   8.188   2.805   3.178
11538TIP3   OH234570   1.486   7.253   3.280
11538TIP3    H134571   1.553   7.212   3.225
11538TIP3    H234572   1.533   7.319   3.330
11539TIP3   OH234573   4.123   3.786   1.554
11539TIP3    H134574   4.125   3.854   1.486
11539TIP3    H234575   4.200   3.732   1.536
11540TIP3   OH234576   7.196   2.950   4.720
11540TIP3    H134577   7.186   3.023   4.658
11540TIP3    H234578   7.269   2.899   4.684
11541TIP3   OH234579   7.740   4.602   2.002
11541TIP3    H134580   7.755   4.512   1.975
11541TIP3    H234581   7.711   4.646   1.922
11542TIP3   OH234582   1.148   2.301   3.050
11542TIP3    H134583   1.056   2.313   3.029
11542TIP3    H234584   1.166   2.364   3.120
11543TIP3   OH234585   0.997   4.857   6.635
11543TIP3    H134586   0.960   4.892   6.716
11543TIP3    H234587   0.993   4.762   6.646
11544TIP3   OH234588   6.086   7.254   1.691
11544TIP3    H134589   6.001   7.211   1.698
11544TIP3    H234590   6.127   7.242   1.776
11545TIP3   OH234591   7.178   2.924   3.356
11545TIP3    H134592   7.203   2.897   3.444
11545TIP3    H234593   7.197   2.848   3.301
11546TIP3   OH234594   0.023   7.735   5.591
11546TIP3    H134595   0.001   7.827   5.602
11546TIP3    H234596   0.055   7.728   5.501
11547TIP3   OH234597   7.526   4.735   0.217
11547TIP3    H134598   7.528   4.680   0.139
11547TIP3    H234599   7.573   4.684   0.283
11548TIP3   OH234600   2.328   6.233   1.003
11548TIP3    H134601   2.372   6.310   1.039
11548TIP3    H234602   2.378   6.159   1.038
11549TIP3   OH234603   1.874   7.622   5.270
11549TIP3    H134604   1.822   7.582   5.340
11549TIP3    H234605   1.825   7.702   5.247
11550TIP3   OH234606   2.988   1.948   5.845
11550TIP3    H134607   3.017   2.037   5.865
11550TIP3    H234608   3.057   1.892   5.882
11551TIP3   OH234609   1.966   4.518   4.501
11551TIP3    H134610   1.976   4.510   4.406
11551TIP3    H234611   2.012   4.599   4.523
11552TIP3   OH234612   7.652   6.234   2.364
11552TIP3    H134613   7.701   6.183   2.300
11552TIP3    H234614   7.701   6.316   2.373
11553TIP3   OH234615   5.379   1.075   2.214
11553TIP3    H134616   5.428   1.016   2.157
11553TIP3    H234617   5.433   1.154   2.220
11554TIP3   OH234618   5.960   1.647   1.869
11554TIP3    H134619   6.028   1.683   1.927
11554TIP3    H234620   5.986   1.556   1.856
11555TIP3   OH234621   6.681   1.791   6.660
11555TIP3    H134622   6.695   1.821   6.570
11555TIP3    H234623   6.629   1.711   6.651
11556TIP3   OH234624   5.612   6.045   3.230
11556TIP3    H134625   5.663   6.107   3.176
11556TIP3    H234626   5.676   5.982   3.261
11557TIP3   OH234627   4.977   0.975   0.772
11557TIP3    H134628   4.943   1.044   0.714
11557TIP3    H234629   5.072   0.985   0.769
11558TIP3   OH234630   2.119   5.445   5.794
11558TIP3    H134631   2.118   5.350   5.801
11558TIP3    H234632   2.212   5.468   5.794
11559TIP3   OH234633   0.553   0.853   0.316
11559TIP3    H134634   0.517   0.912   0.382
11559TIP3    H234635   0.477   0.813   0.275
11560TIP3   OH234636   3.056   2.525   2.626
11560TIP3    H134637   3.023   2.553   2.711
11560TIP3    H234638   3.132   2.582   2.610
11561TIP3   OH234639   6.076   3.333   1.786
11561TIP3    H134640   6.149   3.349   1.846
11561TIP3    H234641   6.118   3.310   1.703
11562TIP3   OH234642   1.180   7.031   2.412
11562TIP3    H134643   1.139   7.049   2.497
11562TIP3    H234644   1.132   6.955   2.378
11563TIP3   OH234645   4.881   1.528   0.637
11563TIP3    H134646   4.852   1.542   0.547
11563TIP3    H234647   4.913   1.613   0.666
11564TIP3   OH234648   2.116   6.014   3.958
11564TIP3    H134649   2.129   6.046   4.047
11564TIP3    H234650   2.032   5.967   3.961
11565TIP3   OH234651   7.956   7.563   6.465
11565TIP3    H134652   7.885   7.620   6.434
11565TIP3    H234653   8.031   7.620   6.475
11566TIP3   OH234654   3.292   4.629   0.014
11566TIP3    H134655   3.271   4.606   0.104
11566TIP3    H234656   3.377   4.589  -0.002
11567TIP3   OH234657   5.360   3.852   5.087
11567TIP3    H134658   5.280   3.842   5.140
11567TIP3    H234659   5.413   3.914   5.137
11568TIP3   OH234660   1.934   1.916   4.904
11568TIP3    H134661   1.881   1.836   4.907
11568TIP3    H234662   1.969   1.925   4.992
11569TIP3   OH234663   5.789   6.892   4.456
11569TIP3    H134664   5.770   6.817   4.512
11569TIP3    H234665   5.866   6.933   4.496
11570TIP3   OH234666   2.295   1.882   3.663
11570TIP3    H134667   2.219   1.922   3.707
11570TIP3    H234668   2.338   1.830   3.731
11571TIP3   OH234669   0.567   2.215   2.211
11571TIP3    H134670   0.505   2.287   2.221
11571TIP3    H234671   0.653   2.258   2.205
11572TIP3   OH234672   6.060   2.816   3.683
11572TIP3    H134673   6.152   2.836   3.663
11572TIP3    H234674   6.055   2.721   3.685
11573TIP3   OH234675   7.655   3.879   5.025
11573TIP3    H134676   7.560   3.886   5.017
11573TIP3    H234677   7.686   3.871   4.935
11574TIP3   OH234678   0.052   7.017   6.615
11574TIP3    H134679   0.006   6.937   6.591
11574TIP3    H234680   0.108   6.992   6.688
11575TIP3   OH234681   5.006   4.493   4.565
11575TIP3    H134682   5.074   4.435   4.600
11575TIP3    H234683   5.053   4.551   4.506
11576TIP3   OH234684   6.462   6.258   1.340
11576TIP3    H134685   6.449   6.283   1.431
11576TIP3    H234686   6.373   6.238   1.308
11577TIP3   OH234687   1.400   4.060   5.390
11577TIP3    H134688   1.403   3.972   5.428
11577TIP3    H234689   1.491   4.090   5.393
11578TIP3   OH234690   0.693   5.442   1.649
11578TIP3    H134691   0.653   5.473   1.730
11578TIP3    H234692   0.770   5.498   1.638
11579TIP3   OH234693   7.074   7.577   2.413
11579TIP3    H134694   7.091   7.662   2.454
11579TIP3    H234695   7.102   7.513   2.479
11580TIP3   OH234696   3.536   3.318   6.015
11580TIP3    H134697   3.442   3.306   6.003
11580TIP3    H234698   3.575   3.234   5.992
11581TIP3   OH234699   4.996   7.005   6.397
11581TIP3    H134700   5.001   6.922   6.444
11581TIP3    H234701   5.073   7.054   6.427
11582TIP3   OH234702   6.378   5.140   0.080
11582TIP3    H134703   6.422   5.066   0.122
11582TIP3    H234704   6.355   5.198   0.153
11583TIP3   OH234705   0.002   0.091   2.916
11583TIP3    H134706   0.089   0.103   2.878
11583TIP3    H234707  -0.058   0.110   2.844
11584TIP3   OH234708   1.059   3.513   2.904
11584TIP3    H134709   1.097   3.470   2.827
11584TIP3    H234710   1.052   3.605   2.880
11585TIP3   OH234711   7.590   6.689   6.683
11585TIP3    H134712   7.523   6.757   6.685
11585TIP3    H234713   7.590   6.652   6.771
11586TIP3   OH234714   0.130   7.214   2.058
11586TIP3    H134715   0.131   7.240   2.150
11586TIP3    H234716   0.193   7.142   2.052
11587TIP3   OH234717   0.657   7.132   1.452
11587TIP3    H134718   0.689   7.162   1.537
11587TIP3    H234719   0.710   7.054   1.432
11588TIP3   OH234720   6.896   5.038   2.630
11588TIP3    H134721   6.959   5.065   2.697
11588TIP3    H234722   6.899   4.943   2.632
11589TIP3   OH234723   6.378   6.678   1.234
11589TIP3    H134724   6.300   6.712   1.277
11589TIP3    H234725   6.445   6.678   1.303
11590TIP3   OH234726   7.850   1.169   0.165
11590TIP3    H134727   7.760   1.178   0.197
11590TIP3    H234728   7.884   1.092   0.211
11591TIP3   OH234729   3.694   1.592   5.007
11591TIP3    H134730   3.699   1.550   4.921
11591TIP3    H234731   3.601   1.616   5.016
11592TIP3   OH234732   3.643   5.185   2.026
11592TIP3    H134733   3.558   5.188   2.069
11592TIP3    H234734   3.630   5.235   1.945
11593TIP3   OH234735   4.130   1.494   1.343
11593TIP3    H134736   4.155   1.558   1.410
11593TIP3    H234737   4.210   1.482   1.291
11594TIP3   OH234738   1.117   7.148   4.631
11594TIP3    H134739   1.171   7.154   4.552
11594TIP3    H234740   1.143   7.225   4.683
11595TIP3   OH234741   1.594   4.327   4.810
11595TIP3    H134742   1.620   4.417   4.791
11595TIP3    H234743   1.534   4.335   4.884
11596TIP3   OH234744   5.706   2.028   2.830
11596TIP3    H134745   5.798   2.054   2.835
11596TIP3    H234746   5.677   2.024   2.922
11597TIP3   OH234747   5.652   4.794   0.429
11597TIP3    H134748   5.567   4.770   0.465
11597TIP3    H234749   5.709   4.802   0.505
11598TIP3   OH234750   2.724   2.963   5.950
11598TIP3    H134751   2.750   2.910   5.874
11598TIP3    H234752   2.780   3.040   5.945
11599TIP3   OH234753   1.928   2.446   0.369
11599TIP3    H134754   1.981   2.515   0.328
11599TIP3    H234755   1.990   2.374   0.384
11600TIP3   OH234756   7.164   4.657   5.745
11600TIP3    H134757   7.248   4.704   5.745
11600TIP3    H234758   7.100   4.725   5.723
11601TIP3   OH234759   2.132   7.370   5.285
11601TIP3    H134760   2.088   7.297   5.329
11601TIP3    H234761   2.178   7.416   5.355
11602TIP3   OH234762   5.866   1.052   2.765
11602TIP3    H134763   5.848   1.068   2.858
11602TIP3    H234764   5.787   1.010   2.732
11603TIP3   OH234765   4.559   6.198   5.456
11603TIP3    H134766   4.623   6.213   5.526
11603TIP3    H234767   4.474   6.202   5.499
11604TIP3   OH234768   0.723   6.309   3.782
11604TIP3    H134769   0.729   6.313   3.878
11604TIP3    H234770   0.756   6.222   3.760
11605TIP3   OH234771   7.083   5.082   4.583
11605TIP3    H134772   7.109   5.171   4.559
11605TIP3    H234773   7.165   5.035   4.591
11606TIP3   OH234774   5.736   4.315   0.263
11606TIP3    H134775   5.703   4.386   0.317
11606TIP3    H234776   5.816   4.350   0.224
11607TIP3   OH234777   4.679   1.101   2.664
11607TIP3    H134778   4.731   1.020   2.672
11607TIP3    H234779   4.675   1.118   2.570
11608TIP3   OH234780   2.373   3.213   0.216
11608TIP3    H134781   2.441   3.276   0.196
11608TIP3    H234782   2.414   3.152   0.277
11609TIP3   OH234783   6.358   4.478   0.316
11609TIP3    H134784   6.353   4.548   0.381
11609TIP3    H234785   6.298   4.411   0.348
11610TIP3   OH234786   0.247   2.910   4.800
11610TIP3    H134787   0.306   2.940   4.870
11610TIP3    H234788   0.212   2.827   4.833
11611TIP3   OH234789   2.792   1.650   0.011
11611TIP3    H134790   2.711   1.653   0.063
11611TIP3    H234791   2.846   1.720   0.047
11612TIP3   OH234792   0.576   6.669   2.642
11612TIP3    H134793   0.532   6.591   2.607
11612TIP3    H234794   0.528   6.691   2.721
11613TIP3   OH234795   6.851   3.162   6.233
11613TIP3    H134796   6.921   3.197   6.177
11613TIP3    H234797   6.771   3.175   6.183
11614TIP3   OH234798   1.752   6.572   1.581
11614TIP3    H134799   1.759   6.478   1.566
11614TIP3    H234800   1.685   6.601   1.519
11615TIP3   OH234801   4.282   7.040   0.397
11615TIP3    H134802   4.306   6.990   0.475
11615TIP3    H234803   4.350   7.107   0.390
11616TIP3   OH234804   4.682   3.561   1.941
11616TIP3    H134805   4.764   3.514   1.956
11616TIP3    H234806   4.643   3.570   2.028
11617TIP3   OH234807   3.045   5.119   4.649
11617TIP3    H134808   3.042   5.169   4.567
11617TIP3    H234809   3.138   5.101   4.662
11618TIP3   OH234810   7.896   4.597   3.389
11618TIP3    H134811   7.895   4.563   3.299
11618TIP3    H234812   7.936   4.526   3.440
11619TIP3   OH234813   2.306   7.525   6.530
11619TIP3    H134814   2.230   7.535   6.473
11619TIP3    H234815   2.270   7.490   6.612
11620TIP3   OH234816   1.869   7.182   0.047
11620TIP3    H134817   1.853   7.189   0.141
11620TIP3    H234818   1.928   7.255   0.028
11621TIP3   OH234819   5.609   1.970   3.565
11621TIP3    H134820   5.642   1.968   3.655
11621TIP3    H234821   5.567   2.056   3.557
11622TIP3   OH234822   5.958   7.670   2.568
11622TIP3    H134823   6.007   7.590   2.547
11622TIP3    H234824   6.017   7.719   2.626
11623TIP3   OH234825   3.364   7.176   5.977
11623TIP3    H134826   3.322   7.131   5.905
11623TIP3    H234827   3.386   7.262   5.942
11624TIP3   OH234828   5.002   3.531   0.821
11624TIP3    H134829   4.941   3.583   0.873
11624TIP3    H234830   5.087   3.547   0.860
11625TIP3   OH234831   1.241   1.822   0.932
11625TIP3    H134832   1.308   1.884   0.958
11625TIP3    H234833   1.248   1.818   0.837
11626TIP3   OH234834   0.229   0.932   0.685
11626TIP3    H134835   0.275   0.961   0.764
11626TIP3    H234836   0.136   0.931   0.710
11627TIP3   OH234837   4.420   4.062   0.257
11627TIP3    H134838   4.372   4.142   0.235
11627TIP3    H234839   4.425   4.014   0.174
11628TIP3   OH234840   7.705   4.871   1.337
11628TIP3    H134841   7.714   4.777   1.351
11628TIP3    H234842   7.719   4.910   1.423
11629TIP3   OH234843   2.219   7.374   4.591
11629TIP3    H134844   2.228   7.400   4.682
11629TIP3    H234845   2.137   7.414   4.563
11630TIP3   OH234846   0.823   7.344   4.838
11630TIP3    H134847   0.871   7.261   4.846
11630TIP3    H234848   0.731   7.318   4.839
11631TIP3   OH234849   2.441   3.933   1.717
11631TIP3    H134850   2.419   3.974   1.800
11631TIP3    H234851   2.529   3.898   1.729
11632TIP3   OH234852   0.232   4.401   1.048
11632TIP3    H134853   0.198   4.483   1.013
11632TIP3    H234854   0.299   4.427   1.111
11633TIP3   OH234855   3.393   2.940   6.553
11633TIP3    H134856   3.412   2.916   6.644
11633TIP3    H234857   3.349   3.025   6.559
11634TIP3   OH234858   0.049   6.041   0.019
11634TIP3    H134859  -0.007   5.977   0.063
11634TIP3    H234860   0.068   6.107   0.086
11635TIP3   OH234861   6.195   0.716   5.386
11635TIP3    H134862   6.243   0.751   5.310
11635TIP3    H234863   6.196   0.621   5.373
11636TIP3   OH234864   4.095   0.869   3.004
11636TIP3    H134865   4.174   0.819   3.021
11636TIP3    H234866   4.103   0.946   3.060
11637TIP3   OH234867   1.576   0.388   1.890
11637TIP3    H134868   1.557   0.311   1.944
11637TIP3    H234869   1.498   0.443   1.898
11638TIP3   OH234870   4.073   0.617   4.168
11638TIP3    H134871   4.123   0.542   4.136
11638TIP3    H234872   4.060   0.672   4.091
11639TIP3   OH234873   5.783   6.735   2.043
11639TIP3    H134874   5.810   6.695   1.960
11639TIP3    H234875   5.793   6.665   2.107
11640TIP3   OH234876   5.121   5.077   1.590
11640TIP3    H134877   5.104   5.045   1.501
11640TIP3    H234878   5.182   5.150   1.578
11641TIP3   OH234879   0.642   7.479   0.150
11641TIP3    H134880   0.628   7.505   0.241
11641TIP3    H234881   0.672   7.389   0.156
11642TIP3   OH234882   0.570   3.335   5.653
11642TIP3    H134883   0.506   3.407   5.652
11642TIP3    H234884   0.519   3.257   5.633
11643TIP3   OH234885   7.400   2.321   3.506
11643TIP3    H134886   7.452   2.336   3.585
11643TIP3    H234887   7.464   2.295   3.440
11644TIP3   OH234888   6.959   2.300   3.834
11644TIP3    H134889   6.867   2.284   3.813
11644TIP3    H234890   7.004   2.219   3.811
11645TIP3   OH234891   3.802   6.674   0.101
11645TIP3    H134892   3.743   6.599   0.114
11645TIP3    H234893   3.880   6.652   0.151
11646TIP3   OH234894   5.504   1.082   6.518
11646TIP3    H134895   5.429   1.141   6.515
11646TIP3    H234896   5.575   1.137   6.552
11647TIP3   OH234897   5.840   4.896   3.136
11647TIP3    H134898   5.890   4.949   3.197
11647TIP3    H234899   5.838   4.947   3.055
11648TIP3   OH234900   6.494   5.413   2.966
11648TIP3    H134901   6.474   5.506   2.967
11648TIP3    H234902   6.411   5.370   2.984
11649TIP3   OH234903   0.764   3.756   2.300
11649TIP3    H134904   0.726   3.768   2.388
11649TIP3    H234905   0.833   3.822   2.295
11650TIP3   OH234906   7.975   1.098   6.523
11650TIP3    H134907   8.068   1.077   6.530
11650TIP3    H234908   7.973   1.187   6.488
11651TIP3   OH234909   6.558   2.298   5.729
11651TIP3    H134910   6.597   2.356   5.663
11651TIP3    H234911   6.506   2.236   5.678
11652TIP3   OH234912   7.391   0.798   0.833
11652TIP3    H134913   7.426   0.710   0.843
11652TIP3    H234914   7.468   0.854   0.830
11653TIP3   OH234915   3.069   5.510   2.103
11653TIP3    H134916   3.011   5.539   2.032
11653TIP3    H234917   3.094   5.590   2.149
11654TIP3   OH234918   5.818   7.586   5.753
11654TIP3    H134919   5.868   7.620   5.828
11654TIP3    H234920   5.727   7.589   5.783
11655TIP3   OH234921   8.076   4.027   2.632
11655TIP3    H134922   8.108   4.113   2.658
11655TIP3    H234923   8.112   3.967   2.697
11656TIP3   OH234924   5.614   0.362   2.370
11656TIP3    H134925   5.572   0.424   2.310
11656TIP3    H234926   5.541   0.325   2.421
11657TIP3   OH234927   5.137   3.028   3.006
11657TIP3    H134928   5.069   3.051   3.069
11657TIP3    H234929   5.090   3.004   2.926
11658TIP3   OH234930   4.685   7.496   3.214
11658TIP3    H134931   4.732   7.578   3.229
11658TIP3    H234932   4.592   7.520   3.220
11659TIP3   OH234933   1.344   5.377   2.512
11659TIP3    H134934   1.363   5.403   2.602
11659TIP3    H234935   1.264   5.425   2.489
11660TIP3   OH234936   0.775   2.478   6.583
11660TIP3    H134937   0.730   2.552   6.542
11660TIP3    H234938   0.865   2.508   6.594
11661TIP3   OH234939   5.249   4.039   2.738
11661TIP3    H134940   5.329   4.090   2.727
11661TIP3    H234941   5.222   4.056   2.828
11662TIP3   OH234942   7.814   1.016   5.049
11662TIP3    H134943   7.903   0.994   5.075
11662TIP3    H234944   7.821   1.038   4.956
11663TIP3   OH234945   7.159   0.328   5.584
11663TIP3    H134946   7.103   0.386   5.635
11663TIP3    H234947   7.248   0.352   5.609
11664TIP3   OH234948   2.431   7.288   3.924
11664TIP3    H134949   2.362   7.231   3.957
11664TIP3    H234950   2.430   7.275   3.829
11665TIP3   OH234951   4.688   2.951   5.663
11665TIP3    H134952   4.608   2.902   5.682
11665TIP3    H234953   4.664   3.009   5.591
11666TIP3   OH234954   4.243   4.634   6.578
11666TIP3    H134955   4.300   4.575   6.626
11666TIP3    H234956   4.155   4.600   6.592
11667TIP3   OH234957   5.347   1.591   2.743
11667TIP3    H134958   5.353   1.496   2.753
11667TIP3    H234959   5.254   1.608   2.731
11668TIP3   OH234960   8.240   4.812   0.967
11668TIP3    H134961   8.173   4.853   0.912
11668TIP3    H234962   8.294   4.762   0.906
11669TIP3   OH234963   0.568   1.576   3.020
11669TIP3    H134964   0.570   1.503   3.082
11669TIP3    H234965   0.614   1.543   2.943
11670TIP3   OH234966   3.538   0.500   4.955
11670TIP3    H134967   3.522   0.518   4.862
11670TIP3    H234968   3.596   0.423   4.955
11671TIP3   OH234969   7.388   5.987   1.954
11671TIP3    H134970   7.392   5.928   2.028
11671TIP3    H234971   7.295   5.990   1.930
11672TIP3   OH234972   3.298   0.919   4.367
11672TIP3    H134973   3.333   0.889   4.283
11672TIP3    H234974   3.374   0.955   4.413
11673TIP3   OH234975   7.323   0.172   5.342
11673TIP3    H134976   7.242   0.223   5.340
11673TIP3    H234977   7.340   0.157   5.435
11674TIP3   OH234978   3.055   3.363   6.269
11674TIP3    H134979   2.963   3.364   6.241
11674TIP3    H234980   3.053   3.402   6.356
11675TIP3   OH234981   0.340   5.773   4.227
11675TIP3    H134982   0.308   5.683   4.231
11675TIP3    H234983   0.319   5.809   4.313
11676TIP3   OH234984   4.380   2.259   5.090
11676TIP3    H134985   4.439   2.334   5.087
11676TIP3    H234986   4.398   2.217   5.174
11677TIP3   OH234987   0.340   3.536   2.417
11677TIP3    H134988   0.383   3.614   2.381
11677TIP3    H234989   0.378   3.463   2.368
11678TIP3   OH234990   1.712   0.831   1.671
11678TIP3    H134991   1.780   0.781   1.718
11678TIP3    H234992   1.630   0.789   1.698
11679TIP3   OH234993   8.028   6.273   5.543
11679TIP3    H134994   8.109   6.324   5.535
11679TIP3    H234995   8.024   6.249   5.636
11680TIP3   OH234996   7.480   5.223   4.656
11680TIP3    H134997   7.442   5.199   4.572
11680TIP3    H234998   7.519   5.309   4.641
11681TIP3   OH234999   0.527   4.925   4.554
11681TIP3    H135000   0.442   4.965   4.572
11681TIP3    H235001   0.590   4.996   4.561
11682TIP3   OH235002   0.519   2.972   1.036
11682TIP3    H135003   0.431   2.936   1.049
11682TIP3    H235004   0.541   2.949   0.946
11683TIP3   OH235005   5.841   1.134   0.550
11683TIP3    H135006   5.822   1.225   0.527
11683TIP3    H235007   5.784   1.117   0.625
11684TIP3   OH235008   7.114   5.814   1.354
11684TIP3    H135009   7.057   5.779   1.285
11684TIP3    H235010   7.192   5.843   1.307
11685TIP3   OH235011   3.883   5.840   3.831
11685TIP3    H135012   3.889   5.890   3.750
11685TIP3    H235013   3.974   5.823   3.855
11686TIP3   OH235014   1.203   2.934   4.580
11686TIP3    H135015   1.288   2.891   4.589
11686TIP3    H235016   1.219   3.007   4.519
11687TIP3   OH235017   5.655   6.492   0.050
11687TIP3    H135018   5.719   6.424   0.070
11687TIP3    H235019   5.662   6.505  -0.045
11688TIP3   OH235020   1.272   2.147   2.764
11688TIP3    H135021   1.324   2.170   2.841
11688TIP3    H235022   1.323   2.079   2.720
11689TIP3   OH235023   2.224   2.603   6.649
11689TIP3    H135024   2.132   2.584   6.634
11689TIP3    H235025   2.271   2.552   6.583
11690TIP3   OH235026   6.817   0.438   5.107
11690TIP3    H135027   6.743   0.489   5.074
11690TIP3    H235028   6.784   0.349   5.113
11691TIP3   OH235029   7.945   6.832   4.902
11691TIP3    H135030   7.987   6.894   4.842
11691TIP3    H235031   7.879   6.884   4.948
11692TIP3   OH235032   2.117   1.301   5.222
11692TIP3    H135033   2.065   1.287   5.300
11692TIP3    H235034   2.058   1.346   5.161
11693TIP3   OH235035   6.861   2.717   1.442
11693TIP3    H135036   6.927   2.649   1.457
11693TIP3    H235037   6.807   2.714   1.521
11694TIP3   OH235038   5.779   7.376   0.125
11694TIP3    H135039   5.701   7.429   0.144
11694TIP3    H235040   5.845   7.440   0.098
11695TIP3   OH235041   0.071   6.869   2.633
11695TIP3    H135042   0.076   6.821   2.550
11695TIP3    H235043   0.103   6.956   2.612
11696TIP3   OH235044   4.002   7.624   6.395
11696TIP3    H135045   4.064   7.682   6.438
11696TIP3    H235046   4.054   7.578   6.328
11697TIP3   OH235047   5.741   6.479   6.215
11697TIP3    H135048   5.810   6.413   6.204
11697TIP3    H235049   5.696   6.454   6.296
11698TIP3   OH235050   2.123   7.647   5.400
11698TIP3    H135051   2.047   7.637   5.343
11698TIP3    H235052   2.087   7.659   5.488
11699TIP3   OH235053   1.278   0.946   6.316
11699TIP3    H135054   1.347   0.884   6.292
11699TIP3    H235055   1.216   0.894   6.366
11700TIP3   OH235056   4.526   1.741   1.591
11700TIP3    H135057   4.555   1.775   1.507
11700TIP3    H235058   4.571   1.657   1.600
11701TIP3   OH235059   2.338   4.702   0.093
11701TIP3    H135060   2.326   4.796   0.082
11701TIP3    H235061   2.428   4.685   0.064
11702TIP3   OH235062   7.176   4.803   2.815
11702TIP3    H135063   7.214   4.840   2.735
11702TIP3    H235064   7.082   4.806   2.800
11703TIP3   OH235065   0.859   1.101   0.941
11703TIP3    H135066   0.775   1.070   0.974
11703TIP3    H235067   0.863   1.069   0.851
11704TIP3   OH235068   3.779   3.191   1.384
11704TIP3    H135069   3.866   3.183   1.422
11704TIP3    H235070   3.724   3.136   1.439
11705TIP3   OH235071   6.656   0.906   0.276
11705TIP3    H135072   6.672   0.867   0.363
11705TIP3    H235073   6.576   0.863   0.246
11706TIP3   OH235074   4.372   3.310   4.167
11706TIP3    H135075   4.373   3.307   4.262
11706TIP3    H235076   4.435   3.379   4.144
11707TIP3   OH235077   5.957   4.771   2.782
11707TIP3    H135078   6.003   4.803   2.704
11707TIP3    H235079   5.869   4.751   2.751
11708TIP3   OH235080   1.884   0.321   5.382
11708TIP3    H135081   1.893   0.396   5.324
11708TIP3    H235082   1.791   0.300   5.381
11709TIP3   OH235083   5.042   1.687   5.605
11709TIP3    H135084   5.038   1.673   5.699
11709TIP3    H235085   5.136   1.685   5.585
11710TIP3   OH235086   0.685   1.275   6.608
11710TIP3    H135087   0.671   1.244   6.698
11710TIP3    H235088   0.731   1.204   6.565
11711TIP3   OH235089   7.490   7.492   1.047
11711TIP3    H135090   7.582   7.500   1.021
11711TIP3    H235091   7.445   7.560   0.997
11712TIP3   OH235092   2.169   5.390   6.220
11712TIP3    H135093   2.084   5.353   6.196
11712TIP3    H235094   2.169   5.390   6.316
11713TIP3   OH235095   5.275   7.693   0.798
11713TIP3    H135096   5.307   7.775   0.836
11713TIP3    H235097   5.351   7.655   0.755
11714TIP3   OH235098   5.766   2.148   4.948
11714TIP3    H135099   5.781   2.167   4.856
11714TIP3    H235100   5.833   2.084   4.971
11715TIP3   OH235101   2.683   1.304   3.827
11715TIP3    H135102   2.671   1.214   3.856
11715TIP3    H235103   2.642   1.308   3.741
11716TIP3   OH235104   3.037   0.398   2.042
11716TIP3    H135105   2.994   0.443   2.114
11716TIP3    H235106   3.015   0.305   2.054
11717TIP3   OH235107   5.166   0.827   6.227
11717TIP3    H135108   5.136   0.838   6.137
11717TIP3    H235109   5.087   0.840   6.280
11718TIP3   OH235110   7.938   6.165   2.527
11718TIP3    H135111   7.854   6.150   2.483
11718TIP3    H235112   7.964   6.079   2.559
11719TIP3   OH235113   6.389   7.024   6.119
11719TIP3    H135114   6.472   7.067   6.095
11719TIP3    H235115   6.327   7.053   6.052
11720TIP3   OH235116   0.717   1.376   4.174
11720TIP3    H135117   0.675   1.308   4.122
11720TIP3    H235118   0.652   1.446   4.179
11721TIP3   OH235119   6.575   7.143   5.350
11721TIP3    H135120   6.637   7.160   5.279
11721TIP3    H235121   6.503   7.204   5.335
11722TIP3   OH235122   4.061   5.175   1.414
11722TIP3    H135123   4.065   5.168   1.319
11722TIP3    H235124   3.968   5.164   1.435
11723TIP3   OH235125   5.056   0.206   5.291
11723TIP3    H135126   5.006   0.165   5.220
11723TIP3    H235127   5.089   0.287   5.253
11724TIP3   OH235128   6.090   3.339   2.996
11724TIP3    H135129   6.138   3.256   2.998
11724TIP3    H235130   6.058   3.347   2.906
11725TIP3   OH235131   7.785   3.395   0.341
11725TIP3    H135132   7.718   3.379   0.407
11725TIP3    H235133   7.868   3.379   0.386
11726TIP3   OH235134   0.061   4.647   6.375
11726TIP3    H135135   0.001   4.573   6.390
11726TIP3    H235136   0.148   4.608   6.384
11727TIP3   OH235137   1.631   6.851   1.753
11727TIP3    H135138   1.589   6.851   1.667
11727TIP3    H235139   1.570   6.898   1.810
11728TIP3   OH235140   1.275   2.209   3.351
11728TIP3    H135141   1.236   2.275   3.408
11728TIP3    H235142   1.313   2.145   3.410
11729TIP3   OH235143   1.315   2.849   2.137
11729TIP3    H135144   1.246   2.783   2.127
11729TIP3    H235145   1.341   2.871   2.047
11730TIP3   OH235146   3.966   0.406   5.856
11730TIP3    H135147   3.918   0.400   5.938
11730TIP3    H235148   4.057   0.388   5.880
11731TIP3   OH235149   6.411   4.595   6.009
11731TIP3    H135150   6.374   4.683   6.020
11731TIP3    H235151   6.349   4.549   5.952
11732TIP3   OH235152   7.311   4.679   4.238
11732TIP3    H135153   7.257   4.671   4.159
11732TIP3    H235154   7.400   4.692   4.205
11733TIP3   OH235155   4.817   3.041   1.789
11733TIP3    H135156   4.753   3.080   1.729
11733TIP3    H235157   4.765   3.011   1.863
11734TIP3   OH235158   5.065   7.435   5.061
11734TIP3    H135159   5.129   7.497   5.026
11734TIP3    H235160   5.114   7.353   5.068
11735TIP3   OH235161   8.185   1.140   0.703
11735TIP3    H135162   8.216   1.200   0.635
11735TIP3    H235163   8.113   1.187   0.745
11736TIP3   OH235164   2.256   4.759   4.957
11736TIP3    H135165   2.331   4.700   4.953
11736TIP3    H235166   2.180   4.701   4.965
11737TIP3   OH235167   2.657   2.514   6.632
11737TIP3    H135168   2.718   2.576   6.671
11737TIP3    H235169   2.658   2.535   6.539
11738TIP3   OH235170   0.934   4.952   3.820
11738TIP3    H135171   0.868   4.905   3.770
11738TIP3    H235172   0.921   4.924   3.911
11739TIP3   OH235173   5.789   0.662   1.332
11739TIP3    H135174   5.765   0.594   1.395
11739TIP3    H235175   5.885   0.659   1.331
11740TIP3   OH235176   3.471   5.569   1.929
11740TIP3    H135177   3.538   5.607   1.872
11740TIP3    H235178   3.438   5.643   1.980
11741TIP3   OH235179   0.467   7.626   5.793
11741TIP3    H135180   0.400   7.694   5.798
11741TIP3    H235181   0.515   7.645   5.712
11742TIP3   OH235182   4.220   7.523   6.617
11742TIP3    H135183   4.231   7.614   6.589
11742TIP3    H235184   4.275   7.472   6.556
11743TIP3   OH235185   3.561   1.912   1.675
11743TIP3    H135186   3.575   1.836   1.619
11743TIP3    H235187   3.616   1.980   1.636
11744TIP3   OH235188   6.767   6.585   1.838
11744TIP3    H135189   6.749   6.662   1.784
11744TIP3    H235190   6.754   6.511   1.779
11745TIP3   OH235191   3.741   0.239   2.634
11745TIP3    H135192   3.661   0.292   2.641
11745TIP3    H235193   3.714   0.151   2.663
11746TIP3   OH235194   7.360   3.061   6.625
11746TIP3    H135195   7.391   3.001   6.692
11746TIP3    H235196   7.364   3.148   6.666
11747TIP3   OH235197   3.557   2.970   1.868
11747TIP3    H135198   3.552   2.930   1.954
11747TIP3    H235199   3.499   3.047   1.874
11748TIP3   OH235200   3.292   5.444   0.847
11748TIP3    H135201   3.218   5.482   0.800
11748TIP3    H235202   3.319   5.370   0.793
11749TIP3   OH235203   3.017   3.901   6.572
11749TIP3    H135204   3.111   3.921   6.572
11749TIP3    H235205   2.975   3.982   6.599
11750TIP3   OH235206   2.825   2.143   2.349
11750TIP3    H135207   2.781   2.119   2.430
11750TIP3    H235208   2.787   2.085   2.283
11751TIP3   OH235209   5.576   6.356   1.727
11751TIP3    H135210   5.641   6.319   1.667
11751TIP3    H235211   5.613   6.341   1.814
11752TIP3   OH235212   8.086   5.546   6.739
11752TIP3    H135213   8.173   5.560   6.702
11752TIP3    H235214   8.032   5.615   6.702
11753TIP3   OH235215   1.251   5.153   3.467
11753TIP3    H135216   1.277   5.243   3.447
11753TIP3    H235217   1.172   5.140   3.414
11754TIP3   OH235218   6.003   1.475   4.591
11754TIP3    H135219   5.914   1.467   4.625
11754TIP3    H235220   6.028   1.565   4.612
11755TIP3   OH235221   2.230   6.807   4.102
11755TIP3    H135222   2.320   6.774   4.099
11755TIP3    H235223   2.200   6.801   4.011
11756TIP3   OH235224   7.044   7.160   6.309
11756TIP3    H135225   7.071   7.251   6.292
11756TIP3    H235226   7.049   7.118   6.223
11757TIP3   OH235227   2.954   1.216   2.163
11757TIP3    H135228   2.872   1.211   2.115
11757TIP3    H235229   2.942   1.159   2.239
11758TIP3   OH235230   2.029   2.216   4.390
11758TIP3    H135231   2.038   2.240   4.483
11758TIP3    H235232   1.936   2.193   4.381
11759TIP3   OH235233   2.088   6.473   1.692
11759TIP3    H135234   2.166   6.418   1.682
11759TIP3    H235235   2.029   6.421   1.746
11760TIP3   OH235236   7.625   4.017   3.374
11760TIP3    H135237   7.571   4.031   3.451
11760TIP3    H235238   7.687   3.948   3.400
11761TIP3   OH235239   0.433   7.301   2.780
11761TIP3    H135240   0.445   7.355   2.858
11761TIP3    H235241   0.370   7.235   2.807
11762TIP3   OH235242   3.101   6.438   3.512
11762TIP3    H135243   3.069   6.518   3.554
11762TIP3    H235244   3.136   6.467   3.428
11763TIP3   OH235245   4.128   4.196   6.384
11763TIP3    H135246   4.132   4.257   6.457
11763TIP3    H235247   4.145   4.111   6.423
11764TIP3   OH235248   0.064   6.356   2.598
11764TIP3    H135249  -0.021   6.357   2.555
11764TIP3    H235250   0.096   6.446   2.591
11765TIP3   OH235251   3.197   3.499   2.051
11765TIP3    H135252   3.270   3.551   2.017
11765TIP3    H235253   3.194   3.422   1.995
11766TIP3   OH235254   3.500   2.183   0.759
11766TIP3    H135255   3.501   2.238   0.838
11766TIP3    H235256   3.477   2.244   0.688
11767TIP3   OH235257   1.619   6.761   2.155
11767TIP3    H135258   1.701   6.712   2.146
11767TIP3    H235259   1.605   6.767   2.249
11768TIP3   OH235260   2.480   6.424   6.600
11768TIP3    H135261   2.487   6.423   6.696
11768TIP3    H235262   2.526   6.504   6.574
11769TIP3   OH235263   4.795   4.653   3.972
11769TIP3    H135264   4.844   4.735   3.973
11769TIP3    H235265   4.860   4.585   3.984
11770TIP3   OH235266   2.159   6.994   0.561
11770TIP3    H135267   2.080   7.017   0.512
11770TIP3    H235268   2.211   7.074   0.561
11771TIP3   OH235269   3.663   6.545   6.032
11771TIP3    H135270   3.735   6.499   5.988
11771TIP3    H235271   3.603   6.475   6.057
11772TIP3   OH235272   4.528   0.081   3.202
11772TIP3    H135273   4.516   0.068   3.108
11772TIP3    H235274   4.612   0.128   3.209
11773TIP3   OH235275   7.076   5.060   2.430
11773TIP3    H135276   7.087   5.136   2.372
11773TIP3    H235277   7.000   5.082   2.484
11774TIP3   OH235278   5.515   2.310   3.121
11774TIP3    H135279   5.584   2.324   3.186
11774TIP3    H235280   5.562   2.301   3.038
11775TIP3   OH235281   6.720   1.335   5.183
11775TIP3    H135282   6.780   1.272   5.144
11775TIP3    H235283   6.642   1.284   5.204
11776TIP3   OH235284   2.584   4.108   0.022
11776TIP3    H135285   2.665   4.121  -0.026
11776TIP3    H235286   2.535   4.043  -0.029
11777TIP3   OH235287   7.199   1.055   0.978
11777TIP3    H135288   7.254   0.986   1.013
11777TIP3    H235289   7.252   1.097   0.910
11778TIP3   OH235290   7.439   0.528   4.088
11778TIP3    H135291   7.353   0.487   4.102
11778TIP3    H235292   7.432   0.567   4.000
11779TIP3   OH235293   2.293   2.584   3.279
11779TIP3    H135294   2.252   2.580   3.192
11779TIP3    H235295   2.372   2.635   3.266
11780TIP3   OH235296   3.317   5.432   2.520
11780TIP3    H135297   3.376   5.486   2.573
11780TIP3    H235298   3.376   5.384   2.462
11781TIP3   OH235299   5.189   3.318   6.505
11781TIP3    H135300   5.137   3.290   6.581
11781TIP3    H235301   5.153   3.268   6.432
11782TIP3   OH235302   1.097   0.027   1.129
11782TIP3    H135303   1.169   0.072   1.173
11782TIP3    H235304   1.137  -0.050   1.090
11783TIP3   OH235305   3.245   0.219   1.194
11783TIP3    H135306   3.312   0.248   1.132
11783TIP3    H235307   3.244   0.286   1.262
11784TIP3   OH235308   2.946   6.410   1.460
11784TIP3    H135309   2.904   6.450   1.383
11784TIP3    H235310   2.947   6.317   1.441
11785TIP3   OH235311   6.291   7.380   2.102
11785TIP3    H135312   6.364   7.325   2.075
11785TIP3    H235313   6.218   7.319   2.112
11786TIP3   OH235314   4.054   1.894   1.277
11786TIP3    H135315   4.034   1.928   1.364
11786TIP3    H235316   4.143   1.860   1.284
11787TIP3   OH235317   2.614   4.522   2.692
11787TIP3    H135318   2.638   4.523   2.784
11787TIP3    H235319   2.532   4.572   2.689
11788TIP3   OH235320   3.033   1.958   2.180
11788TIP3    H135321   3.073   1.872   2.167
11788TIP3    H235322   3.069   1.989   2.263
11789TIP3   OH235323   4.523   2.144   3.990
11789TIP3    H135324   4.471   2.097   4.055
11789TIP3    H235325   4.601   2.173   4.039
11790TIP3   OH235326   3.966   5.529   0.904
11790TIP3    H135327   4.029   5.514   0.834
11790TIP3    H235328   3.974   5.623   0.924
11791TIP3   OH235329   4.705   1.676   6.453
11791TIP3    H135330   4.627   1.633   6.418
11791TIP3    H235331   4.670   1.745   6.510
11792TIP3   OH235332   3.327   1.637   1.400
11792TIP3    H135333   3.355   1.712   1.348
11792TIP3    H235334   3.308   1.673   1.487
11793TIP3   OH235335   6.916   2.360   1.259
11793TIP3    H135336   6.901   2.286   1.200
11793TIP3    H235337   6.909   2.323   1.347
11794TIP3   OH235338   0.015   6.014   6.493
11794TIP3    H135339   0.076   5.948   6.461
11794TIP3    H235340   0.006   5.994   6.587
11795TIP3   OH235341   7.296   5.430   4.120
11795TIP3    H135342   7.384   5.460   4.098
11795TIP3    H235343   7.244   5.447   4.042
11796TIP3   OH235344   5.432   4.618   1.127
11796TIP3    H135345   5.436   4.559   1.203
11796TIP3    H235346   5.448   4.705   1.165
11797TIP3   OH235347   2.628   1.709   3.543
11797TIP3    H135348   2.645   1.684   3.634
11797TIP3    H235349   2.711   1.696   3.499
11798TIP3   OH235350   1.036   3.118   2.792
11798TIP3    H135351   1.067   3.098   2.880
11798TIP3    H235352   0.957   3.065   2.780
11799TIP3   OH235353   7.273   2.161   4.981
11799TIP3    H135354   7.302   2.101   4.913
11799TIP3    H235355   7.338   2.151   5.051
11800TIP3   OH235356   1.511   0.334   0.569
11800TIP3    H135357   1.465   0.250   0.576
11800TIP3    H235358   1.544   0.337   0.479
11801TIP3   OH235359   8.120   3.759   1.609
11801TIP3    H135360   8.141   3.700   1.682
11801TIP3    H235361   8.090   3.702   1.539
11802TIP3   OH235362   0.101   6.130   4.400
11802TIP3    H135363   0.034   6.082   4.350
11802TIP3    H235364   0.164   6.062   4.427
11803TIP3   OH235365   5.457   2.509   5.996
11803TIP3    H135366   5.416   2.565   5.930
11803TIP3    H235367   5.453   2.421   5.959
11804TIP3   OH235368   7.897   2.214   5.774
11804TIP3    H135369   7.918   2.271   5.848
11804TIP3    H235370   7.939   2.256   5.699
11805TIP3   OH235371   6.601   3.211   1.805
11805TIP3    H135372   6.620   3.132   1.856
11805TIP3    H235373   6.631   3.283   1.860
11806TIP3   OH235374   8.006   1.223   0.945
11806TIP3    H135375   8.006   1.141   0.995
11806TIP3    H235376   7.980   1.290   1.009
11807TIP3   OH235377   5.127   3.297   2.189
11807TIP3    H135378   5.139   3.354   2.265
11807TIP3    H235379   5.179   3.338   2.119
11808TIP3   OH235380   1.054   0.531   3.588
11808TIP3    H135381   0.981   0.510   3.646
11808TIP3    H235382   1.100   0.448   3.577
11809TIP3   OH235383   4.283   4.871   5.887
11809TIP3    H135384   4.267   4.781   5.860
11809TIP3    H235385   4.310   4.916   5.807
11810TIP3   OH235386   7.397   5.624   1.264
11810TIP3    H135387   7.387   5.691   1.197
11810TIP3    H235388   7.308   5.589   1.277
11811TIP3   OH235389   1.474   0.147   0.341
11811TIP3    H135390   1.421   0.084   0.293
11811TIP3    H235391   1.555   0.099   0.362
11812TIP3   OH235392   5.310   6.451   6.600
11812TIP3    H135393   5.379   6.392   6.629
11812TIP3    H235394   5.286   6.500   6.679
11813TIP3   OH235395   6.435   1.073   1.570
11813TIP3    H135396   6.364   1.024   1.613
11813TIP3    H235397   6.480   1.008   1.517
11814TIP3   OH235398   4.133   7.358   4.115
11814TIP3    H135399   4.223   7.334   4.094
11814TIP3    H235400   4.115   7.434   4.061
11815TIP3   OH235401   7.961   5.041   2.188
11815TIP3    H135402   7.939   4.949   2.174
11815TIP3    H235403   8.007   5.042   2.272
11816TIP3   OH235404   2.830   7.622   3.150
11816TIP3    H135405   2.735   7.624   3.161
11816TIP3    H235406   2.849   7.537   3.110
11817TIP3   OH235407   0.924   7.803   3.094
11817TIP3    H135408   0.963   7.726   3.135
11817TIP3    H235409   0.912   7.778   3.002
11818TIP3   OH235410   5.185   4.515   5.521
11818TIP3    H135411   5.208   4.468   5.601
11818TIP3    H235412   5.262   4.569   5.502
11819TIP3   OH235413   8.083   1.016   5.043
11819TIP3    H135414   8.176   1.036   5.032
11819TIP3    H235415   8.075   0.926   5.011
11820TIP3   OH235416   4.855   1.163   1.382
11820TIP3    H135417   4.936   1.204   1.352
11820TIP3    H235418   4.883   1.087   1.432
11821TIP3   OH235419   7.200   0.808   4.350
11821TIP3    H135420   7.186   0.816   4.256
11821TIP3    H235421   7.144   0.735   4.377
11822TIP3   OH235422   6.617   5.889   2.158
11822TIP3    H135423   6.690   5.828   2.154
11822TIP3    H235424   6.585   5.883   2.248
11823TIP3   OH235425   1.038   7.474   1.903
11823TIP3    H135426   0.952   7.504   1.934
11823TIP3    H235427   1.047   7.514   1.816
11824TIP3   OH235428   3.783   1.871   3.609
11824TIP3    H135429   3.742   1.927   3.675
11824TIP3    H235430   3.717   1.805   3.588
11825TIP3   OH235431   7.252   1.520   2.871
11825TIP3    H135432   7.293   1.550   2.790
11825TIP3    H235433   7.254   1.424   2.865
11826TIP3   OH235434   7.193   3.109   0.663
11826TIP3    H135435   7.151   3.185   0.623
11826TIP3    H235436   7.260   3.083   0.600
11827TIP3   OH235437   6.883   7.519   2.094
11827TIP3    H135438   6.852   7.493   2.181
11827TIP3    H235439   6.821   7.478   2.034
11828TIP3   OH235440   8.127   2.569   3.858
11828TIP3    H135441   8.152   2.645   3.806
11828TIP3    H235442   8.167   2.584   3.944
11829TIP3   OH235443   0.316   7.044   5.326
11829TIP3    H135444   0.342   7.036   5.417
11829TIP3    H235445   0.246   6.979   5.315
11830TIP3   OH235446   5.947   6.413   6.040
11830TIP3    H135447   5.963   6.328   5.999
11830TIP3    H235448   5.902   6.464   5.973
11831TIP3   OH235449   4.965   2.699   1.197
11831TIP3    H135450   4.944   2.618   1.150
11831TIP3    H235451   4.895   2.707   1.262
11832TIP3   OH235452   4.997   2.657   3.670
11832TIP3    H135453   4.965   2.747   3.658
11832TIP3    H235454   5.026   2.654   3.761
11833TIP3   OH235455   7.867   5.428   5.924
11833TIP3    H135456   7.911   5.356   5.879
11833TIP3    H235457   7.783   5.437   5.879
11834TIP3   OH235458   2.697   5.500   0.297
11834TIP3    H135459   2.741   5.500   0.212
11834TIP3    H235460   2.610   5.464   0.279
11835TIP3   OH235461   6.779   5.664   2.880
11835TIP3    H135462   6.805   5.709   2.800
11835TIP3    H235463   6.755   5.734   2.940
11836TIP3   OH235464   8.143   1.780   0.450
11836TIP3    H135465   8.057   1.741   0.432
11836TIP3    H235466   8.203   1.706   0.456
11837TIP3   OH235467   4.231   2.749   1.850
11837TIP3    H135468   4.225   2.720   1.759
11837TIP3    H235469   4.150   2.798   1.865
11838TIP3   OH235470   3.575   2.791   0.303
11838TIP3    H135471   3.510   2.805   0.371
11838TIP3    H235472   3.571   2.870   0.250
11839TIP3   OH235473   6.584   2.312   2.392
11839TIP3    H135474   6.600   2.219   2.382
11839TIP3    H235475   6.667   2.348   2.425
11840TIP3   OH235476   2.936   4.244   5.831
11840TIP3    H135477   2.974   4.164   5.866
11840TIP3    H235478   2.919   4.298   5.909
11841TIP3   OH235479   4.262   4.397   3.523
11841TIP3    H135480   4.319   4.433   3.591
11841TIP3    H235481   4.323   4.356   3.461
11842TIP3   OH235482   5.267   7.209   6.076
11842TIP3    H135483   5.224   7.213   6.161
11842TIP3    H235484   5.332   7.279   6.079
11843TIP3   OH235485   1.664   7.049   6.181
11843TIP3    H135486   1.602   7.067   6.110
11843TIP3    H235487   1.656   6.954   6.195
11844TIP3   OH235488   4.610   2.428   2.004
11844TIP3    H135489   4.582   2.501   1.949
11844TIP3    H235490   4.564   2.442   2.087
11845TIP3   OH235491   4.166   2.792   4.448
11845TIP3    H135492   4.120   2.725   4.398
11845TIP3    H235493   4.100   2.861   4.463
11846TIP3   OH235494   0.237   7.180   6.505
11846TIP3    H135495   0.173   7.109   6.507
11846TIP3    H235496   0.192   7.256   6.542
11847TIP3   OH235497   1.105   3.851   3.425
11847TIP3    H135498   1.152   3.935   3.424
11847TIP3    H235499   1.042   3.860   3.496
11848TIP3   OH235500   2.973   0.866   0.997
11848TIP3    H135501   3.067   0.883   0.993
11848TIP3    H235502   2.938   0.909   0.919
11849TIP3   OH235503   7.603   4.027   3.980
11849TIP3    H135504   7.512   4.051   3.964
11849TIP3    H235505   7.654   4.087   3.926
11850TIP3   OH235506   4.464   1.741   6.630
11850TIP3    H135507   4.427   1.781   6.710
11850TIP3    H235508   4.417   1.659   6.620
11851TIP3   OH235509   5.417   4.809   2.115
11851TIP3    H135510   5.482   4.772   2.175
11851TIP3    H235511   5.468   4.861   2.053
11852TIP3   OH235512   3.450   0.889   5.098
11852TIP3    H135513   3.445   0.972   5.145
11852TIP3    H235514   3.463   0.823   5.167
11853TIP3   OH235515   0.023   0.799   0.459
11853TIP3    H135516   0.072   0.744   0.520
11853TIP3    H235517  -0.059   0.818   0.504
11854TIP3   OH235518   7.332   0.079   0.938
11854TIP3    H135519   7.293   0.074   1.025
11854TIP3    H235520   7.270   0.034   0.881
11855TIP3   OH235521   4.297   6.655   0.468
11855TIP3    H135522   4.224   6.685   0.522
11855TIP3    H235523   4.374   6.672   0.521
11856TIP3   OH235524   4.226   4.232   0.022
11856TIP3    H135525   4.242   4.143   0.055
11856TIP3    H235526   4.313   4.266   0.002
11857TIP3   OH235527   5.619   1.968   1.109
11857TIP3    H135528   5.580   2.047   1.073
11857TIP3    H235529   5.666   1.998   1.187
11858TIP3   OH235530   2.492   3.639   0.615
11858TIP3    H135531   2.484   3.718   0.561
11858TIP3    H235532   2.497   3.567   0.552
11859TIP3   OH235533   8.251   1.441   6.609
11859TIP3    H135534   8.163   1.422   6.577
11859TIP3    H235535   8.299   1.359   6.597
11860TIP3   OH235536   3.483   0.926   2.451
11860TIP3    H135537   3.535   0.869   2.394
11860TIP3    H235538   3.546   0.960   2.515
11861TIP3   OH235539   0.353   2.048   5.964
11861TIP3    H135540   0.305   2.071   5.885
11861TIP3    H235541   0.405   1.971   5.939
11862TIP3   OH235542   2.448   5.295   3.882
11862TIP3    H135543   2.486   5.272   3.798
11862TIP3    H235544   2.492   5.376   3.907
11863TIP3   OH235545   7.297   7.708   0.665
11863TIP3    H135546   7.210   7.742   0.647
11863TIP3    H235547   7.351   7.787   0.674
11864TIP3   OH235548   4.210   4.105   6.137
11864TIP3    H135549   4.212   4.180   6.078
11864TIP3    H235550   4.177   4.141   6.220
11865TIP3   OH235551   6.968   1.554   3.052
11865TIP3    H135552   6.904   1.576   3.120
11865TIP3    H235553   7.005   1.471   3.081
11866TIP3   OH235554   6.122   6.523   0.102
11866TIP3    H135555   6.045   6.566   0.066
11866TIP3    H235556   6.094   6.494   0.190
11867TIP3   OH235557   4.149   0.923   5.887
11867TIP3    H135558   4.095   0.983   5.938
11867TIP3    H235559   4.087   0.872   5.836
11868TIP3   OH235560   0.416   6.733   5.524
11868TIP3    H135561   0.511   6.739   5.513
11868TIP3    H235562   0.388   6.820   5.550
11869TIP3   OH235563   6.414   1.489   5.625
11869TIP3    H135564   6.488   1.549   5.625
11869TIP3    H235565   6.382   1.491   5.535
11870TIP3   OH235566   1.102   1.417   6.593
11870TIP3    H135567   1.132   1.349   6.653
11870TIP3    H235568   1.050   1.370   6.528
11871TIP3   OH235569   6.525   4.793   0.799
11871TIP3    H135570   6.523   4.889   0.802
11871TIP3    H235571   6.610   4.770   0.835
11872TIP3   OH235572   5.244   2.797   2.792
11872TIP3    H135573   5.307   2.730   2.820
11872TIP3    H235574   5.296   2.858   2.741
11873TIP3   OH235575   1.967   1.523   5.903
11873TIP3    H135576   1.922   1.564   5.829
11873TIP3    H235577   1.915   1.445   5.922
11874TIP3   OH235578   1.648   4.061   5.687
11874TIP3    H135579   1.624   3.994   5.751
11874TIP3    H235580   1.741   4.075   5.701
11875TIP3   OH235581   0.662   3.700   5.781
11875TIP3    H135582   0.596   3.717   5.849
11875TIP3    H235583   0.726   3.770   5.791
11876TIP3   OH235584   3.678   1.325   6.438
11876TIP3    H135585   3.681   1.382   6.515
11876TIP3    H235586   3.683   1.236   6.474
11877TIP3   OH235587   6.153   3.292   4.355
11877TIP3    H135588   6.139   3.199   4.336
11877TIP3    H235589   6.241   3.310   4.324
11878TIP3   OH235590   4.611   4.140   6.247
11878TIP3    H135591   4.580   4.156   6.336
11878TIP3    H235592   4.580   4.052   6.225
11879TIP3   OH235593   0.186   6.777   3.454
11879TIP3    H135594   0.185   6.712   3.383
11879TIP3    H235595   0.277   6.779   3.483
11880TIP3   OH235596   5.576   3.998   6.718
11880TIP3    H135597   5.563   4.090   6.695
11880TIP3    H235598   5.605   3.957   6.636
11881TIP3   OH235599   7.067   3.895   2.824
11881TIP3    H135600   7.051   3.857   2.738
11881TIP3    H235601   7.161   3.917   2.824
11882TIP3   OH235602   8.132   1.979   2.418
11882TIP3    H135603   8.077   1.960   2.494
11882TIP3    H235604   8.124   2.073   2.405
11883TIP3   OH235605   0.599   6.937   1.863
11883TIP3    H135606   0.684   6.922   1.904
11883TIP3    H235607   0.536   6.896   1.922
11884TIP3   OH235608   1.193   3.950   4.017
11884TIP3    H135609   1.266   3.910   3.970
11884TIP3    H235610   1.226   4.036   4.043
11885TIP3   OH235611   7.235   4.228   5.440
11885TIP3    H135612   7.319   4.262   5.471
11885TIP3    H235613   7.173   4.300   5.454
11886TIP3   OH235614   1.597   5.629   2.161
11886TIP3    H135615   1.620   5.570   2.233
11886TIP3    H235616   1.504   5.647   2.174
11887TIP3   OH235617   6.155   1.181   5.037
11887TIP3    H135618   6.068   1.202   5.002
11887TIP3    H235619   6.139   1.153   5.127
11888TIP3   OH235620   3.413   1.118   5.270
11888TIP3    H135621   3.433   1.082   5.357
11888TIP3    H235622   3.323   1.150   5.278
11889TIP3   OH235623   6.509   0.923   0.721
11889TIP3    H135624   6.445   0.994   0.720
11889TIP3    H235625   6.583   0.958   0.671
11890TIP3   OH235626   5.491   4.176   2.683
11890TIP3    H135627   5.517   4.267   2.668
11890TIP3    H235628   5.572   4.133   2.712
11891TIP3   OH235629   2.762   5.619   4.844
11891TIP3    H135630   2.747   5.532   4.807
11891TIP3    H235631   2.851   5.641   4.819
11892TIP3   OH235632   7.093   1.914   0.982
11892TIP3    H135633   7.155   1.844   0.958
11892TIP3    H235634   7.029   1.871   1.038
11893TIP3   OH235635   4.759   6.583   1.227
11893TIP3    H135636   4.789   6.662   1.272
11893TIP3    H235637   4.813   6.513   1.263
11894TIP3   OH235638   1.592   1.685   4.562
11894TIP3    H135639   1.584   1.685   4.467
11894TIP3    H235640   1.504   1.670   4.595
11895TIP3   OH235641   7.464   5.516   0.915
11895TIP3    H135642   7.436   5.607   0.926
11895TIP3    H235643   7.515   5.497   0.994
11896TIP3   OH235644   1.022   3.213   2.047
11896TIP3    H135645   1.082   3.211   2.122
11896TIP3    H235646   0.998   3.305   2.038
11897TIP3   OH235647   1.659   3.863   2.723
11897TIP3    H135648   1.607   3.942   2.706
11897TIP3    H235649   1.710   3.850   2.643
11898TIP3   OH235650   3.733   4.116   0.001
11898TIP3    H135651   3.824   4.101   0.023
11898TIP3    H235652   3.688   4.036   0.027
11899TIP3   OH235653   1.920   2.629   5.433
11899TIP3    H135654   1.914   2.722   5.410
11899TIP3    H235655   1.874   2.584   5.363
11900TIP3   OH235656   0.026   2.201   0.993
11900TIP3    H135657   0.061   2.285   1.023
11900TIP3    H235658  -0.063   2.221   0.963
11901TIP3   OH235659   6.745   7.222   0.793
11901TIP3    H135660   6.734   7.150   0.855
11901TIP3    H235661   6.687   7.200   0.720
11902TIP3   OH235662   5.546   6.734   4.038
11902TIP3    H135663   5.585   6.768   4.119
11902TIP3    H235664   5.598   6.658   4.016
11903TIP3   OH235665   6.979   4.637   3.221
11903TIP3    H135666   6.972   4.553   3.266
11903TIP3    H235667   6.973   4.615   3.128
11904TIP3   OH235668   4.572   4.916   6.678
11904TIP3    H135669   4.551   4.960   6.596
11904TIP3    H235670   4.624   4.840   6.652
11905TIP3   OH235671   4.434   7.307   1.744
11905TIP3    H135672   4.371   7.375   1.719
11905TIP3    H235673   4.387   7.225   1.728
11906TIP3   OH235674   5.548   5.730   0.134
11906TIP3    H135675   5.516   5.640   0.136
11906TIP3    H235676   5.642   5.722   0.148
11907TIP3   OH235677   3.607   5.679   0.949
11907TIP3    H135678   3.619   5.599   0.897
11907TIP3    H235679   3.583   5.648   1.036
11908TIP3   OH235680   7.095   3.128   3.167
11908TIP3    H135681   7.164   3.165   3.113
11908TIP3    H235682   7.130   3.045   3.199
11909TIP3   OH235683   6.374   5.250   6.341
11909TIP3    H135684   6.416   5.329   6.306
11909TIP3    H235685   6.284   5.276   6.359
11910TIP3   OH235686   8.243   3.937   1.073
11910TIP3    H135687   8.278   4.024   1.092
11910TIP3    H235688   8.317   3.878   1.087
11911TIP3   OH235689   6.292   4.341   5.361
11911TIP3    H135690   6.292   4.404   5.433
11911TIP3    H235691   6.337   4.264   5.396
11912TIP3   OH235692   0.512   6.874   5.964
11912TIP3    H135693   0.419   6.889   5.950
11912TIP3    H235694   0.527   6.784   5.936
11913TIP3   OH235695   4.559   4.121   0.653
11913TIP3    H135696   4.495   4.159   0.713
11913TIP3    H235697   4.519   4.039   0.624
11914TIP3   OH235698   5.094   2.859   6.308
11914TIP3    H135699   5.051   2.815   6.381
11914TIP3    H235700   5.031   2.852   6.235
11915TIP3   OH235701   5.593   7.654   5.881
11915TIP3    H135702   5.586   7.716   5.953
11915TIP3    H235703   5.511   7.664   5.832
11916TIP3   OH235704   0.958   2.890   4.702
11916TIP3    H135705   1.040   2.919   4.661
11916TIP3    H235706   0.890   2.939   4.656
11917TIP3   OH235707   0.361   1.655   1.296
11917TIP3    H135708   0.428   1.587   1.305
11917TIP3    H235709   0.286   1.621   1.344
11918TIP3   OH235710   5.049   4.109   1.315
11918TIP3    H135711   5.098   4.027   1.321
11918TIP3    H235712   5.011   4.108   1.227
11919TIP3   OH235713   3.510   0.052   0.748
11919TIP3    H135714   3.518   0.039   0.653
11919TIP3    H235715   3.553   0.136   0.764
11920TIP3   OH235716   7.330   3.621   2.948
11920TIP3    H135717   7.364   3.535   2.970
11920TIP3    H235718   7.312   3.618   2.854
11921TIP3   OH235719   3.522   0.422   2.324
11921TIP3    H135720   3.430   0.440   2.303
11921TIP3    H235721   3.568   0.434   2.241
11922TIP3   OH235722   4.802   0.264   0.366
11922TIP3    H135723   4.714   0.246   0.332
11922TIP3    H235724   4.793   0.253   0.461
11923TIP3   OH235725   5.303   1.515   4.702
11923TIP3    H135726   5.308   1.557   4.787
11923TIP3    H235727   5.301   1.588   4.639
11924TIP3   OH235728   7.927   1.355   6.211
11924TIP3    H135729   7.942   1.283   6.149
11924TIP3    H235730   8.000   1.415   6.196
11925TIP3   OH235731   5.579   0.006   2.358
11925TIP3    H135732   5.565   0.101   2.360
11925TIP3    H235733   5.558  -0.023   2.447
11926TIP3   OH235734   0.992   7.559   3.165
11926TIP3    H135735   1.042   7.529   3.241
11926TIP3    H235736   0.938   7.483   3.141
11927TIP3   OH235737   5.059   5.571   3.972
11927TIP3    H135738   4.994   5.541   4.036
11927TIP3    H235739   5.027   5.539   3.888
11928TIP3   OH235740   3.200   7.398   5.202
11928TIP3    H135741   3.194   7.420   5.295
11928TIP3    H235742   3.194   7.302   5.199
11929TIP3   OH235743   1.901   6.829   4.954
11929TIP3    H135744   1.827   6.838   4.894
11929TIP3    H235745   1.901   6.910   5.005
11930TIP3   OH235746   6.360   6.059   1.882
11930TIP3    H135747   6.289   6.060   1.817
11930TIP3    H235748   6.315   6.054   1.966
11931TIP3   OH235749   7.161   5.628   2.163
11931TIP3    H135750   7.223   5.599   2.096
11931TIP3    H235751   7.082   5.577   2.144
11932TIP3   OH235752   5.696   2.655   3.751
11932TIP3    H135753   5.682   2.674   3.844
11932TIP3    H235754   5.676   2.562   3.743
11933TIP3   OH235755   1.685   4.245   0.119
11933TIP3    H135756   1.626   4.276   0.187
11933TIP3    H235757   1.751   4.193   0.166
11934TIP3   OH235758   7.090   5.894   4.888
11934TIP3    H135759   7.071   5.800   4.894
11934TIP3    H235760   7.039   5.933   4.959
11935TIP3   OH235761   5.762   0.947   1.304
11935TIP3    H135762   5.856   0.965   1.301
11935TIP3    H235763   5.753   0.860   1.264
11936TIP3   OH235764   8.295   3.688   0.187
11936TIP3    H135765   8.244   3.762   0.220
11936TIP3    H235766   8.245   3.656   0.112
11937TIP3   OH235767   2.901   6.230   2.236
11937TIP3    H135768   2.918   6.307   2.290
11937TIP3    H235769   2.962   6.237   2.163
11938TIP3   OH235770   5.481   0.470   1.739
11938TIP3    H135771   5.463   0.438   1.828
11938TIP3    H235772   5.519   0.557   1.753
11939TIP3   OH235773   3.364   6.613   6.191
11939TIP3    H135774   3.369   6.700   6.231
11939TIP3    H235775   3.295   6.621   6.125
11940TIP3   OH235776   5.607   1.511   4.505
11940TIP3    H135777   5.531   1.514   4.446
11940TIP3    H235778   5.650   1.428   4.483
11941TIP3   OH235779   3.983   2.706   1.341
11941TIP3    H135780   3.921   2.673   1.406
11941TIP3    H235781   3.976   2.801   1.347
11942TIP3   OH235782   6.726   3.241   5.222
11942TIP3    H135783   6.646   3.238   5.170
11942TIP3    H235784   6.722   3.162   5.276
11943TIP3   OH235785   0.272   1.237   1.548
11943TIP3    H135786   0.202   1.178   1.523
11943TIP3    H235787   0.257   1.256   1.641
11944TIP3   OH235788   1.868   5.849   3.918
11944TIP3    H135789   1.905   5.765   3.891
11944TIP3    H235790   1.843   5.835   4.010
11945TIP3   OH235791   2.652   5.163   6.605
11945TIP3    H135792   2.688   5.243   6.642
11945TIP3    H235793   2.562   5.160   6.636
11946TIP3   OH235794   1.416   7.364   5.213
11946TIP3    H135795   1.393   7.358   5.306
11946TIP3    H235796   1.491   7.306   5.203
11947TIP3   OH235797   5.262   0.548   5.688
11947TIP3    H135798   5.338   0.491   5.697
11947TIP3    H235799   5.196   0.494   5.645
11948TIP3   OH235800   5.127   2.492   4.477
11948TIP3    H135801   5.151   2.432   4.406
11948TIP3    H235802   5.185   2.567   4.466
11949TIP3   OH235803   3.031   2.670   1.786
11949TIP3    H135804   3.001   2.596   1.732
11949TIP3    H235805   3.058   2.629   1.868
11950TIP3   OH235806   1.666   5.358   1.377
11950TIP3    H135807   1.709   5.441   1.355
11950TIP3    H235808   1.573   5.380   1.385
11951TIP3   OH235809   7.179   1.299   4.978
11951TIP3    H135810   7.201   1.206   4.966
11951TIP3    H235811   7.260   1.339   5.007
11952TIP3   OH235812   3.828   7.020   3.177
11952TIP3    H135813   3.922   7.004   3.165
11952TIP3    H235814   3.825   7.082   3.250
11953TIP3   OH235815   6.830   5.679   1.403
11953TIP3    H135816   6.838   5.733   1.325
11953TIP3    H235817   6.771   5.608   1.377
11954TIP3   OH235818   7.656   0.222   3.301
11954TIP3    H135819   7.569   0.202   3.267
11954TIP3    H235820   7.692   0.287   3.240
11955TIP3   OH235821   0.743   4.359   4.561
11955TIP3    H135822   0.679   4.349   4.491
11955TIP3    H235823   0.720   4.290   4.624
11956TIP3   OH235824   7.900   3.143   3.005
11956TIP3    H135825   7.845   3.147   2.927
11956TIP3    H235826   7.842   3.167   3.077
11957TIP3   OH235827   0.520   5.874   6.067
11957TIP3    H135828   0.491   5.794   6.110
11957TIP3    H235829   0.594   5.847   6.013
11958TIP3   OH235830   1.504   2.254   5.641
11958TIP3    H135831   1.426   2.283   5.688
11958TIP3    H235832   1.503   2.305   5.559
11959TIP3   OH235833   4.786   7.341   0.652
11959TIP3    H135834   4.827   7.344   0.566
11959TIP3    H235835   4.809   7.255   0.687
11960TIP3   OH235836   0.622   7.449   2.647
11960TIP3    H135837   0.554   7.382   2.657
11960TIP3    H235838   0.671   7.445   2.728
11961TIP3   OH235839   0.582   0.069   0.184
11961TIP3    H135840   0.638   0.078   0.107
11961TIP3    H235841   0.577   0.158   0.220
11962TIP3   OH235842   0.519   2.282   3.811
11962TIP3    H135843   0.527   2.277   3.715
11962TIP3    H235844   0.593   2.337   3.838
11963TIP3   OH235845   6.434   2.853   2.084
11963TIP3    H135846   6.514   2.897   2.054
11963TIP3    H235847   6.398   2.911   2.151
11964TIP3   OH235848   8.203   2.410   4.800
11964TIP3    H135849   8.269   2.479   4.794
11964TIP3    H235850   8.237   2.339   4.745
11965TIP3   OH235851   5.928   7.245   4.291
11965TIP3    H135852   5.917   7.214   4.201
11965TIP3    H235853   6.001   7.307   4.287
11966TIP3   OH235854   7.292   1.533   0.624
11966TIP3    H135855   7.376   1.519   0.667
11966TIP3    H235856   7.235   1.465   0.661
11967TIP3   OH235857   8.231   3.826   6.203
11967TIP3    H135858   8.308   3.882   6.192
11967TIP3    H235859   8.238   3.762   6.133
11968TIP3   OH235860   1.273   0.365   4.042
11968TIP3    H135861   1.240   0.431   4.104
11968TIP3    H235862   1.207   0.296   4.042
11969TIP3   OH235863   7.487   6.443   2.025
11969TIP3    H135864   7.485   6.357   1.984
11969TIP3    H235865   7.423   6.494   1.976
11970TIP3   OH235866   2.178   3.047   0.606
11970TIP3    H135867   2.223   2.967   0.577
11970TIP3    H235868   2.164   3.098   0.526
11971TIP3   OH235869   2.000   2.672   2.221
11971TIP3    H135870   1.976   2.612   2.292
11971TIP3    H235871   2.080   2.716   2.253
11972TIP3   OH235872   3.214   5.047   6.354
11972TIP3    H135873   3.277   5.053   6.426
11972TIP3    H235874   3.246   5.111   6.290
11973TIP3   OH235875   2.730   1.035   0.889
11973TIP3    H135876   2.787   1.071   0.821
11973TIP3    H235877   2.654   1.001   0.842
11974TIP3   OH235878   2.867   1.589   4.042
11974TIP3    H135879   2.842   1.630   4.124
11974TIP3    H235880   2.940   1.532   4.065
11975TIP3   OH235881   0.688   6.218   2.545
11975TIP3    H135882   0.695   6.127   2.575
11975TIP3    H235883   0.778   6.243   2.524
11976TIP3   OH235884   1.679   7.678   1.445
11976TIP3    H135885   1.703   7.715   1.530
11976TIP3    H235886   1.641   7.751   1.397
11977TIP3   OH235887   5.077   1.416   6.543
11977TIP3    H135888   5.037   1.435   6.458
11977TIP3    H235889   5.008   1.373   6.593
11978TIP3   OH235890   4.115   1.811   0.698
11978TIP3    H135891   4.122   1.795   0.792
11978TIP3    H235892   4.032   1.858   0.687
11979TIP3   OH235893   7.650   0.467   0.037
11979TIP3    H135894   7.622   0.542  -0.015
11979TIP3    H235895   7.715   0.504   0.098
11980TIP3   OH235896   8.089   5.943   4.503
11980TIP3    H135897   8.145   5.986   4.567
11980TIP3    H235898   8.050   5.870   4.550
11981TIP3   OH235899   1.687   2.452   3.834
11981TIP3    H135900   1.702   2.507   3.911
11981TIP3    H235901   1.699   2.363   3.866
11982TIP3   OH235902   0.198   0.653   3.205
11982TIP3    H135903   0.171   0.744   3.196
11982TIP3    H235904   0.281   0.656   3.252
11983TIP3   OH235905   0.258   4.439   3.578
11983TIP3    H135906   0.218   4.376   3.637
11983TIP3    H235907   0.329   4.479   3.629
11984TIP3   OH235908   6.285   6.481   4.050
11984TIP3    H135909   6.342   6.446   3.981
11984TIP3    H235910   6.318   6.570   4.064
11985TIP3   OH235911   5.773   0.162   4.329
11985TIP3    H135912   5.726   0.243   4.350
11985TIP3    H235913   5.865   0.189   4.324
11986TIP3   OH235914   4.336   1.247   2.643
11986TIP3    H135915   4.288   1.295   2.710
11986TIP3    H235916   4.272   1.183   2.610
11987TIP3   OH235917   1.849   4.890   6.482
11987TIP3    H135918   1.825   4.801   6.455
11987TIP3    H235919   1.811   4.898   6.570
11988TIP3   OH235920   6.114   0.206   2.102
11988TIP3    H135921   6.139   0.131   2.157
11988TIP3    H235922   6.034   0.239   2.143
11989TIP3   OH235923   1.651   5.280   2.156
11989TIP3    H135924   1.568   5.246   2.122
11989TIP3    H235925   1.625   5.351   2.215
11990TIP3   OH235926   5.910   3.798   1.607
11990TIP3    H135927   5.923   3.780   1.514
11990TIP3    H235928   5.925   3.714   1.650
11991TIP3   OH235929   3.832   3.904   5.909
11991TIP3    H135930   3.916   3.949   5.903
11991TIP3    H235931   3.838   3.853   5.990
11992TIP3   OH235932   5.305   5.041   3.738
11992TIP3    H135933   5.359   5.043   3.817
11992TIP3    H235934   5.323   4.954   3.700
11993TIP3   OH235935   4.915   0.738   5.145
11993TIP3    H135936   4.975   0.760   5.074
11993TIP3    H235937   4.971   0.730   5.222
11994TIP3   OH235938   6.329   5.014   3.392
11994TIP3    H135939   6.363   5.101   3.369
11994TIP3    H235940   6.337   4.964   3.311
11995TIP3   OH235941   6.889   3.120   4.381
11995TIP3    H135942   6.869   3.097   4.290
11995TIP3    H235943   6.965   3.066   4.403
11996TIP3   OH235944   0.282   3.374   3.510
11996TIP3    H135945   0.334   3.315   3.455
11996TIP3    H235946   0.293   3.341   3.599
11997TIP3   OH235947   3.146   2.763   6.527
11997TIP3    H135948   3.120   2.842   6.478
11997TIP3    H235949   3.218   2.726   6.477
11998TIP3   OH235950   1.450   3.486   4.735
11998TIP3    H135951   1.444   3.461   4.827
11998TIP3    H235952   1.421   3.408   4.687
11999TIP3   OH235953   3.675   3.610   0.828
11999TIP3    H135954   3.707   3.693   0.793
11999TIP3    H235955   3.723   3.543   0.780
12000TIP3   OH235956   6.322   3.100   5.713
12000TIP3    H135957   6.314   3.079   5.620
12000TIP3    H235958   6.234   3.127   5.740
12001TIP3   OH235959   5.039   7.736   1.084
12001TIP3    H135960   5.097   7.771   1.152
12001TIP3    H235961   5.086   7.754   1.002
12002TIP3   OH235962   2.476   0.321   5.906
12002TIP3    H135963   2.433   0.369   5.835
12002TIP3    H235964   2.568   0.314   5.878
12003TIP3   OH235965   1.659   3.865   4.095
12003TIP3    H135966   1.610   3.870   4.176
12003TIP3    H235967   1.680   3.772   4.085
12004TIP3   OH235968   2.915   3.718   3.930
12004TIP3    H135969   2.916   3.812   3.947
12004TIP3    H235970   2.898   3.711   3.836
12005TIP3   OH235971   2.666   4.052   5.897
12005TIP3    H135972   2.607   4.087   5.830
12005TIP3    H235973   2.684   4.126   5.954
12006TIP3   OH235974   2.809   5.444   1.456
12006TIP3    H135975   2.856   5.377   1.407
12006TIP3    H235976   2.769   5.500   1.389
12007TIP3   OH235977   4.944   6.273   1.542
12007TIP3    H135978   4.924   6.220   1.465
12007TIP3    H235979   4.863   6.318   1.563
12008TIP3   OH235980   6.638   6.585   2.778
12008TIP3    H135981   6.660   6.589   2.685
12008TIP3    H235982   6.605   6.496   2.791
12009TIP3   OH235983   2.705   7.111   5.467
12009TIP3    H135984   2.782   7.168   5.463
12009TIP3    H235985   2.733   7.037   5.521
12010TIP3   OH235986   4.078   5.006   2.070
12010TIP3    H135987   4.033   4.950   2.007
12010TIP3    H235988   4.010   5.035   2.130
12011TIP3   OH235989   7.871   3.542   5.393
12011TIP3    H135990   7.812   3.597   5.446
12011TIP3    H235991   7.938   3.513   5.455
12012TIP3   OH235992   0.102   6.496   0.372
12012TIP3    H135993   0.064   6.498   0.285
12012TIP3    H235994   0.028   6.486   0.431
12013TIP3   OH235995   4.464   6.292   0.445
12013TIP3    H135996   4.453   6.199   0.423
12013TIP3    H235997   4.468   6.336   0.360
12014TIP3   OH235998  -0.001   6.418   5.560
12014TIP3    H135999   0.043   6.336   5.583
12014TIP3    H236000   0.069   6.475   5.529
12015TIP3   OH236001   1.794   0.835   2.014
12015TIP3    H136002   1.823   0.852   1.925
12015TIP3    H236003   1.866   0.786   2.054
12016TIP3   OH236004   1.658   5.075   0.541
12016TIP3    H136005   1.566   5.079   0.516
12016TIP3    H236006   1.676   5.160   0.581
12017TIP3   OH236007   1.232   7.496   1.481
12017TIP3    H136008   1.256   7.533   1.396
12017TIP3    H236009   1.286   7.544   1.544
12018TIP3   OH236010   2.975   0.934   2.828
12018TIP3    H136011   2.921   0.876   2.882
12018TIP3    H236012   2.913   0.996   2.790
12019TIP3   OH236013   8.228   4.534   3.199
12019TIP3    H136014   8.266   4.607   3.247
12019TIP3    H236015   8.270   4.538   3.112
12020TIP3   OH236016   1.565   2.728   3.342
12020TIP3    H136017   1.512   2.667   3.291
12020TIP3    H236018   1.593   2.678   3.419
12021TIP3   OH236019   4.128   3.768   4.019
12021TIP3    H136020   4.207   3.718   3.998
12021TIP3    H236021   4.118   3.829   3.945
12022TIP3   OH236022   0.889   6.370   4.545
12022TIP3    H136023   0.980   6.371   4.515
12022TIP3    H236024   0.864   6.463   4.547
12023TIP3   OH236025   3.104   4.172   1.553
12023TIP3    H136026   3.100   4.206   1.463
12023TIP3    H236027   3.183   4.212   1.590
12024TIP3   OH236028   7.305   0.573   1.944
12024TIP3    H136029   7.265   0.507   1.887
12024TIP3    H236030   7.397   0.547   1.949
12025TIP3   OH236031   2.716   2.543   1.963
12025TIP3    H136032   2.682   2.489   2.034
12025TIP3    H236033   2.756   2.619   2.007
12026TIP3   OH236034   2.588   5.190   2.924
12026TIP3    H136035   2.541   5.119   2.968
12026TIP3    H236036   2.570   5.268   2.977
12027TIP3   OH236037   0.345   2.335   1.145
12027TIP3    H136038   0.272   2.372   1.096
12027TIP3    H236039   0.423   2.376   1.108
12028TIP3   OH236040   3.089   5.562   0.686
12028TIP3    H136041   3.168   5.614   0.667
12028TIP3    H236042   3.035   5.572   0.607
12029TIP3   OH236043   2.691   5.158   1.452
12029TIP3    H136044   2.661   5.238   1.409
12029TIP3    H236045   2.735   5.109   1.382
12030TIP3   OH236046   3.850   5.414   6.056
12030TIP3    H136047   3.782   5.349   6.042
12030TIP3    H236048   3.861   5.456   5.970
12031TIP3   OH236049   7.432   4.344   1.403
12031TIP3    H136050   7.376   4.377   1.333
12031TIP3    H236051   7.371   4.316   1.471
12032TIP3   OH236052   7.636   1.510   0.445
12032TIP3    H136053   7.707   1.521   0.382
12032TIP3    H236054   7.654   1.426   0.488
12033TIP3   OH236055   3.934   6.671   5.689
12033TIP3    H136056   3.984   6.752   5.696
12033TIP3    H236057   3.987   6.614   5.633
12034TIP3   OH236058   6.406   7.797   1.431
12034TIP3    H136059   6.480   7.854   1.454
12034TIP3    H236060   6.429   7.712   1.468
12035TIP3   OH236061   6.353   0.552   5.986
12035TIP3    H136062   6.314   0.632   5.950
12035TIP3    H236063   6.386   0.578   6.072
12036TIP3   OH236064   4.462   5.178   2.949
12036TIP3    H136065   4.458   5.083   2.957
12036TIP3    H236066   4.380   5.203   2.906
12037TIP3   OH236067   3.122   7.400   5.456
12037TIP3    H136068   3.026   7.399   5.457
12037TIP3    H236069   3.147   7.370   5.544
12038TIP3   OH236070   1.946   2.809   3.255
12038TIP3    H136071   1.979   2.759   3.181
12038TIP3    H236072   1.970   2.756   3.332
12039TIP3   OH236073   2.168   1.533   6.080
12039TIP3    H136074   2.190   1.442   6.059
12039TIP3    H236075   2.088   1.550   6.030
12040TIP3   OH236076   7.481   0.069   6.116
12040TIP3    H136077   7.421   0.134   6.154
12040TIP3    H236078   7.567   0.094   6.149
12041TIP3   OH236079   5.992   6.804   1.795
12041TIP3    H136080   5.949   6.754   1.726
12041TIP3    H236081   6.046   6.868   1.748
12042TIP3   OH236082   4.327   5.481   4.383
12042TIP3    H136083   4.250   5.449   4.336
12042TIP3    H236084   4.401   5.438   4.341
12043TIP3   OH236085   6.221   4.524   1.825
12043TIP3    H136086   6.145   4.518   1.883
12043TIP3    H236087   6.200   4.596   1.765
12044TIP3   OH236088   6.402   5.195   2.595
12044TIP3    H136089   6.380   5.149   2.514
12044TIP3    H236090   6.495   5.179   2.608
12045TIP3   OH236091   3.904   7.805   1.636
12045TIP3    H136092   3.921   7.730   1.579
12045TIP3    H236093   3.809   7.807   1.644
12046TIP3   OH236094   7.342   7.202   0.528
12046TIP3    H136095   7.344   7.127   0.468
12046TIP3    H236096   7.332   7.163   0.615
12047TIP3   OH236097   0.488   5.082   5.446
12047TIP3    H136098   0.462   5.174   5.440
12047TIP3    H236099   0.582   5.083   5.426
12048TIP3   OH236100   2.598   1.879   4.911
12048TIP3    H136101   2.612   1.865   5.005
12048TIP3    H236102   2.664   1.945   4.887
12049TIP3   OH236103   2.241   1.004   5.020
12049TIP3    H136104   2.150   1.022   5.000
12049TIP3    H236105   2.277   0.968   4.939
12050TIP3   OH236106   1.185   5.401   5.815
12050TIP3    H136107   1.264   5.452   5.833
12050TIP3    H236108   1.166   5.420   5.723
12051TIP3   OH236109   6.312   0.828   5.942
12051TIP3    H136110   6.376   0.833   6.014
12051TIP3    H236111   6.288   0.919   5.926
12052TIP3   OH236112   1.621   6.277   3.980
12052TIP3    H136113   1.607   6.217   4.054
12052TIP3    H236114   1.553   6.343   3.989
12053TIP3   OH236115   6.555   2.572   0.693
12053TIP3    H136116   6.588   2.522   0.619
12053TIP3    H236117   6.540   2.506   0.761
12054TIP3   OH236118   5.995   6.778   0.740
12054TIP3    H136119   6.063   6.751   0.678
12054TIP3    H236120   5.914   6.776   0.688
12055TIP3   OH236121   2.415   2.192   0.384
12055TIP3    H136122   2.411   2.176   0.479
12055TIP3    H236123   2.503   2.225   0.369
12056TIP3   OH236124   2.316   0.900   5.280
12056TIP3    H136125   2.262   0.931   5.353
12056TIP3    H236126   2.291   0.956   5.207
12057TIP3   OH236127   5.041   4.251   2.422
12057TIP3    H136128   5.012   4.234   2.512
12057TIP3    H236129   5.060   4.164   2.387
12058TIP3   OH236130   6.679   2.501   4.933
12058TIP3    H136131   6.699   2.487   5.026
12058TIP3    H236132   6.729   2.434   4.887
12059TIP3   OH236133   1.367   5.586   5.874
12059TIP3    H136134   1.431   5.634   5.822
12059TIP3    H236135   1.330   5.651   5.933
12060TIP3   OH236136   7.753   7.366   3.632
12060TIP3    H136137   7.672   7.325   3.662
12060TIP3    H236138   7.740   7.380   3.538
12061TIP3   OH236139   0.423   3.553   3.053
12061TIP3    H136140   0.396   3.644   3.040
12061TIP3    H236141   0.455   3.550   3.143
12062TIP3   OH236142   4.493   0.927   3.552
12062TIP3    H136143   4.467   0.841   3.517
12062TIP3    H236144   4.417   0.958   3.600
12063TIP3   OH236145   2.153   6.113   2.846
12063TIP3    H136146   2.090   6.184   2.831
12063TIP3    H236147   2.108   6.052   2.903
12064TIP3   OH236148   0.576   1.775   3.979
12064TIP3    H136149   0.563   1.850   3.920
12064TIP3    H236150   0.581   1.699   3.920
12065TIP3   OH236151   6.469   6.409   3.800
12065TIP3    H136152   6.553   6.398   3.844
12065TIP3    H236153   6.491   6.446   3.715
12066TIP3   OH236154   7.414   2.575   6.065
12066TIP3    H136155   7.431   2.570   5.971
12066TIP3    H236156   7.420   2.484   6.095
12067TIP3   OH236157   6.212   4.204   6.019
12067TIP3    H136158   6.244   4.137   5.960
12067TIP3    H236159   6.200   4.281   5.964
12068TIP3   OH236160   5.554   1.074   1.398
12068TIP3    H136161   5.623   1.010   1.383
12068TIP3    H236162   5.601   1.157   1.409
12069TIP3   OH236163   1.683   7.302   6.174
12069TIP3    H136164   1.673   7.207   6.164
12069TIP3    H236165   1.661   7.319   6.265
12070TIP3   OH236166   7.060   4.210   2.427
12070TIP3    H136167   7.047   4.212   2.522
12070TIP3    H236168   7.155   4.203   2.416
12071TIP3   OH236169   0.701   0.751   3.026
12071TIP3    H136170   0.766   0.820   3.017
12071TIP3    H236171   0.733   0.696   3.098
12072TIP3   OH236172   5.531   1.501   3.496
12072TIP3    H136173   5.443   1.537   3.500
12072TIP3    H236174   5.580   1.563   3.442
12073TIP3   OH236175   2.258   5.793   3.014
12073TIP3    H136176   2.276   5.769   2.924
12073TIP3    H236177   2.186   5.857   3.008
12074TIP3   OH236178   0.114   4.531   4.339
12074TIP3    H136179   0.143   4.622   4.347
12074TIP3    H236180   0.096   4.519   4.246
12075TIP3   OH236181   0.881   2.393   0.086
12075TIP3    H136182   0.808   2.339   0.057
12075TIP3    H236183   0.912   2.436   0.006
12076TIP3   OH236184   6.306   4.931   0.676
12076TIP3    H136185   6.231   4.927   0.736
12076TIP3    H236186   6.377   4.890   0.724
12077TIP3   OH236187   5.346   2.406   2.144
12077TIP3    H136188   5.368   2.495   2.117
12077TIP3    H236189   5.359   2.406   2.239
12078TIP3   OH236190   0.521   6.340   0.810
12078TIP3    H136191   0.540   6.413   0.751
12078TIP3    H236192   0.578   6.269   0.779
12079TIP3   OH236193   0.904   3.977   1.640
12079TIP3    H136194   0.949   4.040   1.582
12079TIP3    H236195   0.813   4.008   1.641
12080TIP3   OH236196   1.926   5.218   4.489
12080TIP3    H136197   1.971   5.288   4.442
12080TIP3    H236198   1.983   5.199   4.563
12081TIP3   OH236199   2.233   2.539   0.578
12081TIP3    H136200   2.213   2.573   0.491
12081TIP3    H236201   2.154   2.553   0.629
12082TIP3   OH236202   3.051   5.346   4.494
12082TIP3    H136203   3.077   5.360   4.585
12082TIP3    H236204   3.066   5.430   4.451
12083TIP3   OH236205   8.117   0.090   3.626
12083TIP3    H136206   8.164   0.102   3.708
12083TIP3    H236207   8.029   0.062   3.652
12084TIP3   OH236208   1.555   7.720   3.022
12084TIP3    H136209   1.491   7.676   2.965
12084TIP3    H236210   1.581   7.797   2.973
12085TIP3   OH236211   2.773   3.360   5.580
12085TIP3    H136212   2.684   3.325   5.579
12085TIP3    H236213   2.763   3.453   5.560
12086TIP3   OH236214   5.609   0.143   2.045
12086TIP3    H136215   5.621   0.049   2.063
12086TIP3    H236216   5.677   0.164   1.981
12087TIP3   OH236217   8.033   0.923   3.995
12087TIP3    H136218   7.974   0.888   4.062
12087TIP3    H236219   8.093   0.851   3.975
12088TIP3   OH236220   3.539   3.743   6.361
12088TIP3    H136221   3.618   3.729   6.310
12088TIP3    H236222   3.480   3.790   6.302
12089TIP3   OH236223   0.784   2.982   2.757
12089TIP3    H136224   0.692   3.004   2.775
12089TIP3    H236225   0.781   2.893   2.723
12090TIP3   OH236226   0.648   2.716   1.082
12090TIP3    H136227   0.738   2.726   1.112
12090TIP3    H236228   0.609   2.803   1.092
12091TIP3   OH236229   8.101   7.191   3.804
12091TIP3    H136230   8.032   7.248   3.838
12091TIP3    H236231   8.145   7.158   3.882
12092TIP3   OH236232   5.204   2.957   4.439
12092TIP3    H136233   5.154   3.015   4.381
12092TIP3    H236234   5.150   2.952   4.518
12093TIP3   OH236235   4.845   7.269   4.990
12093TIP3    H136236   4.791   7.339   4.954
12093TIP3    H236237   4.908   7.314   5.047
12094TIP3   OH236238   6.749   0.450   2.555
12094TIP3    H136239   6.675   0.510   2.544
12094TIP3    H236240   6.721   0.390   2.624
12095TIP3   OH236241   2.539   5.819   1.839
12095TIP3    H136242   2.477   5.891   1.855
12095TIP3    H236243   2.491   5.740   1.863
12096TIP3   OH236244   0.691   1.221   3.556
12096TIP3    H136245   0.727   1.163   3.490
12096TIP3    H236246   0.645   1.289   3.506
12097TIP3   OH236247   3.724   2.699   0.957
12097TIP3    H136248   3.781   2.699   1.034
12097TIP3    H236249   3.698   2.791   0.946
12098TIP3   OH236250   1.262   1.938   4.869
12098TIP3    H136251   1.302   2.006   4.814
12098TIP3    H236252   1.275   1.970   4.959
12099TIP3   OH236253   0.667   7.115   3.474
12099TIP3    H136254   0.617   7.044   3.514
12099TIP3    H236255   0.650   7.108   3.380
12100TIP3   OH236256   0.866   3.224   6.182
12100TIP3    H136257   0.918   3.147   6.204
12100TIP3    H236258   0.912   3.264   6.109
12101TIP3   OH236259   3.181   6.410   4.609
12101TIP3    H136260   3.168   6.504   4.612
12101TIP3    H236261   3.265   6.398   4.563
12102TIP3   OH236262   3.761   7.232   0.050
12102TIP3    H136263   3.712   7.255   0.129
12102TIP3    H236264   3.735   7.142   0.032
12103TIP3   OH236265   1.977   2.915   3.608
12103TIP3    H136266   2.066   2.878   3.614
12103TIP3    H236267   1.928   2.869   3.676
12104TIP3   OH236268   5.793   3.275   3.577
12104TIP3    H136269   5.821   3.184   3.564
12104TIP3    H236270   5.703   3.269   3.608
12105TIP3   OH236271   5.112   5.565   2.446
12105TIP3    H136272   5.147   5.476   2.442
12105TIP3    H236273   5.189   5.622   2.453
12106TIP3   OH236274   5.496   7.806   4.666
12106TIP3    H136275   5.413   7.841   4.696
12106TIP3    H236276   5.545   7.788   4.746
12107TIP3   OH236277   0.125   5.941   3.155
12107TIP3    H136278   0.166   5.970   3.073
12107TIP3    H236279   0.176   5.983   3.224
12108TIP3   OH236280   7.401   1.011   2.929
12108TIP3    H136281   7.444   1.083   2.882
12108TIP3    H236282   7.327   0.987   2.873
12109TIP3   OH236283   1.452   2.887   4.652
12109TIP3    H136284   1.479   2.831   4.579
12109TIP3    H236285   1.529   2.890   4.709
12110TIP3   OH236286   4.960   5.067   4.539
12110TIP3    H136287   4.979   5.106   4.625
12110TIP3    H236288   4.893   5.124   4.501
12111TIP3   OH236289   8.199   6.272   4.565
12111TIP3    H136290   8.269   6.253   4.503
12111TIP3    H236291   8.219   6.217   4.641
12112TIP3   OH236292   5.941   6.133   6.641
12112TIP3    H136293   6.017   6.106   6.590
12112TIP3    H236294   5.960   6.105   6.731
12113TIP3   OH236295   7.135   5.498   3.302
12113TIP3    H136296   7.158   5.572   3.245
12113TIP3    H236297   7.212   5.487   3.358
12114TIP3   OH236298   4.213   2.386   3.437
12114TIP3    H136299   4.194   2.472   3.476
12114TIP3    H236300   4.240   2.406   3.348
12115TIP3   OH236301   7.120   1.229   1.183
12115TIP3    H136302   7.114   1.177   1.102
12115TIP3    H236303   7.029   1.236   1.213
12116TIP3   OH236304   4.612   3.073   1.595
12116TIP3    H136305   4.642   3.098   1.508
12116TIP3    H236306   4.560   2.994   1.581
12117TIP3   OH236307   0.889   1.484   0.707
12117TIP3    H136308   0.930   1.478   0.793
12117TIP3    H236309   0.869   1.577   0.697
12118TIP3   OH236310   6.550   6.026   0.772
12118TIP3    H136311   6.594   5.945   0.795
12118TIP3    H236312   6.488   6.001   0.704
12119TIP3   OH236313   0.135   3.774   4.444
12119TIP3    H136314   0.089   3.724   4.511
12119TIP3    H236315   0.180   3.844   4.492
12120TIP3   OH236316   1.989   1.652   0.352
12120TIP3    H136317   2.055   1.720   0.343
12120TIP3    H236318   1.942   1.654   0.269
12121TIP3   OH236319   7.253   1.937   6.274
12121TIP3    H136320   7.239   1.843   6.264
12121TIP3    H236321   7.219   1.957   6.361
12122TIP3   OH236322   4.451   2.385   0.626
12122TIP3    H136323   4.514   2.330   0.580
12122TIP3    H236324   4.496   2.468   0.638
12123TIP3   OH236325   7.359   3.703   6.075
12123TIP3    H136326   7.313   3.784   6.055
12123TIP3    H236327   7.399   3.718   6.160
12124TIP3   OH236328   3.532   1.253   5.587
12124TIP3    H136329   3.563   1.342   5.605
12124TIP3    H236330   3.446   1.249   5.630
12125TIP3   OH236331   3.738   6.206   0.651
12125TIP3    H136332   3.675   6.244   0.591
12125TIP3    H236333   3.685   6.153   0.711
12126TIP3   OH236334   7.610   1.848   4.188
12126TIP3    H136335   7.591   1.881   4.276
12126TIP3    H236336   7.601   1.753   4.196
12127TIP3   OH236337   7.115   6.615   2.162
12127TIP3    H136338   7.069   6.595   2.081
12127TIP3    H236339   7.194   6.561   2.159
12128TIP3   OH236340   3.069   4.863   5.447
12128TIP3    H136341   2.997   4.842   5.387
12128TIP3    H236342   3.134   4.794   5.433
12129TIP3   OH236343   5.267   2.891   0.270
12129TIP3    H136344   5.278   2.968   0.325
12129TIP3    H236345   5.311   2.914   0.188
12130TIP3   OH236346   0.629   7.124   5.899
12130TIP3    H136347   0.585   7.204   5.927
12130TIP3    H236348   0.577   7.053   5.936
12131TIP3   OH236349   2.131   1.426   2.537
12131TIP3    H136350   2.059   1.378   2.497
12131TIP3    H236351   2.202   1.362   2.542
12132TIP3   OH236352   0.630   5.056   6.501
12132TIP3    H136353   0.723   5.062   6.479
12132TIP3    H236354   0.615   4.963   6.512
12133TIP3   OH236355   6.630   1.001   5.845
12133TIP3    H136356   6.723   0.984   5.831
12133TIP3    H236357   6.628   1.091   5.878
12134TIP3   OH236358   4.105   3.953   2.669
12134TIP3    H136359   4.175   3.888   2.671
12134TIP3    H236360   4.144   4.030   2.628
12135TIP3   OH236361   5.417   7.129   4.951
12135TIP3    H136362   5.453   7.201   4.899
12135TIP3    H236363   5.480   7.058   4.941
12136TIP3   OH236364   5.854   0.673   0.237
12136TIP3    H136365   5.784   0.677   0.172
12136TIP3    H236366   5.917   0.739   0.208
12137TIP3   OH236367   2.952   2.247   4.076
12137TIP3    H136368   2.905   2.219   4.155
12137TIP3    H236369   2.942   2.174   4.015
12138TIP3   OH236370   6.249   1.826   0.315
12138TIP3    H136371   6.217   1.746   0.357
12138TIP3    H236372   6.278   1.881   0.388
12139TIP3   OH236373   2.521   0.906   6.130
12139TIP3    H136374   2.524   0.811   6.119
12139TIP3    H236375   2.533   0.920   6.224
12140TIP3   OH236376   6.654   2.014   2.346
12140TIP3    H136377   6.725   2.026   2.410
12140TIP3    H236378   6.667   1.926   2.312
12141TIP3   OH236379   3.410   1.561   3.805
12141TIP3    H136380   3.342   1.507   3.766
12141TIP3    H236381   3.492   1.531   3.764
12142TIP3   OH236382   6.296   1.500   0.332
12142TIP3    H136383   6.335   1.534   0.252
12142TIP3    H236384   6.330   1.411   0.340
12143TIP3   OH236385   8.203   2.541   4.114
12143TIP3    H136386   8.127   2.543   4.172
12143TIP3    H236387   8.278   2.535   4.172
12144TIP3   OH236388   8.053   2.744   6.179
12144TIP3    H136389   7.985   2.692   6.137
12144TIP3    H236390   8.130   2.687   6.180
12145TIP3   OH236391   6.956   6.039   5.726
12145TIP3    H136392   6.993   6.096   5.659
12145TIP3    H236393   6.868   6.074   5.740
12146TIP3   OH236394   5.779   5.750   2.388
12146TIP3    H136395   5.710   5.711   2.334
12146TIP3    H236396   5.731   5.796   2.458
12147TIP3   OH236397   3.439   5.304   4.060
12147TIP3    H136398   3.465   5.387   4.019
12147TIP3    H236399   3.412   5.329   4.148
12148TIP3   OH236400   4.967   4.108   3.568
12148TIP3    H136401   4.907   4.034   3.570
12148TIP3    H236402   4.970   4.133   3.476
12149TIP3   OH236403   5.323   1.691   1.429
12149TIP3    H136404   5.414   1.686   1.455
12149TIP3    H236405   5.320   1.764   1.367
12150TIP3   OH236406   2.703   2.148   5.754
12150TIP3    H136407   2.719   2.147   5.660
12150TIP3    H236408   2.759   2.217   5.789
12151TIP3   OH236409   7.065   6.405   4.983
12151TIP3    H136410   7.072   6.429   4.891
12151TIP3    H236411   7.031   6.483   5.026
12152TIP3   OH236412   5.221   1.992   3.677
12152TIP3    H136413   5.270   1.983   3.759
12152TIP3    H236414   5.255   2.073   3.639
12153TIP3   OH236415   3.425   0.735   0.850
12153TIP3    H136416   3.512   0.748   0.889
12153TIP3    H236417   3.440   0.671   0.781
12154TIP3   OH236418   0.876   5.836   5.540
12154TIP3    H136419   0.821   5.846   5.463
12154TIP3    H236420   0.856   5.912   5.594
12155TIP3   OH236421   5.484   7.664   6.637
12155TIP3    H136422   5.566   7.627   6.670
12155TIP3    H236423   5.436   7.689   6.716
12156TIP3   OH236424   3.729   3.543   6.336
12156TIP3    H136425   3.666   3.557   6.265
12156TIP3    H236426   3.679   3.498   6.404
12157TIP3   OH236427   4.061   7.349   0.899
12157TIP3    H136428   4.038   7.401   0.822
12157TIP3    H236429   4.077   7.413   0.968
12158TIP3   OH236430   7.514   4.544   6.112
12158TIP3    H136431   7.522   4.598   6.034
12158TIP3    H236432   7.592   4.488   6.111
12159TIP3   OH236433   5.417   7.245   3.981
12159TIP3    H136434   5.507   7.267   4.005
12159TIP3    H236435   5.369   7.247   4.064
12160TIP3   OH236436   0.517   3.841   1.686
12160TIP3    H136437   0.468   3.908   1.733
12160TIP3    H236438   0.566   3.890   1.619
12161TIP3   OH236439   7.850   4.851   4.256
12161TIP3    H136440   7.902   4.772   4.266
12161TIP3    H236441   7.871   4.904   4.333
12162TIP3   OH236442   5.929   7.034   5.811
12162TIP3    H136443   5.912   7.062   5.721
12162TIP3    H236444   6.015   6.991   5.807
12163TIP3   OH236445   6.948   5.740   0.038
12163TIP3    H136446   6.970   5.821  -0.007
12163TIP3    H236447   6.894   5.767   0.112
12164TIP3   OH236448   0.033   1.678   3.781
12164TIP3    H136449   0.091   1.655   3.853
12164TIP3    H236450  -0.053   1.646   3.808
12165TIP3   OH236451   6.627   6.631   6.509
12165TIP3    H136452   6.708   6.644   6.558
12165TIP3    H236453   6.625   6.537   6.491
12166TIP3   OH236454   7.942   5.910   4.129
12166TIP3    H136455   8.033   5.882   4.116
12166TIP3    H236456   7.893   5.828   4.135
12167TIP3   OH236457   6.497   0.591   2.657
12167TIP3    H136458   6.430   0.530   2.688
12167TIP3    H236459   6.477   0.602   2.564
12168TIP3   OH236460   4.689   4.319   2.737
12168TIP3    H136461   4.683   4.236   2.690
12168TIP3    H236462   4.633   4.307   2.813
12169TIP3   OH236463   2.412   4.111   3.816
12169TIP3    H136464   2.321   4.095   3.790
12169TIP3    H236465   2.405   4.156   3.900
12170TIP3   OH236466   4.772   1.037   6.035
12170TIP3    H136467   4.842   1.092   6.071
12170TIP3    H236468   4.727   1.093   5.972
12171TIP3   OH236469   6.409   1.137   5.058
12171TIP3    H136470   6.315   1.151   5.051
12171TIP3    H236471   6.447   1.204   5.001
12172TIP3   OH236472   1.168   6.821   1.319
12172TIP3    H136473   1.185   6.849   1.408
12172TIP3    H236474   1.175   6.900   1.266
12173TIP3   OH236475   5.290   2.734   0.697
12173TIP3    H136476   5.309   2.681   0.620
12173TIP3    H236477   5.195   2.741   0.699
12174TIP3   OH236478   3.239   3.383   4.358
12174TIP3    H136479   3.285   3.310   4.399
12174TIP3    H236480   3.205   3.434   4.431
12175TIP3   OH236481   5.168   5.494   3.207
12175TIP3    H136482   5.225   5.420   3.184
12175TIP3    H236483   5.173   5.499   3.302
12176TIP3   OH236484   0.955   4.246   1.862
12176TIP3    H136485   0.998   4.161   1.874
12176TIP3    H236486   0.947   4.256   1.767
12177TIP3   OH236487   0.120   2.527   0.743
12177TIP3    H136488   0.194   2.468   0.730
12177TIP3    H236489   0.042   2.473   0.727
12178TIP3   OH236490   4.548   5.614   5.942
12178TIP3    H136491   4.635   5.651   5.930
12178TIP3    H236492   4.533   5.563   5.862
12179TIP3   OH236493   5.810   1.629   2.968
12179TIP3    H136494   5.741   1.640   3.034
12179TIP3    H236495   5.777   1.561   2.909
12180TIP3   OH236496   7.856   3.467   2.790
12180TIP3    H136497   7.842   3.442   2.881
12180TIP3    H236498   7.950   3.482   2.783
12181TIP3   OH236499   1.631   0.925   3.947
12181TIP3    H136500   1.705   0.978   3.917
12181TIP3    H236501   1.554   0.973   3.916
12182TIP3   OH236502   5.039   3.552   6.648
12182TIP3    H136503   5.031   3.530   6.741
12182TIP3    H236504   5.133   3.566   6.635
12183TIP3   OH236505   6.765   7.442   2.989
12183TIP3    H136506   6.697   7.504   2.964
12183TIP3    H236507   6.815   7.488   3.057
12184TIP3   OH236508   1.777   3.824   6.516
12184TIP3    H136509   1.835   3.892   6.549
12184TIP3    H236510   1.796   3.819   6.422
12185TIP3   OH236511   5.164   3.451   5.783
12185TIP3    H136512   5.186   3.428   5.692
12185TIP3    H236513   5.110   3.529   5.775
12186TIP3   OH236514   0.463   6.343   6.703
12186TIP3    H136515   0.450   6.391   6.621
12186TIP3    H236516   0.375   6.314   6.727
12187TIP3   OH236517   3.924   7.167   4.015
12187TIP3    H136518   3.887   7.083   4.042
12187TIP3    H236519   3.969   7.200   4.093
12188TIP3   OH236520   3.137   4.119   3.684
12188TIP3    H136521   3.219   4.168   3.692
12188TIP3    H236522   3.111   4.132   3.592
12189TIP3   OH236523   1.257   7.406   2.040
12189TIP3    H136524   1.220   7.345   2.104
12189TIP3    H236525   1.180   7.452   2.005
12190TIP3   OH236526   5.918   1.505   0.606
12190TIP3    H136527   6.001   1.463   0.582
12190TIP3    H236528   5.896   1.468   0.692
12191TIP3   OH236529   1.317   7.342   5.494
12191TIP3    H136530   1.258   7.403   5.538
12191TIP3    H236531   1.372   7.307   5.564
12192TIP3   OH236532   5.485   4.737   2.543
12192TIP3    H136533   5.411   4.798   2.554
12192TIP3    H236534   5.489   4.721   2.449
12193TIP3   OH236535   6.788   2.940   0.889
12193TIP3    H136536   6.774   3.029   0.921
12193TIP3    H236537   6.848   2.950   0.816
12194TIP3   OH236538   4.387   2.135   3.181
12194TIP3    H136539   4.383   2.109   3.089
12194TIP3    H236540   4.323   2.206   3.188
12195TIP3   OH236541   4.895   2.468   5.477
12195TIP3    H136542   4.986   2.443   5.491
12195TIP3    H236543   4.898   2.563   5.465
12196TIP3   OH236544   6.437   1.780   3.395
12196TIP3    H136545   6.494   1.833   3.339
12196TIP3    H236546   6.480   1.694   3.399
12197TIP3   OH236547   0.976   6.457   1.580
12197TIP3    H136548   0.932   6.400   1.643
12197TIP3    H236549   0.945   6.545   1.601
12198TIP3   OH236550   6.624   4.543   0.155
12198TIP3    H136551   6.627   4.618   0.096
12198TIP3    H236552   6.552   4.562   0.215
12199TIP3   OH236553   3.024   6.905   3.490
12199TIP3    H136554   3.027   6.904   3.394
12199TIP3    H236555   2.933   6.887   3.511
12200TIP3   OH236556   3.489   2.899   1.465
12200TIP3    H136557   3.429   2.834   1.503
12200TIP3    H236558   3.437   2.979   1.458
12201TIP3   OH236559   2.423   6.027   6.059
12201TIP3    H136560   2.389   5.985   5.980
12201TIP3    H236561   2.507   6.064   6.033
12202TIP3   OH236562   6.568   6.732   5.526
12202TIP3    H136563   6.479   6.740   5.562
12202TIP3    H236564   6.562   6.660   5.464
12203TIP3   OH236565   4.626   0.917   1.630
12203TIP3    H136566   4.696   0.897   1.692
12203TIP3    H236567   4.643   0.858   1.556
12204TIP3   OH236568   5.601   1.333   6.626
12204TIP3    H136569   5.637   1.325   6.714
12204TIP3    H236570   5.603   1.427   6.607
12205TIP3   OH236571   7.815   6.397   5.039
12205TIP3    H136572   7.856   6.432   4.960
12205TIP3    H236573   7.722   6.421   5.030
12206TIP3   OH236574   6.602   3.099   3.283
12206TIP3    H136575   6.671   3.110   3.218
12206TIP3    H236576   6.637   3.139   3.362
12207TIP3   OH236577   3.237   2.695   2.549
12207TIP3    H136578   3.277   2.722   2.466
12207TIP3    H236579   3.258   2.765   2.610
12208TIP3   OH236580   2.164   3.338  -0.025
12208TIP3    H136581   2.122   3.382   0.049
12208TIP3    H236582   2.200   3.258   0.013
12209TIP3   OH236583   0.265   7.746   2.723
12209TIP3    H136584   0.188   7.790   2.759
12209TIP3    H236585   0.321   7.816   2.692
12210TIP3   OH236586   2.039   0.234   3.179
12210TIP3    H136587   2.045   0.307   3.241
12210TIP3    H236588   2.124   0.190   3.187
12211TIP3   OH236589   3.185   3.495   1.291
12211TIP3    H136590   3.097   3.475   1.321
12211TIP3    H236591   3.177   3.502   1.196
12212TIP3   OH236592   3.163   1.727   6.190
12212TIP3    H136593   3.121   1.813   6.193
12212TIP3    H236594   3.092   1.665   6.177
12213TIP3   OH236595   4.582   0.612   2.739
12213TIP3    H136596   4.501   0.627   2.691
12213TIP3    H236597   4.626   0.697   2.740
12214TIP3   OH236598   6.630   3.392   2.559
12214TIP3    H136599   6.541   3.370   2.588
12214TIP3    H236600   6.673   3.426   2.637
12215TIP3   OH236601   2.824   5.622   5.879
12215TIP3    H136602   2.785   5.709   5.888
12215TIP3    H236603   2.783   5.571   5.948
12216TIP3   OH236604   3.639   4.689   0.449
12216TIP3    H136605   3.610   4.739   0.525
12216TIP3    H236606   3.559   4.649   0.415
12217TIP3   OH236607   7.058   0.272   5.339
12217TIP3    H136608   7.011   0.199   5.299
12217TIP3    H236609   7.053   0.256   5.433
12218TIP3   OH236610   2.598   0.424   4.108
12218TIP3    H136611   2.641   0.484   4.169
12218TIP3    H236612   2.505   0.432   4.127
12219TIP3   OH236613   3.739   3.216   4.469
12219TIP3    H136614   3.802   3.153   4.433
12219TIP3    H236615   3.679   3.234   4.397
12220TIP3   OH236616   3.162   4.069   2.649
12220TIP3    H136617   3.217   4.128   2.597
12220TIP3    H236618   3.221   3.998   2.674
12221TIP3   OH236619   5.992   4.319   0.209
12221TIP3    H136620   6.033   4.349   0.290
12221TIP3    H236621   6.035   4.235   0.190
12222TIP3   OH236622   2.018   0.277   6.244
12222TIP3    H136623   2.081   0.323   6.301
12222TIP3    H236624   2.049   0.294   6.155
12223TIP3   OH236625   3.922   6.615   2.538
12223TIP3    H136626   3.903   6.523   2.555
12223TIP3    H236627   3.904   6.627   2.445
12224TIP3   OH236628   7.411   0.876   1.901
12224TIP3    H136629   7.335   0.819   1.918
12224TIP3    H236630   7.376   0.965   1.908
12225TIP3   OH236631   4.945   2.003   4.164
12225TIP3    H136632   4.931   2.079   4.108
12225TIP3    H236633   4.858   1.966   4.178
12226TIP3   OH236634   3.194   0.430   1.372
12226TIP3    H136635   3.112   0.384   1.389
12226TIP3    H236636   3.168   0.506   1.320
12227TIP3   OH236637   2.905   5.645   3.490
12227TIP3    H136638   2.840   5.575   3.500
12227TIP3    H236639   2.891   5.702   3.566
12228TIP3   OH236640   2.065   0.797   1.191
12228TIP3    H136641   2.161   0.800   1.202
12228TIP3    H236642   2.032   0.855   1.260
12229TIP3   OH236643   6.878   5.470   3.640
12229TIP3    H136644   6.950   5.529   3.622
12229TIP3    H236645   6.823   5.474   3.562
12230TIP3   OH236646   2.630   2.633   2.358
12230TIP3    H136647   2.677   2.667   2.282
12230TIP3    H236648   2.686   2.564   2.393
12231TIP3   OH236649   2.098   3.964   3.475
12231TIP3    H136650   2.089   3.876   3.438
12231TIP3    H236651   2.172   4.002   3.428
12232TIP3   OH236652   7.734   2.474   5.959
12232TIP3    H136653   7.664   2.447   5.901
12232TIP3    H236654   7.747   2.567   5.939
12233TIP3   OH236655   7.707   0.024   0.358
12233TIP3    H136656   7.750   0.082   0.295
12233TIP3    H236657   7.778  -0.007   0.414
12234TIP3   OH236658   2.087   0.990   1.398
12234TIP3    H136659   2.157   1.041   1.358
12234TIP3    H236660   2.132   0.931   1.460
12235TIP3   OH236661   7.015   5.060   0.621
12235TIP3    H136662   7.008   4.966   0.606
12235TIP3    H236663   6.941   5.097   0.575
12236TIP3   OH236664   6.365   0.071   2.526
12236TIP3    H136665   6.314   0.013   2.469
12236TIP3    H236666   6.359   0.157   2.484
12237TIP3   OH236667   7.682   7.541   1.592
12237TIP3    H136668   7.679   7.482   1.667
12237TIP3    H236669   7.606   7.597   1.602
12238TIP3   OH236670   5.836   6.944   3.131
12238TIP3    H136671   5.844   6.882   3.204
12238TIP3    H236672   5.922   6.942   3.089
12239TIP3   OH236673   3.389   1.718   0.584
12239TIP3    H136674   3.389   1.795   0.641
12239TIP3    H236675   3.458   1.734   0.521
12240TIP3   OH236676   0.705   3.228   4.143
12240TIP3    H136677   0.766   3.161   4.175
12240TIP3    H236678   0.731   3.308   4.189
12241TIP3   OH236679   1.512   3.320   4.392
12241TIP3    H136680   1.596   3.339   4.433
12241TIP3    H236681   1.504   3.385   4.322
12242TIP3   OH236682   3.904   3.573   6.764
12242TIP3    H136683   3.932   3.503   6.705
12242TIP3    H236684   3.979   3.588   6.821
12243TIP3   OH236685   0.330   7.227   5.005
12243TIP3    H136686   0.240   7.259   4.996
12243TIP3    H236687   0.320   7.134   5.024
12244TIP3   OH236688   3.703   4.110   3.144
12244TIP3    H136689   3.758   4.032   3.141
12244TIP3    H236690   3.643   4.100   3.070
12245TIP3   OH236691   6.183   0.912   4.182
12245TIP3    H136692   6.246   0.858   4.230
12245TIP3    H236693   6.203   0.897   4.090
12246TIP3   OH236694   1.389   5.691   3.410
12246TIP3    H136695   1.325   5.758   3.434
12246TIP3    H236696   1.473   5.728   3.437
12247TIP3   OH236697   5.479   0.343   6.721
12247TIP3    H136698   5.490   0.419   6.665
12247TIP3    H236699   5.526   0.365   6.801
12248TIP3   OH236700   1.583   4.364   5.827
12248TIP3    H136701   1.594   4.445   5.877
12248TIP3    H236702   1.670   4.347   5.791
12249TIP3   OH236703   0.617   3.250   4.496
12249TIP3    H136704   0.562   3.259   4.574
12249TIP3    H236705   0.561   3.210   4.430
12250TIP3   OH236706   6.499   4.902   4.434
12250TIP3    H136707   6.548   4.978   4.405
12250TIP3    H236708   6.494   4.912   4.530
12251TIP3   OH236709   7.918   6.074   2.896
12251TIP3    H136710   7.946   6.150   2.844
12251TIP3    H236711   7.826   6.090   2.915
12252TIP3   OH236712   1.660   2.193   1.451
12252TIP3    H136713   1.753   2.174   1.439
12252TIP3    H236714   1.652   2.223   1.541
12253TIP3   OH236715   6.488   3.632   3.612
12253TIP3    H136716   6.425   3.570   3.576
12253TIP3    H236717   6.464   3.716   3.575
12254TIP3   OH236718   3.257   4.747   1.347
12254TIP3    H136719   3.332   4.783   1.393
12254TIP3    H236720   3.294   4.705   1.269
12255TIP3   OH236721   7.496   2.247   6.004
12255TIP3    H136722   7.506   2.159   5.968
12255TIP3    H236723   7.482   2.303   5.928
12256TIP3   OH236724   2.306   2.864   0.132
12256TIP3    H136725   2.290   2.898   0.044
12256TIP3    H236726   2.289   2.939   0.190
12257TIP3   OH236727   3.019   6.360   4.368
12257TIP3    H136728   3.062   6.374   4.452
12257TIP3    H236729   3.089   6.334   4.309
12258TIP3   OH236730   1.598   5.946   5.494
12258TIP3    H136731   1.556   5.934   5.578
12258TIP3    H236732   1.577   6.036   5.468
12259TIP3   OH236733   0.286   0.151   3.725
12259TIP3    H136734   0.245   0.163   3.639
12259TIP3    H236735   0.269   0.233   3.771
12260TIP3   OH236736   2.363   6.115   2.176
12260TIP3    H136737   2.328   6.026   2.172
12260TIP3    H236738   2.392   6.125   2.267
12261TIP3   OH236739   5.154   1.108   2.791
12261TIP3    H136740   5.098   1.186   2.782
12261TIP3    H236741   5.129   1.070   2.875
12262TIP3   OH236742   1.330   1.175   6.203
12262TIP3    H136743   1.421   1.151   6.182
12262TIP3    H236744   1.296   1.099   6.251
12263TIP3   OH236745   4.392   7.339   2.672
12263TIP3    H136746   4.313   7.294   2.703
12263TIP3    H236747   4.366   7.377   2.588
12264TIP3   OH236748   2.423   6.724   1.021
12264TIP3    H136749   2.340   6.758   1.055
12264TIP3    H236750   2.485   6.795   1.034
12265TIP3   OH236751   6.593   4.098   0.975
12265TIP3    H136752   6.502   4.081   1.000
12265TIP3    H236753   6.611   4.032   0.907
12266TIP3   OH236754   5.657   2.644   5.324
12266TIP3    H136755   5.749   2.624   5.340
12266TIP3    H236756   5.619   2.560   5.297
12267TIP3   OH236757   4.074   3.012   5.420
12267TIP3    H136758   4.162   3.002   5.456
12267TIP3    H236759   4.068   2.945   5.353
12268TIP3   OH236760   7.439   0.884   4.508
12268TIP3    H136761   7.486   0.868   4.590
12268TIP3    H236762   7.372   0.816   4.505
12269TIP3   OH236763   7.891   5.067   5.575
12269TIP3    H136764   7.871   5.006   5.504
12269TIP3    H236765   7.864   5.152   5.543
12270TIP3   OH236766   0.646   4.254   1.907
12270TIP3    H136767   0.736   4.272   1.934
12270TIP3    H236768   0.639   4.292   1.820
12271TIP3   OH236769   0.451   4.836   5.316
12271TIP3    H136770   0.516   4.854   5.248
12271TIP3    H236771   0.445   4.918   5.366
12272TIP3   OH236772   3.948   0.575   2.028
12272TIP3    H136773   4.022   0.634   2.046
12272TIP3    H236774   3.899   0.619   1.958
12273TIP3   OH236775   7.239   2.636   6.278
12273TIP3    H136776   7.288   2.561   6.313
12273TIP3    H236777   7.263   2.638   6.185
12274TIP3   OH236778   2.525   2.324   4.842
12274TIP3    H136779   2.445   2.281   4.813
12274TIP3    H236780   2.593   2.256   4.837
12275TIP3   OH236781   6.035   0.860   1.681
12275TIP3    H136782   6.026   0.926   1.751
12275TIP3    H236783   6.055   0.779   1.728
12276TIP3   OH236784   3.317   5.995   0.076
12276TIP3    H136785   3.308   6.052  -0.001
12276TIP3    H236786   3.407   5.962   0.070
12277TIP3   OH236787   5.323   0.824   3.206
12277TIP3    H136788   5.258   0.871   3.257
12277TIP3    H236789   5.407   0.844   3.248
12278TIP3   OH236790   5.100   6.230   2.639
12278TIP3    H136791   5.012   6.208   2.606
12278TIP3    H236792   5.141   6.146   2.656
12279TIP3   OH236793   4.370   3.035   0.072
12279TIP3    H136794   4.396   3.125   0.054
12279TIP3    H236795   4.333   3.038   0.160
12280TIP3   OH236796   3.392   4.901   6.012
12280TIP3    H136797   3.345   4.836   6.064
12280TIP3    H236798   3.325   4.936   5.952
12281TIP3   OH236799   3.680   3.445   1.278
12281TIP3    H136800   3.675   3.509   1.349
12281TIP3    H236801   3.675   3.360   1.322
12282TIP3   OH236802   7.307   5.371   0.397
12282TIP3    H136803   7.308   5.336   0.487
12282TIP3    H236804   7.311   5.293   0.342
12283TIP3   OH236805   7.760   6.321   5.422
12283TIP3    H136806   7.738   6.287   5.335
12283TIP3    H236807   7.823   6.258   5.456
12284TIP3   OH236808   6.158   4.904   6.507
12284TIP3    H136809   6.155   4.846   6.584
12284TIP3    H236810   6.231   4.962   6.524
12285TIP3   OH236811   4.472   7.714   0.738
12285TIP3    H136812   4.552   7.686   0.693
12285TIP3    H236813   4.404   7.711   0.671
12286TIP3   OH236814   3.922   4.771   3.413
12286TIP3    H136815   3.853   4.705   3.403
12286TIP3    H236816   3.876   4.854   3.403
12287TIP3   OH236817   4.352   3.903   5.583
12287TIP3    H136818   4.406   3.943   5.516
12287TIP3    H236819   4.269   3.951   5.580
12288TIP3   OH236820   1.422   1.943   1.928
12288TIP3    H136821   1.507   1.900   1.939
12288TIP3    H236822   1.384   1.945   2.016
12289TIP3   OH236823   2.833   0.579   2.171
12289TIP3    H136824   2.852   0.661   2.125
12289TIP3    H236825   2.740   0.565   2.158
12290TIP3   OH236826   1.783   0.651   6.177
12290TIP3    H136827   1.808   0.603   6.256
12290TIP3    H236828   1.835   0.610   6.107
12291TIP3   OH236829   0.689   2.151   0.577
12291TIP3    H136830   0.763   2.207   0.552
12291TIP3    H236831   0.708   2.127   0.668
12292TIP3   OH236832   1.544   3.976   1.150
12292TIP3    H136833   1.621   3.974   1.092
12292TIP3    H236834   1.476   4.020   1.098
12293TIP3   OH236835   2.106   6.832   1.958
12293TIP3    H136836   2.082   6.919   1.926
12293TIP3    H236837   2.034   6.776   1.931
12294TIP3   OH236838   2.951   6.948   2.268
12294TIP3    H136839   2.911   6.879   2.215
12294TIP3    H236840   2.920   6.930   2.357
12295TIP3   OH236841   1.919   0.356   5.790
12295TIP3    H136842   1.884   0.278   5.747
12295TIP3    H236843   1.971   0.400   5.723
12296TIP3   OH236844   8.009   5.986   5.538
12296TIP3    H136845   8.071   6.016   5.471
12296TIP3    H236846   8.029   6.039   5.615
12297TIP3   OH236847   4.393   6.807   5.421
12297TIP3    H136848   4.309   6.775   5.388
12297TIP3    H236849   4.437   6.845   5.344
12298TIP3   OH236850   5.145   2.039   5.360
12298TIP3    H136851   5.155   2.086   5.278
12298TIP3    H236852   5.234   2.033   5.395
12299TIP3   OH236853   1.986   0.137   6.521
12299TIP3    H136854   2.026   0.139   6.434
12299TIP3    H236855   2.019   0.056   6.561
12300TIP3   OH236856   7.826   5.976   4.406
12300TIP3    H136857   7.889   5.914   4.368
12300TIP3    H236858   7.878   6.053   4.428
12301TIP3   OH236859   1.802   6.825   0.478
12301TIP3    H136860   1.771   6.755   0.421
12301TIP3    H236861   1.723   6.861   0.517
12302TIP3   OH236862   0.402   2.532   6.754
12302TIP3    H136863   0.366   2.463   6.811
12302TIP3    H236864   0.459   2.485   6.694
12303TIP3   OH236865   6.953   6.218   0.275
12303TIP3    H136866   6.937   6.312   0.267
12303TIP3    H236867   7.048   6.210   0.281
12304TIP3   OH236868   4.139   0.065   6.407
12304TIP3    H136869   4.166   0.097   6.493
12304TIP3    H236870   4.182  -0.020   6.397
12305TIP3   OH236871   2.042   1.711   4.581
12305TIP3    H136872   1.962   1.684   4.626
12305TIP3    H236873   2.017   1.788   4.530
12306TIP3   OH236874   1.678   0.532   4.124
12306TIP3    H136875   1.631   0.555   4.044
12306TIP3    H236876   1.690   0.437   4.119
12307TIP3   OH236877   0.360   2.834   0.042
12307TIP3    H136878   0.303   2.769   0.002
12307TIP3    H236879   0.429   2.849  -0.023
12308TIP3   OH236880   4.846   2.116   2.424
12308TIP3    H136881   4.760   2.155   2.406
12308TIP3    H236882   4.907   2.189   2.411
12309TIP3   OH236883   5.754   2.070   0.751
12309TIP3    H136884   5.846   2.052   0.731
12309TIP3    H236885   5.757   2.132   0.824
12310TIP3   OH236886   5.926   1.854   0.274
12310TIP3    H136887   5.960   1.768   0.247
12310TIP3    H236888   5.886   1.889   0.195
12311TIP3   OH236889   4.827   4.758   5.678
12311TIP3    H136890   4.785   4.784   5.596
12311TIP3    H236891   4.843   4.665   5.668
12312TIP3   OH236892   6.642   7.475   6.501
12312TIP3    H136893   6.558   7.504   6.466
12312TIP3    H236894   6.622   7.443   6.589
12313TIP3   OH236895   3.859   3.472   5.619
12313TIP3    H136896   3.788   3.488   5.558
12313TIP3    H236897   3.915   3.408   5.576
12314TIP3   OH236898   3.437   3.243   0.063
12314TIP3    H136899   3.505   3.190   0.105
12314TIP3    H236900   3.369   3.180   0.040
12315TIP3   OH236901   8.061   6.553   6.212
12315TIP3    H136902   7.967   6.539   6.228
12315TIP3    H236903   8.074   6.527   6.121
12316TIP3   OH236904   2.675   1.975   5.173
12316TIP3    H136905   2.680   1.925   5.254
12316TIP3    H236906   2.764   2.008   5.159
12317TIP3   OH236907   8.129   6.110   2.233
12317TIP3    H136908   8.045   6.089   2.193
12317TIP3    H236909   8.146   6.037   2.294
12318TIP3   OH236910   3.930   4.949   0.426
12318TIP3    H136911   4.006   4.901   0.394
12318TIP3    H236912   3.858   4.919   0.372
12319TIP3   OH236913   0.614   2.062   3.138
12319TIP3    H136914   0.538   2.006   3.125
12319TIP3    H236915   0.644   2.084   3.050
12320TIP3   OH236916   0.528   2.455   1.532
12320TIP3    H136917   0.521   2.500   1.617
12320TIP3    H236918   0.622   2.448   1.516
12321TIP3   OH236919   6.824   6.058   6.553
12321TIP3    H136920   6.732   6.075   6.532
12321TIP3    H236921   6.847   6.125   6.617
12322TIP3   OH236922   5.494   3.339   2.746
12322TIP3    H136923   5.412   3.293   2.762
12322TIP3    H236924   5.511   3.387   2.827
12323TIP3   OH236925   5.900   6.273   4.260
12323TIP3    H136926   5.907   6.350   4.316
12323TIP3    H236927   5.821   6.229   4.290
12324TIP3   OH236928   3.108   3.965   0.379
12324TIP3    H136929   3.200   3.945   0.366
12324TIP3    H236930   3.063   3.882   0.368
12325TIP3   OH236931   4.422   6.705   2.188
12325TIP3    H136932   4.377   6.714   2.104
12325TIP3    H236933   4.513   6.727   2.169
12326TIP3   OH236934   5.652   5.462   0.619
12326TIP3    H136935   5.690   5.429   0.700
12326TIP3    H236936   5.639   5.555   0.634
12327TIP3   OH236937   3.771   4.248   1.758
12327TIP3    H136938   3.744   4.336   1.733
12327TIP3    H236939   3.728   4.233   1.842
12328TIP3   OH236940   3.639   5.685   6.636
12328TIP3    H136941   3.665   5.772   6.605
12328TIP3    H236942   3.548   5.676   6.607
12329TIP3   OH236943   4.686   5.989   2.829
12329TIP3    H136944   4.741   5.915   2.857
12329TIP3    H236945   4.632   6.009   2.905
12330TIP3   OH236946   6.591   2.928   3.909
12330TIP3    H136947   6.527   2.860   3.933
12330TIP3    H236948   6.669   2.879   3.884
12331TIP3   OH236949   4.197   1.672   1.584
12331TIP3    H136950   4.243   1.748   1.549
12331TIP3    H236951   4.198   1.685   1.679
12332TIP3   OH236952   2.052   7.099   3.291
12332TIP3    H136953   2.001   7.064   3.217
12332TIP3    H236954   1.986   7.129   3.353
12333TIP3   OH236955   3.727   3.184   6.707
12333TIP3    H136956   3.801   3.214   6.761
12333TIP3    H236957   3.768   3.145   6.630
12334TIP3   OH236958   7.454   3.515   3.207
12334TIP3    H136959   7.442   3.588   3.147
12334TIP3    H236960   7.371   3.467   3.203
12335TIP3   OH236961   5.936   2.494   6.301
12335TIP3    H136962   5.936   2.425   6.367
12335TIP3    H236963   5.847   2.494   6.266
12336TIP3   OH236964   0.761   1.515   5.510
12336TIP3    H136965   0.778   1.456   5.583
12336TIP3    H236966   0.815   1.592   5.528
12337TIP3   OH236967   5.145   0.984   5.307
12337TIP3    H136968   5.125   0.942   5.223
12337TIP3    H236969   5.086   0.943   5.369
12338TIP3   OH236970   7.260   2.338   1.358
12338TIP3    H136971   7.319   2.358   1.285
12338TIP3    H236972   7.187   2.291   1.318
12339TIP3   OH236973   5.234   2.062   4.382
12339TIP3    H136974   5.197   2.151   4.381
12339TIP3    H236975   5.318   2.073   4.427
12340TIP3   OH236976   6.738   4.620   1.478
12340TIP3    H136977   6.783   4.547   1.435
12340TIP3    H236978   6.778   4.626   1.565
12341TIP3   OH236979   0.906   7.226   1.278
12341TIP3    H136980   0.835   7.169   1.246
12341TIP3    H236981   0.898   7.222   1.373
12342TIP3   OH236982   3.925   0.630   1.045
12342TIP3    H136983   3.892   0.543   1.068
12342TIP3    H236984   4.005   0.640   1.098
12343TIP3   OH236985   2.841   7.287   4.222
12343TIP3    H136986   2.808   7.376   4.234
12343TIP3    H236987   2.818   7.265   4.132
12344TIP3   OH236988   8.200   4.684   1.891
12344TIP3    H136989   8.231   4.677   1.800
12344TIP3    H236990   8.245   4.760   1.926
12345TIP3   OH236991   1.586   0.997   1.043
12345TIP3    H136992   1.593   1.089   1.067
12345TIP3    H236993   1.587   0.997   0.947
12346TIP3   OH236994   0.964   7.445   5.427
12346TIP3    H136995   0.898   7.515   5.425
12346TIP3    H236996   1.044   7.487   5.395
12347TIP3   OH236997   6.663   2.035   1.306
12347TIP3    H136998   6.601   2.106   1.292
12347TIP3    H236999   6.691   2.046   1.397
12348TIP3   OH237000   3.675   1.757   1.406
12348TIP3    H137001   3.634   1.675   1.379
12348TIP3    H237002   3.705   1.798   1.325
12349TIP3   OH237003   6.826   4.828   4.850
12349TIP3    H137004   6.822   4.733   4.859
12349TIP3    H237005   6.912   4.845   4.813
12350TIP3   OH237006   0.805   6.283   5.927
12350TIP3    H137007   0.787   6.324   6.012
12350TIP3    H237008   0.795   6.190   5.943
12351TIP3   OH237009   1.890   3.918   1.928
12351TIP3    H137010   1.980   3.884   1.932
12351TIP3    H237011   1.841   3.849   1.883
12352TIP3   OH237012   5.053   6.767   2.782
12352TIP3    H137013   5.040   6.789   2.690
12352TIP3    H237014   5.125   6.823   2.810
12353TIP3   OH237015   3.057   1.772   4.257
12353TIP3    H137016   2.962   1.770   4.268
12353TIP3    H237017   3.086   1.684   4.282
12354TIP3   OH237018   7.516   6.675   0.505
12354TIP3    H137019   7.456   6.618   0.554
12354TIP3    H237020   7.507   6.761   0.546
12355TIP3   OH237021   6.207   2.023   1.475
12355TIP3    H137022   6.204   2.108   1.431
12355TIP3    H237023   6.150   2.033   1.551
12356TIP3   OH237024   8.078   1.750   5.297
12356TIP3    H137025   8.010   1.740   5.364
12356TIP3    H237026   8.075   1.843   5.273
12357TIP3   OH237027   4.847   0.873   1.767
12357TIP3    H137028   4.828   0.780   1.784
12357TIP3    H237029   4.935   0.886   1.802
12358TIP3   OH237030   5.701   4.515   6.154
12358TIP3    H137031   5.705   4.560   6.238
12358TIP3    H237032   5.618   4.467   6.157
12359TIP3   OH237033   4.665   0.706   5.449
12359TIP3    H137034   4.704   0.693   5.536
12359TIP3    H237035   4.713   0.646   5.392
12360TIP3   OH237036   2.367   3.394   2.287
12360TIP3    H137037   2.281   3.433   2.305
12360TIP3    H237038   2.418   3.411   2.366
12361TIP3   OH237039   6.105   2.901   1.786
12361TIP3    H137040   6.137   2.815   1.760
12361TIP3    H237041   6.180   2.945   1.825
12362TIP3   OH237042   2.518   0.092   1.761
12362TIP3    H137043   2.425   0.105   1.739
12362TIP3    H237044   2.556   0.180   1.756
12363TIP3   OH237045   7.747   3.259   0.707
12363TIP3    H137046   7.679   3.304   0.656
12363TIP3    H237047   7.782   3.193   0.647
12364TIP3   OH237048   5.836   0.166   5.530
12364TIP3    H137049   5.861   0.256   5.554
12364TIP3    H237050   5.919   0.119   5.525
12365TIP3   OH237051   3.970   7.545   2.761
12365TIP3    H137052   3.965   7.451   2.775
12365TIP3    H237053   4.053   7.572   2.801
12366TIP3   OH237054   2.163   5.225   0.981
12366TIP3    H137055   2.085   5.258   0.938
12366TIP3    H237056   2.131   5.171   1.052
12367TIP3   OH237057   3.729   2.522   0.017
12367TIP3    H137058   3.702   2.590  -0.045
12367TIP3    H237059   3.660   2.519   0.082
12368TIP3   OH237060   3.172   2.694   1.229
12368TIP3    H137061   3.191   2.767   1.170
12368TIP3    H237062   3.240   2.698   1.296
12369TIP3   OH237063   0.223   7.686   6.742
12369TIP3    H137064   0.183   7.760   6.786
12369TIP3    H237065   0.311   7.680   6.780
12370TIP3   OH237066   7.931   1.988   4.367
12370TIP3    H137067   7.944   2.001   4.461
12370TIP3    H237068   7.897   1.899   4.359
12371TIP3   OH237069   0.256   6.710   3.760
12371TIP3    H137070   0.201   6.636   3.736
12371TIP3    H237071   0.194   6.779   3.784
12372TIP3   OH237072   1.401   4.903   1.859
12372TIP3    H137073   1.429   4.816   1.889
12372TIP3    H237074   1.468   4.929   1.796
12373TIP3   OH237075   2.099   0.987   2.054
12373TIP3    H137076   2.161   1.017   1.987
12373TIP3    H237077   2.150   0.930   2.111
12374TIP3   OH237078   0.046   5.736   3.327
12374TIP3    H137079   0.066   5.821   3.287
12374TIP3    H237080   0.075   5.672   3.262
12375TIP3   OH237081   4.001   4.867   6.737
12375TIP3    H137082   4.008   4.813   6.816
12375TIP3    H237083   3.957   4.947   6.766
12376TIP3   OH237084   0.508   6.357   2.692
12376TIP3    H137085   0.580   6.311   2.649
12376TIP3    H237086   0.429   6.314   2.661
12377TIP3   OH237087   3.425   1.036   0.641
12377TIP3    H137088   3.376   0.990   0.572
12377TIP3    H237089   3.359   1.058   0.707
12378TIP3   OH237090   4.294   6.458   6.200
12378TIP3    H137091   4.334   6.528   6.148
12378TIP3    H237092   4.359   6.388   6.201
12379TIP3   OH237093   1.224   5.611   3.915
12379TIP3    H137094   1.242   5.523   3.883
12379TIP3    H237095   1.155   5.599   3.980
12380TIP3   OH237096   4.748   6.752   3.809
12380TIP3    H137097   4.783   6.670   3.842
12380TIP3    H237098   4.661   6.758   3.847
12381TIP3   OH237099   3.505   2.154   2.504
12381TIP3    H137100   3.591   2.196   2.501
12381TIP3    H237101   3.501   2.100   2.425
12382TIP3   OH237102   6.885   0.542   6.738
12382TIP3    H137103   6.855   0.571   6.652
12382TIP3    H237104   6.926   0.619   6.776
12383TIP3   OH237105   5.096   4.776   6.635
12383TIP3    H137106   5.175   4.759   6.685
12383TIP3    H237107   5.065   4.861   6.667
12384TIP3   OH237108   5.635   5.962   4.717
12384TIP3    H137109   5.727   5.938   4.709
12384TIP3    H237110   5.635   6.058   4.716
12385TIP3   OH237111   1.105   2.609   0.604
12385TIP3    H137112   1.082   2.570   0.520
12385TIP3    H237113   1.043   2.571   0.666
12386TIP3   OH237114   2.647   1.750   6.503
12386TIP3    H137115   2.676   1.773   6.414
12386TIP3    H237116   2.714   1.690   6.535
12387TIP3   OH237117   7.474   2.075   3.875
12387TIP3    H137118   7.443   1.992   3.913
12387TIP3    H237119   7.463   2.064   3.781
12388TIP3   OH237120   1.874   2.594   4.619
12388TIP3    H137121   1.858   2.642   4.538
12388TIP3    H237122   1.951   2.637   4.657
12389TIP3   OH237123   1.801   6.726   1.258
12389TIP3    H137124   1.869   6.665   1.232
12389TIP3    H237125   1.807   6.797   1.193
12390TIP3   OH237126   4.004   7.078   4.779
12390TIP3    H137127   3.999   7.081   4.684
12390TIP3    H237128   4.068   7.146   4.802
12391TIP3   OH237129   3.276   6.445   2.268
12391TIP3    H137130   3.257   6.538   2.268
12391TIP3    H237131   3.272   6.419   2.176
12392TIP3   OH237132   8.000   3.981   6.238
12392TIP3    H137133   8.065   3.917   6.206
12392TIP3    H237134   8.037   4.066   6.214
12393TIP3   OH237135   7.311   6.589   3.983
12393TIP3    H137136   7.369   6.559   3.913
12393TIP3    H237137   7.239   6.633   3.937
12394TIP3   OH237138   1.786   4.858   3.384
12394TIP3    H137139   1.857   4.816   3.336
12394TIP3    H237140   1.822   4.941   3.413
12395TIP3   OH237141   2.907   4.487   5.171
12395TIP3    H137142   2.946   4.509   5.256
12395TIP3    H237143   2.881   4.395   5.180
12396TIP3   OH237144   2.302   3.224   5.359
12396TIP3    H137145   2.331   3.166   5.288
12396TIP3    H237146   2.350   3.305   5.344
12397TIP3   OH237147   4.323   3.795   4.609
12397TIP3    H137148   4.282   3.837   4.533
12397TIP3    H237149   4.299   3.851   4.683
12398TIP3   OH237150   6.769   0.337   5.357
12398TIP3    H137151   6.711   0.407   5.326
12398TIP3    H237152   6.855   0.359   5.322
12399TIP3   OH237153   7.249   6.507   2.649
12399TIP3    H137154   7.295   6.534   2.569
12399TIP3    H237155   7.158   6.499   2.622
12400TIP3   OH237156   7.940   7.498   6.054
12400TIP3    H137157   7.989   7.417   6.039
12400TIP3    H237158   8.005   7.567   6.049
12401TIP3   OH237159   7.571   5.011   6.774
12401TIP3    H137160   7.527   5.046   6.697
12401TIP3    H237161   7.556   4.916   6.769
12402TIP3   OH237162   4.812   2.444   0.769
12402TIP3    H137163   4.797   2.489   0.686
12402TIP3    H237164   4.802   2.512   0.835
12403TIP3   OH237165   8.106   0.185   5.299
12403TIP3    H137166   8.197   0.206   5.322
12403TIP3    H237167   8.064   0.271   5.291
12404TIP3   OH237168   3.998   3.503   0.850
12404TIP3    H137169   4.092   3.487   0.842
12404TIP3    H237170   3.990   3.598   0.861
12405TIP3   OH237171   5.676   4.241   3.837
12405TIP3    H137172   5.754   4.271   3.884
12405TIP3    H237173   5.611   4.226   3.905
12406TIP3   OH237174   4.118   0.340   2.003
12406TIP3    H137175   4.098   0.248   2.020
12406TIP3    H237176   4.036   0.386   2.019
12407TIP3   OH237177   4.205   0.151   4.910
12407TIP3    H137178   4.137   0.181   4.971
12407TIP3    H237179   4.269   0.223   4.909
12408TIP3   OH237180   0.795   0.137   3.059
12408TIP3    H137181   0.780   0.043   3.052
12408TIP3    H237182   0.738   0.176   2.993
12409TIP3   OH237183   3.185   1.302   5.299
12409TIP3    H137184   3.156   1.376   5.244
12409TIP3    H237185   3.227   1.344   5.374
12410TIP3   OH237186   6.572   4.594   2.064
12410TIP3    H137187   6.502   4.657   2.081
12410TIP3    H237188   6.530   4.524   2.015
12411TIP3   OH237189   7.565   2.874   0.433
12411TIP3    H137190   7.629   2.940   0.459
12411TIP3    H237191   7.488   2.924   0.408
12412TIP3   OH237192   4.463   5.916   1.441
12412TIP3    H137193   4.453   5.884   1.351
12412TIP3    H237194   4.504   6.001   1.432
12413TIP3   OH237195   7.257   7.449   6.664
12413TIP3    H137196   7.349   7.429   6.643
12413TIP3    H237197   7.219   7.365   6.687
12414TIP3   OH237198   3.310   4.286   2.578
12414TIP3    H137199   3.329   4.331   2.496
12414TIP3    H237200   3.254   4.347   2.626
12415TIP3   OH237201   5.476   1.076   1.089
12415TIP3    H137202   5.513   1.032   1.166
12415TIP3    H237203   5.455   1.005   1.029
12416TIP3   OH237204   7.588   1.609   4.371
12416TIP3    H137205   7.550   1.593   4.458
12416TIP3    H237206   7.606   1.521   4.337
12417TIP3   OH237207   4.892   6.855   5.594
12417TIP3    H137208   4.859   6.771   5.625
12417TIP3    H237209   4.855   6.865   5.507
12418TIP3   OH237210   3.593   6.820   1.349
12418TIP3    H137211   3.505   6.798   1.319
12418TIP3    H237212   3.652   6.782   1.284
12419TIP3   OH237213   5.166   1.279   5.396
12419TIP3    H137214   5.175   1.215   5.466
12419TIP3    H237215   5.071   1.288   5.384
12420TIP3   OH237216   8.195   0.320   4.747
12420TIP3    H137217   8.169   0.259   4.678
12420TIP3    H237218   8.177   0.273   4.829
12421TIP3   OH237219   2.691   5.120   3.739
12421TIP3    H137220   2.758   5.154   3.798
12421TIP3    H237221   2.684   5.027   3.763
12422TIP3   OH237222   1.312   0.567   2.318
12422TIP3    H137223   1.264   0.539   2.397
12422TIP3    H237224   1.392   0.514   2.319
12423TIP3   OH237225   1.791   3.111   1.225
12423TIP3    H137226   1.799   3.113   1.130
12423TIP3    H237227   1.709   3.064   1.241
12424TIP3   OH237228   1.954   3.826   5.811
12424TIP3    H137229   1.988   3.815   5.722
12424TIP3    H237230   1.970   3.742   5.853
12425TIP3   OH237231   2.287   6.079   4.485
12425TIP3    H137232   2.373   6.037   4.472
12425TIP3    H237233   2.307   6.173   4.486
12426TIP3   OH237234   1.024   4.190   6.672
12426TIP3    H137235   1.114   4.192   6.706
12426TIP3    H237236   1.023   4.255   6.602
12427TIP3   OH237237   2.059   6.295   6.055
12427TIP3    H137238   2.154   6.292   6.066
12427TIP3    H237239   2.030   6.205   6.070
12428TIP3   OH237240   4.186   1.528   3.310
12428TIP3    H137241   4.272   1.551   3.345
12428TIP3    H237242   4.148   1.471   3.377
12429TIP3   OH237243   1.746   6.288   1.715
12429TIP3    H137244   1.708   6.266   1.630
12429TIP3    H237245   1.684   6.348   1.755
12430TIP3   OH237246   6.810   6.293   4.912
12430TIP3    H137247   6.824   6.223   4.848
12430TIP3    H237248   6.890   6.345   4.908
12431TIP3   OH237249  -0.050   0.030   0.924
12431TIP3    H137250   0.034   0.030   0.878
12431TIP3    H237251  -0.028   0.047   1.015
12432TIP3   OH237252   2.024   2.386   6.621
12432TIP3    H137253   1.944   2.341   6.646
12432TIP3    H237254   2.055   2.338   6.544
12433TIP3   OH237255   7.980   2.945   0.625
12433TIP3    H137256   8.052   3.001   0.595
12433TIP3    H237257   8.008   2.913   0.711
12434TIP3   OH237258   2.214   0.863   6.772
12434TIP3    H137259   2.225   0.772   6.800
12434TIP3    H237260   2.190   0.857   6.680
12435TIP3   OH237261   0.565   1.308   5.724
12435TIP3    H137262   0.562   1.217   5.752
12435TIP3    H237263   0.653   1.320   5.689
12436TIP3   OH237264   1.341   5.437   3.405
12436TIP3    H137265   1.360   5.531   3.412
12436TIP3    H237266   1.387   5.409   3.326
12437TIP3   OH237267   6.227   7.150   5.112
12437TIP3    H137268   6.152   7.209   5.116
12437TIP3    H237269   6.257   7.155   5.021
12438TIP3   OH237270   2.481   1.196   6.076
12438TIP3    H137271   2.457   1.248   6.153
12438TIP3    H237272   2.496   1.108   6.110
12439TIP3   OH237273   7.575   3.419   0.520
12439TIP3    H137274   7.493   3.385   0.484
12439TIP3    H237275   7.550   3.497   0.569
12440TIP3   OH237276   7.738   7.590   0.634
12440TIP3    H137277   7.665   7.540   0.670
12440TIP3    H237278   7.700   7.641   0.563
12441TIP3   OH237279   6.905   7.304   2.788
12441TIP3    H137280   6.875   7.354   2.864
12441TIP3    H237281   6.930   7.219   2.824
12442TIP3   OH237282   0.086   7.204   3.442
12442TIP3    H137283   0.056   7.124   3.398
12442TIP3    H237284   0.172   7.223   3.403
12443TIP3   OH237285   6.495   3.265   6.727
12443TIP3    H137286   6.583   3.296   6.709
12443TIP3    H237287   6.437   3.336   6.699
12444TIP3   OH237288   0.783   4.191   4.080
12444TIP3    H137289   0.849   4.161   4.017
12444TIP3    H237290   0.831   4.202   4.162
12445TIP3   OH237291   8.256   4.779   2.242
12445TIP3    H137292   8.321   4.791   2.311
12445TIP3    H237293   8.298   4.814   2.164
12446TIP3   OH237294   7.551   5.824   3.768
12446TIP3    H137295   7.607   5.858   3.698
12446TIP3    H237296   7.475   5.881   3.768
12447TIP3   OH237297   6.684   4.905   2.323
12447TIP3    H137298   6.719   4.866   2.403
12447TIP3    H237299   6.704   4.841   2.254
12448TIP3   OH237300   0.611   2.681   6.502
12448TIP3    H137301   0.654   2.734   6.435
12448TIP3    H237302   0.530   2.652   6.461
12449TIP3   OH237303   5.515   3.035   6.058
12449TIP3    H137304   5.504   3.130   6.055
12449TIP3    H237305   5.571   3.015   5.983
12450TIP3   OH237306   2.996   5.947   4.979
12450TIP3    H137307   2.931   5.931   4.911
12450TIP3    H237308   3.054   5.872   4.976
12451TIP3   OH237309   1.187   0.510   6.613
12451TIP3    H137310   1.237   0.441   6.570
12451TIP3    H237311   1.227   0.518   6.700
12452TIP3   OH237312   3.773   7.419   2.231
12452TIP3    H137313   3.775   7.514   2.216
12452TIP3    H237314   3.836   7.405   2.301
12453TIP3   OH237315   4.436   5.055   1.854
12453TIP3    H137316   4.485   5.138   1.854
12453TIP3    H237317   4.348   5.079   1.824
12454TIP3   OH237318   6.674   3.369   4.580
12454TIP3    H137319   6.635   3.319   4.652
12454TIP3    H237320   6.751   3.410   4.619
12455TIP3   OH237321   4.398   4.623   2.497
12455TIP3    H137322   4.311   4.661   2.486
12455TIP3    H237323   4.424   4.648   2.586
12456TIP3   OH237324   7.131   2.062   1.793
12456TIP3    H137325   7.182   1.984   1.813
12456TIP3    H237326   7.157   2.085   1.704
12457TIP3   OH237327   1.960   2.360   5.672
12457TIP3    H137328   2.046   2.318   5.673
12457TIP3    H237329   1.907   2.306   5.730
12458TIP3   OH237330   7.321   1.729   3.558
12458TIP3    H137331   7.355   1.819   3.557
12458TIP3    H237332   7.226   1.739   3.552
12459TIP3   OH237333   5.663   2.698   6.265
12459TIP3    H137334   5.706   2.743   6.192
12459TIP3    H237335   5.638   2.613   6.230
12460TIP3   OH237336   0.980   3.467   4.086
12460TIP3    H137337   0.891   3.501   4.076
12460TIP3    H237338   1.032   3.544   4.111
12461TIP3   OH237339   0.472   3.620   3.559
12461TIP3    H137340   0.397   3.569   3.589
12461TIP3    H237341   0.501   3.576   3.480
12462TIP3   OH237342   8.114   4.501   6.562
12462TIP3    H137343   8.080   4.427   6.510
12462TIP3    H237344   8.097   4.475   6.653
12463TIP3   OH237345   8.245   6.620   1.100
12463TIP3    H137346   8.159   6.603   1.139
12463TIP3    H237347   8.228   6.623   1.006
12464TIP3   OH237348   1.139   7.241   2.215
12464TIP3    H137349   1.138   7.172   2.281
12464TIP3    H237350   1.124   7.322   2.265
12465TIP3   OH237351   2.803   1.203   5.238
12465TIP3    H137352   2.730   1.157   5.279
12465TIP3    H237353   2.880   1.176   5.289
12466TIP3   OH237354   0.746   2.044   5.425
12466TIP3    H137355   0.670   1.987   5.438
12466TIP3    H237356   0.709   2.128   5.399
12467TIP3   OH237357   2.162   4.306   4.086
12467TIP3    H137358   2.188   4.216   4.069
12467TIP3    H237359   2.071   4.300   4.116
12468TIP3   OH237360   2.232   0.773   4.782
12468TIP3    H137361   2.170   0.833   4.742
12468TIP3    H237362   2.264   0.718   4.710
12469TIP3   OH237363   7.567   0.362   1.089
12469TIP3    H137364   7.556   0.287   1.031
12469TIP3    H237365   7.526   0.336   1.171
12470TIP3   OH237366   1.221   4.576   1.100
12470TIP3    H137367   1.171   4.613   1.173
12470TIP3    H237368   1.312   4.601   1.119
12471TIP3   OH237369   8.239   5.032   0.621
12471TIP3    H137370   8.320   4.980   0.617
12471TIP3    H237371   8.256   5.099   0.686
12472TIP3   OH237372   7.236   5.196   6.698
12472TIP3    H137373   7.237   5.195   6.794
12472TIP3    H237374   7.185   5.273   6.675
12473TIP3   OH237375   0.209   2.629   5.207
12473TIP3    H137376   0.304   2.637   5.213
12473TIP3    H237377   0.176   2.705   5.257
12474TIP3   OH237378   0.301   5.360   5.652
12474TIP3    H137379   0.322   5.352   5.559
12474TIP3    H237380   0.251   5.281   5.672
12475TIP3   OH237381   4.230   7.805   5.408
12475TIP3    H137382   4.203   7.716   5.429
12475TIP3    H237383   4.203   7.818   5.317
12476TIP3   OH237384   1.173   6.345   5.111
12476TIP3    H137385   1.093   6.397   5.101
12476TIP3    H237386   1.147   6.256   5.090
12477TIP3   OH237387   2.064   4.370   5.412
12477TIP3    H137388   2.145   4.415   5.436
12477TIP3    H237389   1.994   4.426   5.446
12478TIP3   OH237390   1.975   0.972   4.927
12478TIP3    H137391   1.980   0.934   4.839
12478TIP3    H237392   1.886   0.953   4.956
12479TIP3   OH237393   5.971   4.452   5.193
12479TIP3    H137394   5.956   4.489   5.106
12479TIP3    H237395   6.066   4.441   5.199
12480TIP3   OH237396   2.449   7.580   2.470
12480TIP3    H137397   2.413   7.494   2.447
12480TIP3    H237398   2.381   7.642   2.444
12481TIP3   OH237399   6.173   4.802   5.302
12481TIP3    H137400   6.198   4.779   5.212
12481TIP3    H237401   6.078   4.793   5.304
12482TIP3   OH237402   4.985   3.472   5.251
12482TIP3    H137403   4.907   3.430   5.215
12482TIP3    H237404   5.057   3.411   5.231
12483TIP3   OH237405   6.732   6.726   6.147
12483TIP3    H137406   6.810   6.710   6.094
12483TIP3    H237407   6.659   6.718   6.085
12484TIP3   OH237408   1.470   1.217   3.457
12484TIP3    H137409   1.469   1.249   3.367
12484TIP3    H237410   1.384   1.177   3.469
12485TIP3   OH237411   7.181   6.641   1.210
12485TIP3    H137412   7.089   6.629   1.188
12485TIP3    H237413   7.219   6.684   1.134
12486TIP3   OH237414   0.196   0.247   3.495
12486TIP3    H137415   0.117   0.299   3.511
12486TIP3    H237416   0.242   0.295   3.426
12487TIP3   OH237417   2.633   1.597   0.816
12487TIP3    H137418   2.701   1.560   0.759
12487TIP3    H237419   2.663   1.687   0.833
12488TIP3   OH237420   0.513   3.445   0.267
12488TIP3    H137421   0.457   3.368   0.276
12488TIP3    H237422   0.572   3.441   0.342
12489TIP3   OH237423   1.851   6.273   3.713
12489TIP3    H137424   1.861   6.188   3.670
12489TIP3    H237425   1.883   6.336   3.648
12490TIP3   OH237426   4.854   3.547   4.597
12490TIP3    H137427   4.806   3.499   4.665
12490TIP3    H237428   4.848   3.639   4.624
12491TIP3   OH237429   3.991   5.480   1.899
12491TIP3    H137430   3.929   5.415   1.867
12491TIP3    H237431   4.047   5.499   1.824
12492TIP3   OH237432   2.687   0.829   2.240
12492TIP3    H137433   2.778   0.826   2.210
12492TIP3    H237434   2.685   0.769   2.314
12493TIP3   OH237435   5.697   4.499   6.711
12493TIP3    H137436   5.775   4.507   6.766
12493TIP3    H237437   5.629   4.548   6.758
12494TIP3   OH237438   0.899   6.487   5.460
12494TIP3    H137439   0.904   6.464   5.553
12494TIP3    H237440   0.991   6.496   5.433
12495TIP3   OH237441   3.200   7.636   5.620
12495TIP3    H137442   3.198   7.562   5.558
12495TIP3    H237443   3.122   7.623   5.674
12496TIP3   OH237444   1.247   7.525   2.943
12496TIP3    H137445   1.234   7.619   2.925
12496TIP3    H237446   1.244   7.518   3.038
12497TIP3   OH237447   3.320   1.719   4.492
12497TIP3    H137448   3.276   1.748   4.572
12497TIP3    H237449   3.268   1.644   4.463
12498TIP3   OH237450   3.746   3.010   4.819
12498TIP3    H137451   3.770   3.036   4.908
12498TIP3    H237452   3.830   2.995   4.776
12499TIP3   OH237453   0.400   4.735   0.595
12499TIP3    H137454   0.456   4.681   0.651
12499TIP3    H237455   0.459   4.778   0.534
12500TIP3   OH237456   4.623   1.498   0.156
12500TIP3    H137457   4.549   1.546   0.119
12500TIP3    H237458   4.586   1.415   0.186
12501TIP3   OH237459   0.625   5.423   4.682
12501TIP3    H137460   0.614   5.489   4.614
12501TIP3    H237461   0.538   5.388   4.697
12502TIP3   OH237462   3.392   2.506   6.025
12502TIP3    H137463   3.435   2.466   6.100
12502TIP3    H237464   3.381   2.598   6.051
12503TIP3   OH237465   2.460   7.778   6.635
12503TIP3    H137466   2.549   7.781   6.601
12503TIP3    H237467   2.418   7.707   6.587
12504TIP3   OH237468   5.760   1.579   6.554
12504TIP3    H137469   5.824   1.650   6.550
12504TIP3    H237470   5.708   1.598   6.632
12505TIP3   OH237471   6.771   7.815   5.813
12505TIP3    H137472   6.688   7.846   5.849
12505TIP3    H237473   6.812   7.768   5.886
12506TIP3   OH237474   7.275   6.134   4.038
12506TIP3    H137475   7.239   6.085   4.112
12506TIP3    H237476   7.302   6.218   4.076
12507TIP3   OH237477   5.882   3.350   5.561
12507TIP3    H137478   5.941   3.391   5.497
12507TIP3    H237479   5.878   3.258   5.535
12508TIP3   OH237480   4.264   3.415   2.101
12508TIP3    H137481   4.251   3.446   2.012
12508TIP3    H237482   4.343   3.460   2.131
12509TIP3   OH237483   6.281   2.199   6.455
12509TIP3    H137484   6.225   2.121   6.449
12509TIP3    H237485   6.300   2.208   6.549
12510TIP3   OH237486   5.034   2.544   4.084
12510TIP3    H137487   5.047   2.609   4.016
12510TIP3    H237488   5.007   2.594   4.161
12511TIP3   OH237489   5.356   6.495   0.466
12511TIP3    H137490   5.368   6.497   0.561
12511TIP3    H237491   5.443   6.511   0.430
12512TIP3   OH237492   2.733   1.180   6.672
12512TIP3    H137493   2.677   1.126   6.617
12512TIP3    H237494   2.765   1.120   6.740
12513TIP3   OH237495  -0.025   0.534   5.988
12513TIP3    H137496  -0.022   0.630   5.987
12513TIP3    H237497   0.047   0.507   5.931
12514TIP3   OH237498   3.867   3.176   2.343
12514TIP3    H137499   3.802   3.143   2.281
12514TIP3    H237500   3.897   3.258   2.305
12515TIP3   OH237501   6.339   2.693   4.378
12515TIP3    H137502   6.284   2.743   4.439
12515TIP3    H237503   6.428   2.726   4.394
12516TIP3   OH237504   8.049   7.622   1.753
12516TIP3    H137505   8.089   7.652   1.835
12516TIP3    H237506   7.956   7.612   1.774
12517TIP3   OH237507   0.867   7.586   3.661
12517TIP3    H137508   0.893   7.634   3.582
12517TIP3    H237509   0.813   7.514   3.629
12518TIP3   OH237510   0.950   1.165   6.477
12518TIP3    H137511   0.914   1.224   6.410
12518TIP3    H237512   0.946   1.078   6.437
12519TIP3   OH237513   5.182   1.492   3.553
12519TIP3    H137514   5.196   1.441   3.633
12519TIP3    H237515   5.154   1.578   3.584
12520TIP3   OH237516   0.383   4.023   5.356
12520TIP3    H137517   0.332   4.072   5.292
12520TIP3    H237518   0.404   4.088   5.424
12521TIP3   OH237519   8.103   3.746   6.427
12521TIP3    H137520   8.149   3.802   6.365
12521TIP3    H237521   8.157   3.667   6.434
12522TIP3   OH237522   1.313   4.394   0.852
12522TIP3    H137523   1.371   4.367   0.781
12522TIP3    H237524   1.368   4.393   0.930
12523TIP3   OH237525   4.709   1.419   6.669
12523TIP3    H137526   4.692   1.496   6.614
12523TIP3    H237527   4.624   1.377   6.679
12524TIP3   OH237528   3.125   5.276   2.949
12524TIP3    H137529   3.217   5.290   2.925
12524TIP3    H237530   3.126   5.269   3.044
12525TIP3   OH237531   6.463   6.375   1.660
12525TIP3    H137532   6.416   6.441   1.609
12525TIP3    H237533   6.553   6.380   1.629
12526TIP3   OH237534   3.881   6.371   1.240
12526TIP3    H137535   3.829   6.443   1.275
12526TIP3    H237536   3.901   6.318   1.317
12527TIP3   OH237537   4.196   2.288   1.975
12527TIP3    H137538   4.158   2.372   2.000
12527TIP3    H237539   4.253   2.265   2.049
12528TIP3   OH237540   6.119   0.722   1.906
12528TIP3    H137541   6.170   0.650   1.944
12528TIP3    H237542   6.090   0.773   1.982
12529TIP3   OH237543   7.220   3.075   0.924
12529TIP3    H137544   7.217   2.981   0.940
12529TIP3    H237545   7.221   3.083   0.828
12530TIP3   OH237546   3.801   5.608   4.239
12530TIP3    H137547   3.780   5.690   4.195
12530TIP3    H237548   3.749   5.542   4.192
12531TIP3   OH237549   8.129   6.619   5.701
12531TIP3    H137550   8.088   6.690   5.653
12531TIP3    H237551   8.164   6.560   5.634
12532TIP3   OH237552   0.235   2.185   2.557
12532TIP3    H137553   0.283   2.134   2.492
12532TIP3    H237554   0.189   2.252   2.505
12533TIP3   OH237555   6.439   7.638   2.145
12533TIP3    H137556   6.395   7.679   2.220
12533TIP3    H237557   6.378   7.569   2.117
12534TIP3   OH237558   3.367   6.251   0.208
12534TIP3    H137559   3.306   6.317   0.176
12534TIP3    H237560   3.332   6.168   0.175
12535TIP3   OH237561   0.787   1.174   2.877
12535TIP3    H137562   0.862   1.119   2.854
12535TIP3    H237563   0.807   1.259   2.840
12536TIP3   OH237564   5.430   0.017   0.847
12536TIP3    H137565   5.448  -0.063   0.897
12536TIP3    H237566   5.506   0.073   0.861
12537TIP3   OH237567   4.759   7.357   5.949
12537TIP3    H137568   4.848   7.320   5.948
12537TIP3    H237569   4.722   7.327   6.031
12538TIP3   OH237570   6.588   7.722   3.943
12538TIP3    H137571   6.522   7.654   3.959
12538TIP3    H237572   6.606   7.716   3.849
12539TIP3   OH237573   1.407   4.297   6.314
12539TIP3    H137574   1.370   4.330   6.396
12539TIP3    H237575   1.438   4.375   6.268
12540TIP3   OH237576   1.118   3.483   0.550
12540TIP3    H137577   1.146   3.531   0.472
12540TIP3    H237578   1.044   3.430   0.521
12541TIP3   OH237579   0.675   3.712   2.570
12541TIP3    H137580   0.744   3.772   2.601
12541TIP3    H237581   0.593   3.755   2.595
12542TIP3   OH237582   1.151   2.788   0.398
12542TIP3    H137583   1.147   2.731   0.475
12542TIP3    H237584   1.061   2.816   0.384
12543TIP3   OH237585   3.832   0.256   1.540
12543TIP3    H137586   3.790   0.195   1.600
12543TIP3    H237587   3.775   0.333   1.541
12544TIP3   OH237588   1.889   7.268   3.087
12544TIP3    H137589   1.960   7.330   3.103
12544TIP3    H237590   1.846   7.259   3.173
12545TIP3   OH237591   4.380   1.181   6.028
12545TIP3    H137592   4.407   1.181   5.936
12545TIP3    H237593   4.397   1.091   6.057
12546TIP3   OH237594   7.820   2.858   4.479
12546TIP3    H137595   7.777   2.908   4.410
12546TIP3    H237596   7.831   2.920   4.550
12547TIP3   OH237597   6.112   1.748   3.334
12547TIP3    H137598   6.185   1.701   3.375
12547TIP3    H237599   6.098   1.703   3.251
12548TIP3   OH237600   4.817   2.026   4.883
12548TIP3    H137601   4.860   1.964   4.825
12548TIP3    H237602   4.724   2.020   4.861
12549TIP3   OH237603   6.418   1.941   1.627
12549TIP3    H137604   6.333   1.936   1.582
12549TIP3    H237605   6.461   2.016   1.587
12550TIP3   OH237606   4.204   1.940   4.986
12550TIP3    H137607   4.193   1.845   4.978
12550TIP3    H237608   4.275   1.961   4.925
12551TIP3   OH237609   1.554   0.688   1.458
12551TIP3    H137610   1.514   0.724   1.379
12551TIP3    H237611   1.595   0.606   1.429
12552TIP3   OH237612   3.796   4.288   5.137
12552TIP3    H137613   3.789   4.327   5.050
12552TIP3    H237614   3.711   4.248   5.153
12553TIP3   OH237615   0.204   2.044   4.039
12553TIP3    H137616   0.191   1.965   4.092
12553TIP3    H237617   0.167   2.021   3.953
12554TIP3   OH237618   7.025   7.130   5.405
12554TIP3    H137619   7.044   7.072   5.331
12554TIP3    H237620   7.003   7.214   5.364
12555TIP3   OH237621   1.030   7.690   6.516
12555TIP3    H137622   0.983   7.746   6.455
12555TIP3    H237623   0.962   7.648   6.568
12556TIP3   OH237624   0.548   2.373   3.015
12556TIP3    H137625   0.452   2.381   3.012
12556TIP3    H237626   0.577   2.403   2.929
12557TIP3   OH237627   3.531   0.641   3.232
12557TIP3    H137628   3.595   0.571   3.247
12557TIP3    H237629   3.510   0.635   3.139
12558TIP3   OH237630   6.905   5.426   4.197
12558TIP3    H137631   6.913   5.345   4.246
12558TIP3    H237632   6.864   5.400   4.114
12559TIP3   OH237633   7.748   3.694   1.487
12559TIP3    H137634   7.670   3.652   1.523
12559TIP3    H237635   7.782   3.746   1.560
12560TIP3   OH237636   6.188   0.148   4.755
12560TIP3    H137637   6.211   0.102   4.836
12560TIP3    H237638   6.147   0.229   4.784
12561TIP3   OH237639   5.888   3.742   1.341
12561TIP3    H137640   5.860   3.654   1.366
12561TIP3    H237641   5.837   3.762   1.263
12562TIP3   OH237642   7.080   2.930   4.348
12562TIP3    H137643   7.118   2.888   4.270
12562TIP3    H237644   7.033   2.859   4.392
12563TIP3   OH237645   4.581   4.074   3.495
12563TIP3    H137646   4.660   4.029   3.527
12563TIP3    H237647   4.526   4.004   3.461
12564TIP3   OH237648   5.842   0.608   6.594
12564TIP3    H137649   5.873   0.584   6.682
12564TIP3    H237650   5.914   0.659   6.557
12565TIP3   OH237651   6.754   3.336   2.321
12565TIP3    H137652   6.842   3.372   2.308
12565TIP3    H237653   6.724   3.376   2.402
12566TIP3   OH237654   1.251   7.344   4.743
12566TIP3    H137655   1.270   7.333   4.837
12566TIP3    H237656   1.196   7.423   4.739
12567TIP3   OH237657   7.986   1.983   5.885
12567TIP3    H137658   7.953   2.070   5.861
12567TIP3    H237659   7.941   1.961   5.966
12568TIP3   OH237660   1.668   5.439   4.551
12568TIP3    H137661   1.575   5.415   4.556
12568TIP3    H237662   1.702   5.422   4.639
12569TIP3   OH237663   6.343   1.810   6.133
12569TIP3    H137664   6.416   1.860   6.097
12569TIP3    H237665   6.357   1.811   6.228
12570TIP3   OH237666   2.493   2.704   1.192
12570TIP3    H137667   2.496   2.692   1.287
12570TIP3    H237668   2.456   2.623   1.158
12571TIP3   OH237669   7.852   2.771   5.652
12571TIP3    H137670   7.918   2.703   5.663
12571TIP3    H237671   7.823   2.790   5.742
12572TIP3   OH237672   3.580   1.553   3.156
12572TIP3    H137673   3.669   1.589   3.153
12572TIP3    H237674   3.564   1.522   3.067
12573TIP3   OH237675   1.164   0.233   3.623
12573TIP3    H137676   1.192   0.177   3.550
12573TIP3    H237677   1.069   0.228   3.621
12574TIP3   OH237678   0.164   6.399   5.262
12574TIP3    H137679   0.216   6.373   5.185
12574TIP3    H237680   0.118   6.478   5.233
12575TIP3   OH237681   6.211   2.608   3.129
12575TIP3    H137682   6.193   2.569   3.044
12575TIP3    H237683   6.259   2.540   3.177
12576TIP3   OH237684   1.970   7.184   1.197
12576TIP3    H137685   1.909   7.215   1.265
12576TIP3    H237686   1.965   7.089   1.203
12577TIP3   OH237687   0.473   2.052   1.110
12577TIP3    H137688   0.487   1.957   1.106
12577TIP3    H237689   0.537   2.088   1.049
12578TIP3   OH237690   4.029   3.904   1.765
12578TIP3    H137691   4.041   3.838   1.696
12578TIP3    H237692   4.117   3.922   1.796
12579TIP3   OH237693   6.665   6.837   1.718
12579TIP3    H137694   6.684   6.907   1.657
12579TIP3    H237695   6.571   6.846   1.737
12580TIP3   OH237696   2.897   1.875   5.590
12580TIP3    H137697   2.854   1.790   5.602
12580TIP3    H237698   2.916   1.905   5.678
12581TIP3   OH237699   6.062   6.414   2.939
12581TIP3    H137700   6.113   6.333   2.949
12581TIP3    H237701   6.037   6.436   3.029
12582TIP3   OH237702   7.545   7.500   5.765
12582TIP3    H137703   7.538   7.595   5.774
12582TIP3    H237704   7.601   7.473   5.838
12583TIP3   OH237705   3.578   3.324   2.521
12583TIP3    H137706   3.658   3.293   2.565
12583TIP3    H237707   3.510   3.317   2.588
12584TIP3   OH237708   6.612   7.597   4.904
12584TIP3    H137709   6.674   7.533   4.871
12584TIP3    H237710   6.527   7.566   4.874
12585TIP3   OH237711   5.747   2.324   5.153
12585TIP3    H137712   5.831   2.368   5.141
12585TIP3    H237713   5.748   2.252   5.089
12586TIP3   OH237714   2.559   3.254   2.167
12586TIP3    H137715   2.469   3.282   2.182
12586TIP3    H237716   2.612   3.323   2.207
12587TIP3   OH237717   5.261   2.129   1.746
12587TIP3    H137718   5.238   2.036   1.742
12587TIP3    H237719   5.180   2.173   1.772
12588TIP3   OH237720   7.276   6.871   1.904
12588TIP3    H137721   7.301   6.885   1.812
12588TIP3    H237722   7.211   6.938   1.921
12589TIP3   OH237723   2.793   5.404   3.228
12589TIP3    H137724   2.753   5.445   3.306
12589TIP3    H237725   2.726   5.343   3.197
12590TIP3   OH237726   1.277   1.933   2.153
12590TIP3    H137727   1.205   1.885   2.113
12590TIP3    H237728   1.284   1.896   2.241
12591TIP3   OH237729   7.950   3.607   0.043
12591TIP3    H137730   8.037   3.581   0.014
12591TIP3    H237731   7.901   3.525   0.048
12592TIP3   OH237732   2.533   0.233   0.492
12592TIP3    H137733   2.466   0.298   0.515
12592TIP3    H237734   2.600   0.242   0.560
12593TIP3   OH237735   5.970   7.187   3.810
12593TIP3    H137736   6.014   7.221   3.732
12593TIP3    H237737   5.999   7.097   3.818
12594TIP3   OH237738   1.548   6.882   2.593
12594TIP3    H137739   1.522   6.956   2.538
12594TIP3    H237740   1.566   6.921   2.679
12595TIP3   OH237741   0.238   7.737   4.262
12595TIP3    H137742   0.301   7.715   4.193
12595TIP3    H237743   0.281   7.806   4.313
12596TIP3   OH237744   3.125   5.625   2.476
12596TIP3    H137745   3.059   5.594   2.413
12596TIP3    H237746   3.186   5.552   2.484
12597TIP3   OH237747   6.826   5.311   6.143
12597TIP3    H137748   6.754   5.252   6.121
12597TIP3    H237749   6.801   5.394   6.101
12598TIP3   OH237750   1.256   1.562   5.862
12598TIP3    H137751   1.269   1.579   5.768
12598TIP3    H237752   1.184   1.619   5.887
12599TIP3   OH237753   6.635   0.913   1.713
12599TIP3    H137754   6.550   0.900   1.670
12599TIP3    H237755   6.620   0.889   1.804
12600TIP3   OH237756   6.703   0.376   2.121
12600TIP3    H137757   6.720   0.330   2.203
12600TIP3    H237758   6.728   0.314   2.053
12601TIP3   OH237759   7.653   1.179   4.631
12601TIP3    H137760   7.572   1.198   4.678
12601TIP3    H237761   7.711   1.252   4.652
12602TIP3   OH237762   2.730   5.888   5.841
12602TIP3    H137763   2.689   5.954   5.898
12602TIP3    H237764   2.681   5.892   5.760
12603TIP3   OH237765   5.637   0.782   6.489
12603TIP3    H137766   5.703   0.821   6.431
12603TIP3    H237767   5.687   0.725   6.547
12604TIP3   OH237768   1.419   2.083   6.455
12604TIP3    H137769   1.356   2.151   6.430
12604TIP3    H237770   1.502   2.112   6.418
12605TIP3   OH237771   7.165   3.641   0.507
12605TIP3    H137772   7.251   3.663   0.471
12605TIP3    H237773   7.103   3.667   0.439
12606TIP3   OH237774   7.615   2.418   3.698
12606TIP3    H137775   7.709   2.410   3.707
12606TIP3    H237776   7.602   2.502   3.653
12607TIP3   OH237777   2.560   7.032   2.750
12607TIP3    H137778   2.464   7.032   2.755
12607TIP3    H237779   2.584   6.943   2.776
12608TIP3   OH237780   0.812   3.637   5.439
12608TIP3    H137781   0.783   3.698   5.507
12608TIP3    H237782   0.732   3.616   5.391
12609TIP3   OH237783   1.045   5.632   0.691
12609TIP3    H137784   1.090   5.548   0.686
12609TIP3    H237785   1.028   5.645   0.784
12610TIP3   OH237786   5.135   7.260   1.354
12610TIP3    H137787   5.074   7.334   1.361
12610TIP3    H237788   5.148   7.231   1.444
12611TIP3   OH237789   7.643   7.636   3.180
12611TIP3    H137790   7.699   7.692   3.126
12611TIP3    H237791   7.557   7.640   3.137
12612TIP3   OH237792   2.356   4.008   1.955
12612TIP3    H137793   2.294   4.064   2.002
12612TIP3    H237794   2.421   3.984   2.021
12613TIP3   OH237795   1.042   3.781   2.831
12613TIP3    H137796   0.993   3.838   2.890
12613TIP3    H237797   1.024   3.816   2.744
12614TIP3   OH237798   5.062   3.717   5.968
12614TIP3    H137799   5.049   3.789   5.905
12614TIP3    H237800   4.982   3.717   6.021
12615TIP3   OH237801   8.261   7.798   2.827
12615TIP3    H137802   8.306   7.738   2.886
12615TIP3    H237803   8.197   7.843   2.881
12616TIP3   OH237804   3.782   6.638   1.227
12616TIP3    H137805   3.878   6.641   1.235
12616TIP3    H237806   3.766   6.647   1.134
12617TIP3   OH237807   5.983   7.698   2.947
12617TIP3    H137808   6.070   7.738   2.953
12617TIP3    H237809   5.960   7.677   3.037
12618TIP3   OH237810   3.454   5.082   5.276
12618TIP3    H137811   3.501   5.034   5.208
12618TIP3    H237812   3.508   5.159   5.294
12619TIP3   OH237813   6.207   4.316   2.720
12619TIP3    H137814   6.170   4.229   2.735
12619TIP3    H237815   6.134   4.376   2.734
12620TIP3   OH237816   5.871   1.706   1.614
12620TIP3    H137817   5.950   1.677   1.568
12620TIP3    H237818   5.881   1.670   1.702
12621TIP3   OH237819   6.549   7.648   2.914
12621TIP3    H137820   6.527   7.608   2.830
12621TIP3    H237821   6.490   7.606   2.977
12622TIP3   OH237822   7.836   3.972   2.346
12622TIP3    H137823   7.846   3.962   2.440
12622TIP3    H237824   7.857   4.064   2.329
12623TIP3   OH237825   7.801   0.182   6.397
12623TIP3    H137826   7.802   0.222   6.484
12623TIP3    H237827   7.746   0.240   6.345
12624TIP3   OH237828   8.096   6.853   2.888
12624TIP3    H137829   8.019   6.845   2.944
12624TIP3    H237830   8.090   6.941   2.850
12625TIP3   OH237831   5.546   5.693   4.931
12625TIP3    H137832   5.501   5.610   4.915
12625TIP3    H237833   5.486   5.742   4.986
12626TIP3   OH237834   4.585   2.473   4.479
12626TIP3    H137835   4.501   2.480   4.524
12626TIP3    H237836   4.612   2.563   4.462
12627TIP3   OH237837   7.801   1.107   1.838
12627TIP3    H137838   7.760   1.058   1.908
12627TIP3    H237839   7.820   1.042   1.770
12628TIP3   OH237840   1.241   0.332   3.317
12628TIP3    H137841   1.291   0.376   3.248
12628TIP3    H237842   1.154   0.319   3.280
12629TIP3   OH237843   2.084   7.665   4.613
12629TIP3    H137844   1.992   7.644   4.632
12629TIP3    H237845   2.088   7.670   4.517
12630TIP3   OH237846   0.213   5.110   3.687
12630TIP3    H137847   0.294   5.069   3.657
12630TIP3    H237848   0.241   5.193   3.726
12631TIP3   OH237849   6.232   2.272   5.339
12631TIP3    H137850   6.237   2.328   5.261
12631TIP3    H237851   6.192   2.328   5.405
12632TIP3   OH237852   3.344   7.583   3.596
12632TIP3    H137853   3.352   7.675   3.572
12632TIP3    H237854   3.249   7.566   3.595
12633TIP3   OH237855   1.972   6.755   2.706
12633TIP3    H137856   1.968   6.660   2.710
12633TIP3    H237857   2.060   6.777   2.738
12634TIP3   OH237858   1.025   1.106   6.739
12634TIP3    H137859   0.994   1.110   6.649
12634TIP3    H237860   0.987   1.183   6.781
12635TIP3   OH237861   0.224   5.894   4.020
12635TIP3    H137862   0.131   5.898   4.043
12635TIP3    H237863   0.268   5.893   4.105
12636TIP3   OH237864   3.908   4.248   4.088
12636TIP3    H137865   3.920   4.309   4.161
12636TIP3    H237866   3.957   4.287   4.016
12637TIP3   OH237867   2.294   1.461   6.354
12637TIP3    H137868   2.359   1.528   6.375
12637TIP3    H237869   2.269   1.480   6.263
12638TIP3   OH237870   3.177   4.240   0.878
12638TIP3    H137871   3.270   4.233   0.901
12638TIP3    H237872   3.132   4.193   0.948
12639TIP3   OH237873   0.492   6.636   4.627
12639TIP3    H137874   0.397   6.626   4.634
12639TIP3    H237875   0.519   6.568   4.565
12640TIP3   OH237876   3.889   1.303   6.183
12640TIP3    H137877   3.795   1.294   6.170
12640TIP3    H237878   3.899   1.386   6.229
12641TIP3   OH237879   4.832   4.479   0.034
12641TIP3    H137880   4.812   4.392   0.000
12641TIP3    H237881   4.857   4.465   0.125
12642TIP3   OH237882   3.721   5.024   6.180
12642TIP3    H137883   3.666   4.982   6.247
12642TIP3    H237884   3.784   4.956   6.155
12643TIP3   OH237885   0.816   3.335   2.941
12643TIP3    H137886   0.780   3.330   2.852
12643TIP3    H237887   0.801   3.247   2.977
12644TIP3   OH237888   8.108   0.695   5.212
12644TIP3    H137889   8.097   0.780   5.255
12644TIP3    H237890   8.178   0.708   5.148
12645TIP3   OH237891   7.876   6.333   3.969
12645TIP3    H137892   7.830   6.355   4.051
12645TIP3    H237893   7.806   6.330   3.903
12646TIP3   OH237894   3.431   0.109   6.012
12646TIP3    H137895   3.470   0.024   5.993
12646TIP3    H237896   3.467   0.134   6.098
12647TIP3   OH237897   3.945   6.316   6.164
12647TIP3    H137898   3.959   6.386   6.228
12647TIP3    H237899   4.031   6.277   6.152
12648TIP3   OH237900   4.714   0.432   4.600
12648TIP3    H137901   4.807   0.454   4.612
12648TIP3    H237902   4.683   0.414   4.689
12649TIP3   OH237903   5.860   7.245   5.337
12649TIP3    H137904   5.823   7.252   5.425
12649TIP3    H237905   5.936   7.188   5.347
12650TIP3   OH237906   3.995   0.746   5.181
12650TIP3    H137907   3.974   0.681   5.115
12650TIP3    H237908   4.090   0.761   5.171
12651TIP3   OH237909   7.842   0.798   5.382
12651TIP3    H137910   7.923   0.847   5.369
12651TIP3    H237911   7.864   0.732   5.449
12652TIP3   OH237912   3.629   5.321   5.321
12652TIP3    H137913   3.682   5.272   5.383
12652TIP3    H237914   3.614   5.406   5.363
12653TIP3   OH237915   8.230   6.573   3.536
12653TIP3    H137916   8.297   6.506   3.529
12653TIP3    H237917   8.192   6.561   3.623
12654TIP3   OH237918   2.078   3.398   4.282
12654TIP3    H137919   2.009   3.357   4.230
12654TIP3    H237920   2.064   3.365   4.371
12655TIP3   OH237921   3.129   6.991   1.819
12655TIP3    H137922   3.041   6.955   1.823
12655TIP3    H237923   3.117   7.083   1.797
12656TIP3   OH237924   4.857   2.432   2.146
12656TIP3    H137925   4.919   2.367   2.113
12656TIP3    H237926   4.783   2.428   2.085
12657TIP3   OH237927   5.009   5.818   2.755
12657TIP3    H137928   5.036   5.728   2.773
12657TIP3    H237929   4.933   5.832   2.811
12658TIP3   OH237930   0.621   7.486   0.993
12658TIP3    H137931   0.591   7.395   0.998
12658TIP3    H237932   0.668   7.500   1.075
12659TIP3   OH237933   6.287   3.097   2.137
12659TIP3    H137934   6.229   3.102   2.213
12659TIP3    H237935   6.350   3.167   2.150
12660TIP3   OH237936   3.443   5.461   0.493
12660TIP3    H137937   3.408   5.389   0.545
12660TIP3    H237938   3.416   5.441   0.403
12661TIP3   OH237939   6.383   6.442   5.162
12661TIP3    H137940   6.324   6.516   5.169
12661TIP3    H237941   6.447   6.468   5.095
12662TIP3   OH237942   7.926   7.352   1.291
12662TIP3    H137943   7.931   7.439   1.330
12662TIP3    H237944   7.895   7.295   1.362
12663TIP3   OH237945   3.631   1.466   3.697
12663TIP3    H137946   3.674   1.381   3.707
12663TIP3    H237947   3.691   1.517   3.643
12664TIP3   OH237948   4.398   4.237   3.370
12664TIP3    H137949   4.486   4.208   3.395
12664TIP3    H237950   4.386   4.203   3.281
12665TIP3   OH237951   4.350   6.621   3.470
12665TIP3    H137952   4.435   6.651   3.502
12665TIP3    H237953   4.317   6.693   3.416
12666TIP3   OH237954   2.151   0.340   5.321
12666TIP3    H137955   2.066   0.370   5.356
12666TIP3    H237956   2.210   0.415   5.335
12667TIP3   OH237957   7.420   0.745   3.274
12667TIP3    H137958   7.378   0.830   3.263
12667TIP3    H237959   7.423   0.732   3.369
12668TIP3   OH237960   1.456   0.111   2.335
12668TIP3    H137961   1.536   0.059   2.338
12668TIP3    H237962   1.390   0.056   2.378
12669TIP3   OH237963   6.765   3.930   1.113
12669TIP3    H137964   6.714   3.990   1.058
12669TIP3    H237965   6.712   3.850   1.117
12670TIP3   OH237966   7.726   1.166   6.639
12670TIP3    H137967   7.714   1.261   6.647
12670TIP3    H237968   7.761   1.153   6.551
12671TIP3   OH237969   6.816   5.388   3.937
12671TIP3    H137970   6.883   5.323   3.916
12671TIP3    H237971   6.852   5.470   3.904
12672TIP3   OH237972   0.859   4.735   0.608
12672TIP3    H137973   0.891   4.751   0.519
12672TIP3    H237974   0.938   4.713   0.658
12673TIP3   OH237975   1.215   1.407   3.654
12673TIP3    H137976   1.155   1.471   3.614
12673TIP3    H237977   1.158   1.345   3.699
12674TIP3   OH237978   2.888   1.650   3.474
12674TIP3    H137979   2.978   1.663   3.504
12674TIP3    H237980   2.896   1.633   3.380
12675TIP3   OH237981   1.372   0.522   0.718
12675TIP3    H137982   1.423   0.470   0.656
12675TIP3    H237983   1.323   0.584   0.664
12676TIP3   OH237984   4.862   4.376   0.302
12676TIP3    H137985   4.776   4.333   0.304
12676TIP3    H237986   4.909   4.335   0.375
12677TIP3   OH237987   5.142   1.767   3.562
12677TIP3    H137988   5.212   1.764   3.497
12677TIP3    H237989   5.160   1.845   3.614
12678TIP3   OH237990   3.094   0.067   3.613
12678TIP3    H137991   3.086   0.022   3.529
12678TIP3    H237992   3.188   0.079   3.625
12679TIP3   OH237993   5.947   0.199   2.499
12679TIP3    H137994   5.904   0.218   2.416
12679TIP3    H237995   5.875   0.187   2.561
12680TIP3   OH237996   6.467   1.193   3.478
12680TIP3    H137997   6.392   1.220   3.424
12680TIP3    H237998   6.489   1.270   3.529
12681TIP3   OH237999   2.933   1.265   0.743
12681TIP3    H138000   2.928   1.286   0.836
12681TIP3    H238001   2.884   1.335   0.700
12682TIP3   OH238002   0.225   5.553   3.961
12682TIP3    H138003   0.161   5.563   4.031
12682TIP3    H238004   0.310   5.561   4.005
12683TIP3   OH238005   5.839   3.679   4.227
12683TIP3    H138006   5.861   3.653   4.137
12683TIP3    H238007   5.893   3.621   4.282
12684TIP3   OH238008   3.678   7.670   2.231
12684TIP3    H138009   3.751   7.728   2.210
12684TIP3    H238010   3.608   7.729   2.259
12685TIP3   OH238011   5.443   1.382   6.021
12685TIP3    H138012   5.509   1.450   6.008
12685TIP3    H238013   5.404   1.402   6.106
12686TIP3   OH238014   6.821   5.547   0.285
12686TIP3    H138015   6.836   5.453   0.276
12686TIP3    H238016   6.897   5.587   0.243
12687TIP3   OH238017   2.348   4.373   4.958
12687TIP3    H138018   2.349   4.327   4.874
12687TIP3    H238019   2.413   4.326   5.011
12688TIP3   OH238020   4.495   2.542   5.095
12688TIP3    H138021   4.588   2.561   5.106
12688TIP3    H238022   4.452   2.626   5.113
12689TIP3   OH238023   6.754   3.327   6.695
12689TIP3    H138024   6.808   3.303   6.771
12689TIP3    H238025   6.790   3.276   6.623
12690TIP3   OH238026   6.410   0.449   0.361
12690TIP3    H138027   6.504   0.452   0.380
12690TIP3    H238028   6.402   0.388   0.288
12691TIP3   OH238029   5.705   0.489   2.593
12691TIP3    H138030   5.683   0.454   2.506
12691TIP3    H238031   5.693   0.415   2.652
12692TIP3   OH238032   0.034   1.770   6.001
12692TIP3    H138033   0.061   1.753   6.091
12692TIP3    H238034   0.096   1.721   5.947
12693TIP3   OH238035   1.728   6.674   4.207
12693TIP3    H138036   1.775   6.742   4.160
12693TIP3    H238037   1.778   6.594   4.191
12694TIP3   OH238038   3.575   0.695   6.172
12694TIP3    H138039   3.622   0.658   6.246
12694TIP3    H238040   3.494   0.729   6.209
12695TIP3   OH238041   3.009   1.459   1.252
12695TIP3    H138042   2.959   1.424   1.326
12695TIP3    H238043   3.004   1.554   1.263
12696TIP3   OH238044   1.756   4.102   3.670
12696TIP3    H138045   1.797   4.117   3.585
12696TIP3    H238046   1.762   4.008   3.683
12697TIP3   OH238047   7.667   1.318   2.599
12697TIP3    H138048   7.640   1.271   2.520
12697TIP3    H238049   7.678   1.250   2.665
12698TIP3   OH238050   1.080   5.122   5.204
12698TIP3    H138051   1.022   5.197   5.198
12698TIP3    H238052   1.160   5.149   5.158
12699TIP3   OH238053   2.996   0.491   3.098
12699TIP3    H138054   3.032   0.564   3.148
12699TIP3    H238055   2.902   0.500   3.107
12700TIP3   OH238056   3.063   2.872   2.210
12700TIP3    H138057   3.088   2.788   2.250
12700TIP3    H238058   3.093   2.864   2.119
12701TIP3   OH238059   5.115   4.331   5.884
12701TIP3    H138060   5.181   4.350   5.817
12701TIP3    H238061   5.097   4.416   5.924
12702TIP3   OH238062   2.525   1.814   2.602
12702TIP3    H138063   2.468   1.739   2.587
12702TIP3    H238064   2.527   1.824   2.697
12703TIP3   OH238065   5.855   4.170   0.468
12703TIP3    H138066   5.829   4.242   0.410
12703TIP3    H238067   5.934   4.134   0.427
12704TIP3   OH238068   2.176   4.757   1.614
12704TIP3    H138069   2.271   4.755   1.604
12704TIP3    H238070   2.162   4.749   1.709
12705TIP3   OH238071   3.530   5.551   5.421
12705TIP3    H138072   3.552   5.599   5.341
12705TIP3    H238073   3.521   5.618   5.488
12706TIP3   OH238074   4.143   2.580   5.302
12706TIP3    H138075   4.063   2.531   5.322
12706TIP3    H238076   4.181   2.534   5.227
12707TIP3   OH238077   4.030   7.606   1.899
12707TIP3    H138078   3.935   7.599   1.891
12707TIP3    H238079   4.044   7.643   1.986
12708TIP3   OH238080   7.665   5.154   4.881
12708TIP3    H138081   7.605   5.138   4.808
12708TIP3    H238082   7.620   5.219   4.935
12709TIP3   OH238083   6.836   6.019   0.122
12709TIP3    H138084   6.846   5.946   0.183
12709TIP3    H238085   6.854   6.097   0.175
12710TIP3   OH238086   6.256   6.174   1.635
12710TIP3    H138087   6.325   6.234   1.665
12710TIP3    H238088   6.190   6.231   1.596
12711TIP3   OH238089   2.508   1.054   3.998
12711TIP3    H138090   2.517   1.149   4.002
12711TIP3    H238091   2.573   1.021   4.060
12712TIP3   OH238092   4.634   5.261   1.918
12712TIP3    H138093   4.705   5.320   1.893
12712TIP3    H238094   4.677   5.190   1.964
12713TIP3   OH238095   7.800   6.921   1.897
12713TIP3    H138096   7.722   6.976   1.902
12713TIP3    H238097   7.809   6.883   1.985
12714TIP3   OH238098   6.598   0.160   5.451
12714TIP3    H138099   6.635   0.110   5.523
12714TIP3    H238100   6.671   0.214   5.419
12715TIP3   OH238101   0.339   6.425   0.514
12715TIP3    H138102   0.258   6.470   0.492
12715TIP3    H238103   0.314   6.362   0.582
12716TIP3   OH238104   7.806   6.074   2.121
12716TIP3    H138105   7.846   6.158   2.099
12716TIP3    H238106   7.794   6.031   2.037
12717TIP3   OH238107   4.493   3.164   1.360
12717TIP3    H138108   4.478   3.254   1.389
12717TIP3    H238109   4.451   3.160   1.274
12718TIP3   OH238110   0.279   2.406   3.720
12718TIP3    H138111   0.215   2.404   3.791
12718TIP3    H238112   0.331   2.327   3.734
12719TIP3   OH238113   7.926   4.394   4.368
12719TIP3    H138114   7.848   4.339   4.376
12719TIP3    H238115   7.997   4.340   4.403
12720TIP3   OH238116   4.898   3.124   6.194
12720TIP3    H138117   4.861   3.094   6.110
12720TIP3    H238118   4.940   3.207   6.174
12721TIP3   OH238119   0.832   6.650   6.644
12721TIP3    H138120   0.913   6.653   6.694
12721TIP3    H238121   0.777   6.718   6.683
12722TIP3   OH238122   5.188   5.300   5.080
12722TIP3    H138123   5.110   5.250   5.103
12722TIP3    H238124   5.189   5.300   4.985
12723TIP3   OH238125   2.537   2.174   5.985
12723TIP3    H138126   2.583   2.128   5.914
12723TIP3    H238127   2.494   2.104   6.035
12724TIP3   OH238128   5.782   2.235   1.713
12724TIP3    H138129   5.851   2.207   1.774
12724TIP3    H238130   5.711   2.172   1.727
12725TIP3   OH238131   5.198   6.652   5.025
12725TIP3    H138132   5.105   6.637   5.007
12725TIP3    H238133   5.243   6.625   4.945
12726TIP3   OH238134   2.833   0.200   0.527
12726TIP3    H138135   2.908   0.141   0.530
12726TIP3    H238136   2.804   0.198   0.436
12727TIP3   OH238137   1.519   5.178   6.485
12727TIP3    H138138   1.480   5.250   6.534
12727TIP3    H238139   1.476   5.100   6.520
12728TIP3   OH238140   4.052   2.260   1.529
12728TIP3    H138141   4.113   2.212   1.585
12728TIP3    H238142   3.974   2.205   1.526
12729TIP3   OH238143   0.726   0.307   1.724
12729TIP3    H138144   0.810   0.318   1.680
12729TIP3    H238145   0.661   0.306   1.654
12730TIP3   OH238146   3.242   3.959   5.975
12730TIP3    H138147   3.262   3.988   5.886
12730TIP3    H238148   3.148   3.941   5.974
12731TIP3   OH238149   3.454   6.737   5.913
12731TIP3    H138150   3.512   6.716   5.986
12731TIP3    H238151   3.390   6.798   5.949
12732TIP3   OH238152   1.558   7.401   1.365
12732TIP3    H138153   1.563   7.425   1.273
12732TIP3    H238154   1.612   7.467   1.410
12733TIP3   OH238155   2.619   0.332   1.928
12733TIP3    H138156   2.633   0.391   2.003
12733TIP3    H238157   2.529   0.303   1.937
12734TIP3   OH238158   6.119   4.021   3.609
12734TIP3    H138159   6.182   4.093   3.603
12734TIP3    H238160   6.046   4.049   3.554
12735TIP3   OH238161   6.163   6.129   2.966
12735TIP3    H138162   6.233   6.133   2.900
12735TIP3    H238163   6.142   6.036   2.973
12736TIP3   OH238164   5.163   4.749   0.713
12736TIP3    H138165   5.106   4.675   0.737
12736TIP3    H238166   5.107   4.806   0.660
12737TIP3   OH238167   5.802   2.778   0.057
12737TIP3    H138168   5.896   2.768   0.071
12737TIP3    H238169   5.764   2.777   0.145
12738TIP3   OH238170   2.132   7.551   2.962
12738TIP3    H138171   2.192   7.487   3.001
12738TIP3    H238172   2.086   7.589   3.037
12739TIP3   OH238173   7.156   6.214   1.068
12739TIP3    H138174   7.118   6.153   1.004
12739TIP3    H238175   7.168   6.160   1.146
12740TIP3   OH238176   4.584   6.718   3.183
12740TIP3    H138177   4.582   6.809   3.213
12740TIP3    H238178   4.502   6.707   3.134
12741TIP3   OH238179   0.900   5.003   3.452
12741TIP3    H138180   0.943   4.919   3.469
12741TIP3    H238181   0.921   5.057   3.529
12742TIP3   OH238182   6.076   3.654   4.626
12742TIP3    H138183   5.990   3.684   4.655
12742TIP3    H238184   6.115   3.731   4.585
12743TIP3   OH238185   3.117   0.765   6.317
12743TIP3    H138186   3.059   0.719   6.377
12743TIP3    H238187   3.068   0.768   6.235
12744TIP3   OH238188   7.938   4.699   1.254
12744TIP3    H138189   7.941   4.607   1.279
12744TIP3    H238190   7.912   4.698   1.161
12745TIP3   OH238191   1.630   0.073   5.680
12745TIP3    H138192   1.702   0.079   5.617
12745TIP3    H238193   1.603   0.164   5.693
12746TIP3   OH238194   6.860   5.132   4.859
12746TIP3    H138195   6.838   5.039   4.850
12746TIP3    H238196   6.899   5.139   4.946
12747TIP3   OH238197   0.526   7.396   3.333
12747TIP3    H138198   0.475   7.327   3.290
12747TIP3    H238199   0.469   7.428   3.403
12748TIP3   OH238200   4.792   5.242   0.090
12748TIP3    H138201   4.712   5.196   0.062
12748TIP3    H238202   4.841   5.176   0.139
12749TIP3   OH238203   2.385   6.185   3.965
12749TIP3    H138204   2.335   6.130   4.026
12749TIP3    H238205   2.361   6.274   3.989
12750TIP3   OH238206   5.459   5.473   3.535
12750TIP3    H138207   5.517   5.549   3.541
12750TIP3    H238208   5.519   5.398   3.536
12751TIP3   OH238209   7.532   5.570   2.587
12751TIP3    H138210   7.589   5.637   2.625
12751TIP3    H238211   7.592   5.511   2.541
12752TIP3   OH238212   8.035   2.182   1.200
12752TIP3    H138213   8.018   2.136   1.282
12752TIP3    H238214   8.039   2.274   1.224
12753TIP3   OH238215   2.333   5.577   3.146
12753TIP3    H138216   2.376   5.585   3.231
12753TIP3    H238217   2.318   5.667   3.118
12754TIP3   OH238218   3.543   6.711   6.653
12754TIP3    H138219   3.512   6.625   6.625
12754TIP3    H238220   3.612   6.692   6.717
12755TIP3   OH238221   8.091   4.063   0.072
12755TIP3    H138222   8.139   4.023   0.145
12755TIP3    H238223   8.147   4.134   0.041
12756TIP3   OH238224   5.477   3.018   3.840
12756TIP3    H138225   5.540   3.018   3.911
12756TIP3    H238226   5.524   3.056   3.766
12757TIP3   OH238227   2.743   1.041   0.189
12757TIP3    H138228   2.694   1.066   0.267
12757TIP3    H238229   2.805   1.112   0.175
12758TIP3   OH238230   7.629   7.124   3.204
12758TIP3    H138231   7.628   7.058   3.135
12758TIP3    H238232   7.720   7.126   3.234
12759TIP3   OH238233   7.935   4.705   6.462
12759TIP3    H138234   7.850   4.685   6.502
12759TIP3    H238235   7.997   4.650   6.510
12760TIP3   OH238236   1.067   3.957   1.882
12760TIP3    H138237   1.034   3.954   1.792
12760TIP3    H238238   1.160   3.977   1.873
12761TIP3   OH238239   2.537   2.940   5.617
12761TIP3    H138240   2.606   2.876   5.636
12761TIP3    H238241   2.489   2.949   5.700
12762TIP3   OH238242   3.234   3.002   2.481
12762TIP3    H138243   3.200   3.004   2.391
12762TIP3    H238244   3.314   2.950   2.475
12763TIP3   OH238245   1.020   2.203   4.029
12763TIP3    H138246   1.021   2.184   4.123
12763TIP3    H238247   0.960   2.138   3.992
12764TIP3   OH238248   4.360   2.454   1.589
12764TIP3    H138249   4.292   2.517   1.614
12764TIP3    H238250   4.349   2.443   1.495
12765TIP3   OH238251   7.641   0.565   3.267
12765TIP3    H138252   7.686   0.586   3.185
12765TIP3    H238253   7.589   0.643   3.287
12766TIP3   OH238254   3.412   7.460   6.175
12766TIP3    H138255   3.343   7.393   6.179
12766TIP3    H238256   3.476   7.432   6.241
12767TIP3   OH238257   6.058   3.823   3.364
12767TIP3    H138258   6.017   3.780   3.288
12767TIP3    H238259   6.030   3.914   3.356
12768TIP3   OH238260   7.934   6.920   6.047
12768TIP3    H138261   7.900   7.003   6.081
12768TIP3    H238262   8.014   6.945   6.000
12769TIP3   OH238263   7.312   6.388   2.243
12769TIP3    H138264   7.378   6.372   2.175
12769TIP3    H238265   7.352   6.451   2.302
12770TIP3   OH238266   3.440   6.494   4.017
12770TIP3    H138267   3.475   6.582   4.004
12770TIP3    H238268   3.517   6.437   4.021
12771TIP3   OH238269   7.268   6.268   1.841
12771TIP3    H138270   7.224   6.289   1.923
12771TIP3    H238271   7.284   6.174   1.845
12772TIP3   OH238272   4.117   6.717   5.344
12772TIP3    H138273   4.138   6.759   5.261
12772TIP3    H238274   4.109   6.789   5.406
12773TIP3   OH238275   7.370   0.480   6.620
12773TIP3    H138276   7.318   0.558   6.635
12773TIP3    H238277   7.327   0.412   6.672
12774TIP3   OH238278   0.892   6.761   6.268
12774TIP3    H138279   0.840   6.825   6.219
12774TIP3    H238280   0.922   6.809   6.345
12775TIP3   OH238281   4.210   0.699   2.434
12775TIP3    H138282   4.253   0.648   2.366
12775TIP3    H238283   4.280   0.721   2.496
12776TIP3   OH238284   2.271   4.135   1.255
12776TIP3    H138285   2.301   4.044   1.262
12776TIP3    H238286   2.350   4.188   1.259
12777TIP3   OH238287   2.883   6.026   6.192
12777TIP3    H138288   2.903   6.029   6.286
12777TIP3    H238289   2.839   5.942   6.179
12778TIP3   OH238290   2.970   4.563   6.285
12778TIP3    H138291   2.931   4.649   6.300
12778TIP3    H238292   3.061   4.581   6.262
12779TIP3   OH238293   3.815   1.501   3.470
12779TIP3    H138294   3.907   1.524   3.465
12779TIP3    H238295   3.792   1.473   3.382
12780TIP3   OH238296   1.623   7.206   1.931
12780TIP3    H138297   1.571   7.281   1.960
12780TIP3    H238298   1.682   7.242   1.864
12781TIP3   OH238299   1.178   7.699   0.423
12781TIP3    H138300   1.177   7.753   0.502
12781TIP3    H238301   1.220   7.617   0.451
12782TIP3   OH238302   6.357   4.277   4.643
12782TIP3    H138303   6.366   4.190   4.604
12782TIP3    H238304   6.353   4.336   4.568
12783TIP3   OH238305   1.913   1.647   4.306
12783TIP3    H138306   1.984   1.594   4.271
12783TIP3    H238307   1.840   1.586   4.315
12784TIP3   OH238308   4.766   3.339   4.269
12784TIP3    H138309   4.727   3.397   4.203
12784TIP3    H238310   4.851   3.379   4.287
12785TIP3   OH238311   3.262   0.171   2.081
12785TIP3    H138312   3.248   0.214   2.166
12785TIP3    H238313   3.175   0.145   2.053
12786TIP3   OH238314   6.543   0.359   5.017
12786TIP3    H138315   6.494   0.322   4.944
12786TIP3    H238316   6.476   0.388   5.079
12787TIP3   OH238317   3.079   5.427   4.156
12787TIP3    H138318   3.135   5.400   4.082
12787TIP3    H238319   3.131   5.407   4.233
12788TIP3   OH238320   3.038   0.903   4.271
12788TIP3    H138321   3.037   0.988   4.315
12788TIP3    H238322   3.128   0.873   4.279
12789TIP3   OH238323   3.992   6.033   3.117
12789TIP3    H138324   3.925   6.085   3.072
12789TIP3    H238325   3.999   5.953   3.064
12790TIP3   OH238326   6.578   4.595   6.411
12790TIP3    H138327   6.609   4.597   6.320
12790TIP3    H238328   6.606   4.510   6.445
12791TIP3   OH238329   4.195   3.947   1.333
12791TIP3    H138330   4.257   3.992   1.390
12791TIP3    H238331   4.156   4.016   1.281
12792TIP3   OH238332   0.423   5.376   0.430
12792TIP3    H138333   0.471   5.458   0.438
12792TIP3    H238334   0.389   5.359   0.519
12793TIP3   OH238335   0.148   3.125   1.166
12793TIP3    H138336   0.133   3.119   1.261
12793TIP3    H238337   0.149   3.034   1.136
12794TIP3   OH238338   5.237   3.535   0.958
12794TIP3    H138339   5.329   3.518   0.936
12794TIP3    H238340   5.241   3.607   1.022
12795TIP3   OH238341   1.374   0.323   6.532
12795TIP3    H138342   1.426   0.309   6.611
12795TIP3    H238343   1.422   0.389   6.483
12796TIP3   OH238344   6.315   3.353   1.889
12796TIP3    H138345   6.356   3.433   1.857
12796TIP3    H238346   6.379   3.284   1.868
12797TIP3   OH238347   5.539   1.644   6.013
12797TIP3    H138348   5.489   1.670   5.935
12797TIP3    H238349   5.601   1.716   6.026
12798TIP3   OH238350   5.552   2.877   2.279
12798TIP3    H138351   5.528   2.949   2.338
12798TIP3    H238352   5.588   2.921   2.202
12799TIP3   OH238353   8.086   7.753   6.113
12799TIP3    H138354   8.163   7.780   6.164
12799TIP3    H238355   8.102   7.788   6.025
12800TIP3   OH238356   6.360   4.594   0.934
12800TIP3    H138357   6.435   4.548   0.971
12800TIP3    H238358   6.398   4.660   0.876
12801TIP3   OH238359   3.958   1.239   1.311
12801TIP3    H138360   4.051   1.230   1.290
12801TIP3    H238361   3.930   1.314   1.258
12802TIP3   OH238362   2.586   6.883   1.638
12802TIP3    H138363   2.586   6.882   1.734
12802TIP3    H238364   2.598   6.792   1.613
12803TIP3   OH238365   6.494   5.983   4.590
12803TIP3    H138366   6.518   5.917   4.656
12803TIP3    H238367   6.416   5.947   4.548
12804TIP3   OH238368   7.414   1.410   1.390
12804TIP3    H138369   7.331   1.373   1.359
12804TIP3    H238370   7.476   1.337   1.384
12805TIP3   OH238371   7.225   1.550   0.063
12805TIP3    H138372   7.274   1.478   0.023
12805TIP3    H238373   7.250   1.548   0.155
12806TIP3   OH238374   0.194   7.840   0.303
12806TIP3    H138375   0.272   7.784   0.303
12806TIP3    H238376   0.131   7.793   0.357
12807TIP3   OH238377   2.331   7.742   1.946
12807TIP3    H138378   2.421   7.750   1.916
12807TIP3    H238379   2.299   7.832   1.948
12808TIP3   OH238380   6.632   5.766   3.087
12808TIP3    H138381   6.604   5.844   3.133
12808TIP3    H238382   6.551   5.719   3.067
12809TIP3   OH238383   6.382   4.247   0.114
12809TIP3    H138384   6.368   4.303   0.038
12809TIP3    H238385   6.378   4.307   0.189
12810TIP3   OH238386   7.676   4.601   6.557
12810TIP3    H138387   7.617   4.620   6.484
12810TIP3    H238388   7.647   4.659   6.627
12811TIP3   OH238389   0.082   0.251   5.269
12811TIP3    H138390   0.149   0.218   5.209
12811TIP3    H238391   0.103   0.344   5.279
12812TIP3   OH238392   3.633   0.901   3.148
12812TIP3    H138393   3.611   0.808   3.152
12812TIP3    H238394   3.549   0.946   3.142
12813TIP3   OH238395   6.264   3.214   6.403
12813TIP3    H138396   6.203   3.152   6.363
12813TIP3    H238397   6.318   3.245   6.330
12814TIP3   OH238398   7.999   4.706   3.740
12814TIP3    H138399   8.025   4.738   3.654
12814TIP3    H238400   8.068   4.645   3.764
12815TIP3   OH238401   3.445   7.740   1.525
12815TIP3    H138402   3.367   7.699   1.488
12815TIP3    H238403   3.474   7.679   1.593
12816TIP3   OH238404   4.844   0.589   6.474
12816TIP3    H138405   4.751   0.570   6.476
12816TIP3    H238406   4.886   0.503   6.485
12817TIP3   OH238407   8.140   5.811   3.877
12817TIP3    H138408   8.185   5.861   3.946
12817TIP3    H238409   8.174   5.848   3.795
12818TIP3   OH238410   1.030   5.632   6.314
12818TIP3    H138411   1.044   5.629   6.219
12818TIP3    H238412   0.997   5.720   6.331
12819TIP3   OH238413   5.327   6.204   2.966
12819TIP3    H138414   5.282   6.267   2.909
12819TIP3    H238415   5.410   6.186   2.921
12820TIP3   OH238416   5.908   1.401   2.250
12820TIP3    H138417   5.933   1.348   2.326
12820TIP3    H238418   5.991   1.420   2.205
12821TIP3   OH238419   6.478   7.183   5.663
12821TIP3    H138420   6.560   7.216   5.700
12821TIP3    H238421   6.488   7.088   5.664
12822TIP3   OH238422   7.676   5.111   0.097
12822TIP3    H138423   7.661   5.093   0.189
12822TIP3    H238424   7.700   5.204   0.094
12823TIP3   OH238425   2.752   3.048   3.770
12823TIP3    H138426   2.742   3.136   3.732
12823TIP3    H238427   2.844   3.026   3.754
12824TIP3   OH238428   4.667   4.725   5.447
12824TIP3    H138429   4.609   4.652   5.468
12824TIP3    H238430   4.618   4.778   5.385
12825TIP3   OH238431   2.578   6.331   3.621
12825TIP3    H138432   2.663   6.350   3.580
12825TIP3    H238433   2.581   6.238   3.641
12826TIP3   OH238434   0.773   0.354   1.286
12826TIP3    H138435   0.775   0.261   1.263
12826TIP3    H238436   0.862   0.384   1.269
12827TIP3   OH238437   7.362   0.713   5.860
12827TIP3    H138438   7.446   0.713   5.905
12827TIP3    H238439   7.375   0.766   5.782
12828TIP3   OH238440   0.224   7.421   1.628
12828TIP3    H138441   0.314   7.413   1.660
12828TIP3    H238442   0.214   7.514   1.610
12829TIP3   OH238443   3.691   4.442   4.503
12829TIP3    H138444   3.764   4.415   4.557
12829TIP3    H238445   3.638   4.498   4.560
12830TIP3   OH238446   2.162   3.860   1.878
12830TIP3    H138447   2.192   3.774   1.849
12830TIP3    H238448   2.240   3.903   1.913
12831TIP3   OH238449   1.823   1.515   3.972
12831TIP3    H138450   1.773   1.439   4.003
12831TIP3    H238451   1.912   1.499   4.005
12832TIP3   OH238452   5.798   6.102   3.609
12832TIP3    H138453   5.881   6.107   3.657
12832TIP3    H238454   5.750   6.180   3.636
12833TIP3   OH238455   5.047   3.066   3.401
12833TIP3    H138456   4.982   3.064   3.471
12833TIP3    H238457   4.998   3.045   3.322
12834TIP3   OH238458   2.867   2.791   1.183
12834TIP3    H138459   2.952   2.751   1.165
12834TIP3    H238460   2.828   2.735   1.250
12835TIP3   OH238461   7.597   1.025   3.319
12835TIP3    H138462   7.511   0.983   3.321
12835TIP3    H238463   7.578   1.118   3.328
12836TIP3   OH238464   4.720   4.438   5.911
12836TIP3    H138465   4.721   4.383   5.989
12836TIP3    H238466   4.629   4.468   5.904
12837TIP3   OH238467   4.162   7.126   6.550
12837TIP3    H138468   4.139   7.033   6.549
12837TIP3    H238469   4.106   7.165   6.483
12838TIP3   OH238470   6.952   1.189   0.232
12838TIP3    H138471   6.966   1.150   0.145
12838TIP3    H238472   6.936   1.282   0.213
12839TIP3   OH238473   2.760   5.820   6.336
12839TIP3    H138474   2.798   5.737   6.365
12839TIP3    H238475   2.737   5.865   6.417
12840TIP3   OH238476   4.570   7.078   2.988
12840TIP3    H138477   4.549   7.075   3.081
12840TIP3    H238478   4.652   7.128   2.983
12841TIP3   OH238479   3.312   5.997   4.622
12841TIP3    H138480   3.345   5.943   4.694
12841TIP3    H238481   3.345   5.955   4.543
12842TIP3   OH238482   2.918   1.282   0.192
12842TIP3    H138483   2.910   1.374   0.219
12842TIP3    H238484   2.970   1.242   0.261
12843TIP3   OH238485   4.255   6.286   4.027
12843TIP3    H138486   4.328   6.285   4.088
12843TIP3    H238487   4.195   6.352   4.063
12844TIP3   OH238488   2.422   5.716   3.367
12844TIP3    H138489   2.499   5.767   3.391
12844TIP3    H238490   2.356   5.781   3.343
12845TIP3   OH238491   5.195   1.172   1.882
12845TIP3    H138492   5.136   1.228   1.831
12845TIP3    H238493   5.267   1.231   1.908
12846TIP3   OH238494   4.059   1.776   5.931
12846TIP3    H138495   4.123   1.847   5.922
12846TIP3    H238496   4.060   1.754   6.024
12847TIP3   OH238497   5.336   4.727   5.423
12847TIP3    H138498   5.369   4.685   5.344
12847TIP3    H238499   5.328   4.820   5.399
12848TIP3   OH238500   4.646   1.467   4.632
12848TIP3    H138501   4.572   1.409   4.648
12848TIP3    H238502   4.623   1.548   4.677
12849TIP3   OH238503   1.686   6.014   4.661
12849TIP3    H138504   1.612   6.035   4.718
12849TIP3    H238505   1.653   6.027   4.572
12850TIP3   OH238506   3.111   4.983   2.993
12850TIP3    H138507   3.053   5.050   3.028
12850TIP3    H238508   3.064   4.901   3.006
12851TIP3   OH238509   4.298   2.843   3.493
12851TIP3    H138510   4.312   2.897   3.571
12851TIP3    H238511   4.372   2.783   3.492
12852TIP3   OH238512   2.703   1.620   4.780
12852TIP3    H138513   2.644   1.568   4.835
12852TIP3    H238514   2.693   1.709   4.813
12853TIP3   OH238515   3.831   0.517   2.674
12853TIP3    H138516   3.821   0.460   2.598
12853TIP3    H238517   3.883   0.591   2.642
12854TIP3   OH238518   8.267   7.374   3.114
12854TIP3    H138519   8.221   7.435   3.057
12854TIP3    H238520   8.202   7.352   3.182
12855TIP3   OH238521   4.959   7.422   4.572
12855TIP3    H138522   4.918   7.497   4.615
12855TIP3    H238523   4.981   7.453   4.485
12856TIP3   OH238524   6.525   7.533   2.679
12856TIP3    H138525   6.495   7.603   2.621
12856TIP3    H238526   6.605   7.500   2.637
12857TIP3   OH238527   4.661   5.488   5.100
12857TIP3    H138528   4.572   5.493   5.064
12857TIP3    H238529   4.714   5.540   5.040
12858TIP3   OH238530   5.247   3.561   0.530
12858TIP3    H138531   5.339   3.562   0.503
12858TIP3    H238532   5.221   3.470   0.525
12859TIP3   OH238533   0.196   3.091   3.306
12859TIP3    H138534   0.147   3.139   3.239
12859TIP3    H238535   0.263   3.154   3.336
12860TIP3   OH238536   0.359   3.023   1.927
12860TIP3    H138537   0.336   2.956   1.863
12860TIP3    H238538   0.308   3.100   1.902
12861TIP3   OH238539   1.275   6.978   3.675
12861TIP3    H138540   1.299   7.058   3.722
12861TIP3    H238541   1.244   7.009   3.589
12862TIP3   OH238542   4.599   5.265   6.610
12862TIP3    H138543   4.638   5.196   6.556
12862TIP3    H238544   4.528   5.222   6.657
12863TIP3   OH238545   3.091   2.435   2.023
12863TIP3    H138546   3.044   2.359   1.989
12863TIP3    H238547   3.078   2.432   2.118
12864TIP3   OH238548   1.387   2.451   4.103
12864TIP3    H138549   1.400   2.546   4.111
12864TIP3    H238550   1.302   2.442   4.061
12865TIP3   OH238551   4.130   5.714   5.414
12865TIP3    H138552   4.038   5.694   5.398
12865TIP3    H238553   4.178   5.652   5.359
12866TIP3   OH238554   5.842   0.904   1.914
12866TIP3    H138555   5.787   0.857   1.977
12866TIP3    H238556   5.835   0.851   1.834
12867TIP3   OH238557   2.852   5.824   2.434
12867TIP3    H138558   2.903   5.743   2.429
12867TIP3    H238559   2.763   5.796   2.453
12868TIP3   OH238560   2.260   2.984   3.058
12868TIP3    H138561   2.350   2.969   3.086
12868TIP3    H238562   2.258   3.077   3.036
12869TIP3   OH238563   7.002   1.793   2.926
12869TIP3    H138564   7.035   1.845   3.000
12869TIP3    H238565   7.001   1.703   2.959
12870TIP3   OH238566   4.481   1.514   2.576
12870TIP3    H138567   4.394   1.552   2.590
12870TIP3    H238568   4.463   1.424   2.549
12871TIP3   OH238569   5.711   1.371   1.377
12871TIP3    H138570   5.721   1.324   1.295
12871TIP3    H238571   5.619   1.395   1.381
12872TIP3   OH238572   3.174   1.575   2.965
12872TIP3    H138573   3.194   1.638   3.034
12872TIP3    H238574   3.124   1.506   3.008
12873TIP3   OH238575   4.692   0.949   6.293
12873TIP3    H138576   4.688   1.040   6.324
12873TIP3    H238577   4.713   0.957   6.200
12874TIP3   OH238578   5.510   6.562   1.086
12874TIP3    H138579   5.417   6.542   1.080
12874TIP3    H238580   5.545   6.544   0.999
12875TIP3   OH238581   2.759   2.998   6.260
12875TIP3    H138582   2.707   3.043   6.326
12875TIP3    H238583   2.783   3.066   6.197
12876TIP3   OH238584   0.961   7.399   6.008
12876TIP3    H138585   0.996   7.467   6.067
12876TIP3    H238586   0.871   7.386   6.037
12877TIP3   OH238587   6.009   1.081   6.064
12877TIP3    H138588   5.936   1.132   6.097
12877TIP3    H238589   5.968   1.006   6.020
12878TIP3   OH238590   0.563   1.778   6.504
12878TIP3    H138591   0.608   1.697   6.524
12878TIP3    H238592   0.590   1.839   6.573
12879TIP3   OH238593   8.246   6.806   1.630
12879TIP3    H138594   8.243   6.886   1.683
12879TIP3    H238595   8.268   6.737   1.692
12880TIP3   OH238596   4.863   3.661   3.962
12880TIP3    H138597   4.841   3.708   3.882
12880TIP3    H238598   4.780   3.651   4.008
12881TIP3   OH238599   5.036   2.438   3.465
12881TIP3    H138600   5.016   2.505   3.530
12881TIP3    H238601   5.096   2.481   3.404
12882TIP3   OH238602   3.899   0.458   4.657
12882TIP3    H138603   3.949   0.404   4.595
12882TIP3    H238604   3.818   0.409   4.670
12883TIP3   OH238605   6.006   1.140   0.223
12883TIP3    H138606   5.995   1.112   0.132
12883TIP3    H238607   6.083   1.197   0.221
12884TIP3   OH238608   3.721   1.852   0.158
12884TIP3    H138609   3.775   1.857   0.238
12884TIP3    H238610   3.725   1.760   0.132
12885TIP3   OH238611   4.978   2.527   4.713
12885TIP3    H138612   5.020   2.513   4.628
12885TIP3    H238613   4.963   2.440   4.747
12886TIP3   OH238614   0.825   5.800   4.946
12886TIP3    H138615   0.877   5.853   4.884
12886TIP3    H238616   0.735   5.832   4.935
12887TIP3   OH238617   4.250   7.740   0.943
12887TIP3    H138618   4.244   7.821   0.993
12887TIP3    H238619   4.309   7.761   0.871
12888TIP3   OH238620   1.923   6.285   2.817
12888TIP3    H138621   1.856   6.321   2.876
12888TIP3    H238622   1.878   6.214   2.771
12889TIP3   OH238623   0.758   3.521   4.954
12889TIP3    H138624   0.777   3.592   5.015
12889TIP3    H238625   0.750   3.443   5.009
12890TIP3   OH238626   3.198   0.281   2.343
12890TIP3    H138627   3.140   0.357   2.346
12890TIP3    H238628   3.140   0.206   2.354
12891TIP3   OH238629   0.315   0.802   4.466
12891TIP3    H138630   0.348   0.718   4.497
12891TIP3    H238631   0.278   0.843   4.544
12892TIP3   OH238632   4.658   2.998   2.728
12892TIP3    H138633   4.659   3.024   2.820
12892TIP3    H238634   4.663   3.080   2.680
12893TIP3   OH238635   6.330   3.669   3.951
12893TIP3    H138636   6.234   3.671   3.944
12893TIP3    H238637   6.356   3.590   3.903
12894TIP3   OH238638   3.635   3.521   5.427
12894TIP3    H138639   3.615   3.500   5.336
12894TIP3    H238640   3.550   3.540   5.466
12895TIP3   OH238641   7.876   5.004   5.207
12895TIP3    H138642   7.899   5.052   5.286
12895TIP3    H238643   7.780   5.011   5.202
12896TIP3   OH238644   7.848   4.965   6.432
12896TIP3    H138645   7.876   4.877   6.407
12896TIP3    H238646   7.896   4.984   6.513
12897TIP3   OH238647   2.237   4.565   2.570
12897TIP3    H138648   2.307   4.625   2.597
12897TIP3    H238649   2.261   4.481   2.608
12898TIP3   OH238650   0.766   6.875   0.036
12898TIP3    H138651   0.688   6.856  -0.016
12898TIP3    H238652   0.815   6.938  -0.016
12899TIP3   OH238653   0.298   7.340   1.347
12899TIP3    H138654   0.276   7.430   1.325
12899TIP3    H238655   0.261   7.327   1.434
12900TIP3   OH238656   3.985   4.890   1.635
12900TIP3    H138657   3.938   4.878   1.717
12900TIP3    H238658   4.066   4.934   1.659
12901TIP3   OH238659   4.803   3.521   3.091
12901TIP3    H138660   4.812   3.431   3.123
12901TIP3    H238661   4.708   3.533   3.080
12902TIP3   OH238662   2.559   4.568   0.347
12902TIP3    H138663   2.553   4.569   0.251
12902TIP3    H238664   2.551   4.660   0.372
12903TIP3   OH238665   6.041   3.200   2.294
12903TIP3    H138666   6.025   3.266   2.225
12903TIP3    H238667   5.965   3.142   2.289
12904TIP3   OH238668   3.388  -0.002   3.651
12904TIP3    H138669   3.471  -0.006   3.699
12904TIP3    H238670   3.409   0.046   3.570
12905TIP3   OH238671   3.644   6.472   1.441
12905TIP3    H138672   3.699   6.483   1.518
12905TIP3    H238673   3.647   6.558   1.398
12906TIP3   OH238674   5.268   3.913   0.381
12906TIP3    H138675   5.340   3.942   0.324
12906TIP3    H238676   5.250   3.823   0.353
12907TIP3   OH238677   2.471   6.914   5.211
12907TIP3    H138678   2.566   6.924   5.213
12907TIP3    H238679   2.441   6.962   5.288
12908TIP3   OH238680   0.625   1.575   5.844
12908TIP3    H138681   0.576   1.497   5.819
12908TIP3    H238682   0.634   1.625   5.763
12909TIP3   OH238683   4.593   7.518   5.806
12909TIP3    H138684   4.630   7.598   5.768
12909TIP3    H238685   4.668   7.461   5.820
12910TIP3   OH238686   2.095   0.773   3.402
12910TIP3    H138687   2.163   0.757   3.467
12910TIP3    H238688   2.031   0.703   3.417
12911TIP3   OH238689   3.148   2.954   3.502
12911TIP3    H138690   3.085   2.908   3.446
12911TIP3    H238691   3.105   2.956   3.588
12912TIP3   OH238692   5.999   0.973   1.060
12912TIP3    H138693   6.012   0.880   1.038
12912TIP3    H238694   5.970   1.013   0.978
12913TIP3   OH238695   7.134   4.096   1.567
12913TIP3    H138696   7.143   4.075   1.474
12913TIP3    H238697   7.212   4.148   1.587
12914TIP3   OH238698   7.985   5.867   3.084
12914TIP3    H138699   7.958   5.913   3.004
12914TIP3    H238700   8.050   5.804   3.055
12915TIP3   OH238701   5.319   4.583   4.901
12915TIP3    H138702   5.361   4.582   4.815
12915TIP3    H238703   5.228   4.606   4.883
12916TIP3   OH238704   2.383   1.354   3.608
12916TIP3    H138705   2.369   1.406   3.688
12916TIP3    H238706   2.477   1.359   3.593
12917TIP3   OH238707   4.761   4.244   1.309
12917TIP3    H138708   4.688   4.270   1.253
12917TIP3    H238709   4.839   4.274   1.263
12918TIP3   OH238710   6.895   2.888   3.248
12918TIP3    H138711   6.975   2.919   3.291
12918TIP3    H238712   6.915   2.893   3.154
12919TIP3   OH238713   7.305   7.806   4.219
12919TIP3    H138714   7.358   7.831   4.143
12919TIP3    H238715   7.364   7.817   4.294
12920TIP3   OH238716   6.060   4.070   3.908
12920TIP3    H138717   6.059   4.165   3.898
12920TIP3    H238718   6.048   4.037   3.819
12921TIP3   OH238719   2.969   0.554   5.245
12921TIP3    H138720   2.884   0.515   5.225
12921TIP3    H238721   2.948   0.629   5.300
12922TIP3   OH238722   5.391   2.831   6.212
12922TIP3    H138723   5.422   2.743   6.189
12922TIP3    H238724   5.431   2.888   6.147
12923TIP3   OH238725   4.877   2.796   2.147
12923TIP3    H138726   4.924   2.879   2.142
12923TIP3    H238727   4.918   2.750   2.220
12924TIP3   OH238728   0.931   6.330   2.522
12924TIP3    H138729   0.981   6.279   2.458
12924TIP3    H238730   0.965   6.419   2.514
12925TIP3   OH238731   5.790   5.196   6.305
12925TIP3    H138732   5.821   5.115   6.346
12925TIP3    H238733   5.790   5.260   6.376
12926TIP3   OH238734   1.232   2.754   2.960
12926TIP3    H138735   1.306   2.782   2.907
12926TIP3    H238736   1.253   2.664   2.985
12927TIP3   OH238737   6.886   3.240   0.653
12927TIP3    H138738   6.961   3.299   0.664
12927TIP3    H238739   6.881   3.191   0.735
12928TIP3   OH238740   6.580   4.188   1.841
12928TIP3    H138741   6.523   4.265   1.843
12928TIP3    H238742   6.605   4.175   1.932
12929TIP3   OH238743   1.922   0.924   6.282
12929TIP3    H138744   1.998   0.976   6.256
12929TIP3    H238745   1.931   0.914   6.377
12930TIP3   OH238746   1.767   5.311   6.537
12930TIP3    H138747   1.775   5.265   6.620
12930TIP3    H238748   1.697   5.265   6.490
12931TIP3   OH238749   2.482   3.871   0.456
12931TIP3    H138750   2.533   3.951   0.440
12931TIP3    H238751   2.394   3.903   0.478
12932TIP3   OH238752   6.957   4.382   6.120
12932TIP3    H138753   7.051   4.396   6.108
12932TIP3    H238754   6.917   4.432   6.049
12933TIP3   OH238755   5.317   6.280   2.211
12933TIP3    H138756   5.321   6.236   2.126
12933TIP3    H238757   5.399   6.329   2.216
12934TIP3   OH238758   5.415   4.810   1.577
12934TIP3    H138759   5.503   4.831   1.609
12934TIP3    H238760   5.370   4.771   1.652
12935TIP3   OH238761   0.006   1.812   2.995
12935TIP3    H138762  -0.058   1.767   3.050
12935TIP3    H238763   0.020   1.753   2.921
12936TIP3   OH238764   3.930   0.485   3.591
12936TIP3    H138765   3.954   0.444   3.508
12936TIP3    H238766   3.962   0.575   3.584
12937TIP3   OH238767   1.941   2.077   1.208
12937TIP3    H138768   1.985   2.162   1.203
12937TIP3    H238769   1.897   2.068   1.124
12938TIP3   OH238770   7.978   2.461   5.670
12938TIP3    H138771   8.053   2.485   5.725
12938TIP3    H238772   8.009   2.474   5.581
12939TIP3   OH238773   0.428   2.775   2.127
12939TIP3    H138774   0.349   2.742   2.084
12939TIP3    H238775   0.419   2.871   2.122
12940TIP3   OH238776   3.282   0.446   5.067
12940TIP3    H138777   3.371   0.476   5.049
12940TIP3    H238778   3.287   0.351   5.060
12941TIP3   OH238779   0.826   0.930   4.172
12941TIP3    H138780   0.798   0.938   4.081
12941TIP3    H238781   0.757   0.972   4.223
12942TIP3   OH238782   6.143   2.313   6.188
12942TIP3    H138783   6.077   2.379   6.208
12942TIP3    H238784   6.102   2.257   6.122
12943TIP3   OH238785   5.342   1.296   1.012
12943TIP3    H138786   5.266   1.282   0.957
12943TIP3    H238787   5.369   1.207   1.039
12944TIP3   OH238788   2.504   6.034   1.076
12944TIP3    H138789   2.575   6.078   1.029
12944TIP3    H238790   2.548   5.970   1.133
12945TIP3   OH238791   0.958   3.100   5.586
12945TIP3    H138792   0.930   3.128   5.673
12945TIP3    H238793   0.915   3.016   5.573
12946TIP3   OH238794   2.408   1.437   1.349
12946TIP3    H138795   2.419   1.419   1.255
12946TIP3    H238796   2.328   1.488   1.355
12947TIP3   OH238797   3.902   0.385   5.292
12947TIP3    H138798   3.949   0.422   5.368
12947TIP3    H238799   3.948   0.422   5.216
12948TIP3   OH238800   0.780   1.663   4.317
12948TIP3    H138801   0.686   1.680   4.313
12948TIP3    H238802   0.790   1.574   4.283
12949TIP3   OH238803   0.941   5.172   3.234
12949TIP3    H138804   0.988   5.228   3.296
12949TIP3    H238805   0.936   5.087   3.277
12950TIP3   OH238806   3.222   1.685   1.134
12950TIP3    H138807   3.159   1.660   1.201
12950TIP3    H238808   3.169   1.707   1.058
12951TIP3   OH238809   0.959   4.542   4.000
12951TIP3    H138810   0.869   4.574   4.010
12951TIP3    H238811   0.950   4.457   3.958
12952TIP3   OH238812   0.399   6.946   1.220
12952TIP3    H138813   0.459   6.940   1.295
12952TIP3    H238814   0.337   6.875   1.234
12953TIP3   OH238815   0.616   4.818   2.527
12953TIP3    H138816   0.690   4.770   2.490
12953TIP3    H238817   0.647   4.845   2.614
12954TIP3   OH238818   5.467   1.474   3.745
12954TIP3    H138819   5.388   1.422   3.738
12954TIP3    H238820   5.497   1.485   3.654
12955TIP3   OH238821   1.254   2.392   5.105
12955TIP3    H138822   1.232   2.437   5.024
12955TIP3    H238823   1.171   2.356   5.136
12956TIP3   OH238824   1.463   6.710   4.052
12956TIP3    H138825   1.508   6.764   3.987
12956TIP3    H238826   1.448   6.626   4.008
12957TIP3   OH238827   0.899   4.990   6.417
12957TIP3    H138828   0.917   4.951   6.503
12957TIP3    H238829   0.907   4.917   6.356
12958TIP3   OH238830   2.522   2.700   0.065
12958TIP3    H138831   2.438   2.743   0.079
12958TIP3    H238832   2.554   2.680   0.153
12959TIP3   OH238833   6.910   6.024   2.903
12959TIP3    H138834   6.856   6.063   2.972
12959TIP3    H238835   6.865   5.943   2.880
12960TIP3   OH238836   7.292   1.786   5.740
12960TIP3    H138837   7.338   1.752   5.817
12960TIP3    H238838   7.305   1.719   5.673
12961TIP3   OH238839   4.399   7.670   6.235
12961TIP3    H138840   4.431   7.677   6.145
12961TIP3    H238841   4.325   7.609   6.229
12962TIP3   OH238842   2.720   3.775   0.221
12962TIP3    H138843   2.630   3.768   0.189
12962TIP3    H238844   2.738   3.869   0.220
12963TIP3   OH238845   2.539   0.852   6.396
12963TIP3    H138846   2.525   0.908   6.472
12963TIP3    H238847   2.632   0.829   6.399
12964TIP3   OH238848   1.170   5.907   1.000
12964TIP3    H138849   1.174   5.815   1.026
12964TIP3    H238850   1.208   5.954   1.074
12965TIP3   OH238851   1.441   0.751   1.221
12965TIP3    H138852   1.498   0.800   1.162
12965TIP3    H238853   1.364   0.731   1.169
12966TIP3   OH238854   2.575   5.139   1.716
12966TIP3    H138855   2.605   5.118   1.627
12966TIP3    H238856   2.652   5.123   1.771
12967TIP3   OH238857   2.306   1.319   4.583
12967TIP3    H138858   2.232   1.259   4.581
12967TIP3    H238859   2.375   1.273   4.535
12968TIP3   OH238860   5.535   5.025   5.121
12968TIP3    H138861   5.593   5.100   5.117
12968TIP3    H238862   5.520   5.000   5.030
12969TIP3   OH238863   6.780   1.713   2.308
12969TIP3    H138864   6.767   1.719   2.213
12969TIP3    H238865   6.793   1.619   2.324
12970TIP3   OH238866   1.869   2.663   5.099
12970TIP3    H138867   1.957   2.626   5.108
12970TIP3    H238868   1.840   2.635   5.012
12971TIP3   OH238869   4.483   3.699   2.883
12971TIP3    H138870   4.388   3.700   2.897
12971TIP3    H238871   4.511   3.613   2.917
12972TIP3   OH238872   5.936   5.982   4.682
12972TIP3    H138873   5.980   6.036   4.617
12972TIP3    H238874   5.925   5.897   4.640
12973TIP3   OH238875   4.817   3.424   6.553
12973TIP3    H138876   4.901   3.433   6.599
12973TIP3    H238877   4.811   3.502   6.498
12974TIP3   OH238878   4.488   3.654   5.563
12974TIP3    H138879   4.405   3.619   5.529
12974TIP3    H238880   4.466   3.743   5.591
12975TIP3   OH238881   6.859   2.048   3.584
12975TIP3    H138882   6.954   2.054   3.572
12975TIP3    H238883   6.826   2.021   3.498
12976TIP3   OH238884   1.720   1.245   3.840
12976TIP3    H138885   1.641   1.226   3.788
12976TIP3    H238886   1.774   1.299   3.783
12977TIP3   OH238887   7.813   0.643   0.168
12977TIP3    H138888   7.838   0.722   0.216
12977TIP3    H238889   7.844   0.659   0.078
12978TIP3   OH238890   2.598   5.487   3.969
12978TIP3    H138891   2.670   5.490   4.032
12978TIP3    H238892   2.521   5.516   4.018
12979TIP3   OH238893   1.725   1.305   4.099
12979TIP3    H138894   1.632   1.289   4.116
12979TIP3    H238895   1.743   1.260   4.017
12980TIP3   OH238896   4.390   4.584   5.303
12980TIP3    H138897   4.441   4.533   5.239
12980TIP3    H238898   4.333   4.520   5.344
12981TIP3   OH238899   3.351   1.467   5.468
12981TIP3    H138900   3.431   1.495   5.512
12981TIP3    H238901   3.323   1.543   5.417
12982TIP3   OH238902   6.904   1.499   2.773
12982TIP3    H138903   6.816   1.463   2.782
12982TIP3    H238904   6.936   1.507   2.863
12983TIP3   OH238905   7.831   3.400   1.676
12983TIP3    H138906   7.764   3.387   1.609
12983TIP3    H238907   7.787   3.380   1.759
12984TIP3   OH238908   4.322   4.835   5.236
12984TIP3    H138909   4.358   4.752   5.269
12984TIP3    H238910   4.285   4.877   5.314
12985TIP3   OH238911   8.111   5.050   2.636
12985TIP3    H138912   8.086   5.143   2.637
12985TIP3    H238913   8.076   5.017   2.554
12986TIP3   OH238914   6.575   1.896   6.014
12986TIP3    H138915   6.631   1.970   6.039
12986TIP3    H238916   6.636   1.823   6.000
12987TIP3   OH238917   4.464   1.280   0.225
12987TIP3    H138918   4.380   1.306   0.263
12987TIP3    H238919   4.477   1.190   0.254
12988TIP3   OH238920   1.630   1.982   3.516
12988TIP3    H138921   1.558   1.919   3.512
12988TIP3    H238922   1.697   1.937   3.568
12989TIP3   OH238923   0.289   6.973   5.015
12989TIP3    H138924   0.326   6.899   5.063
12989TIP3    H238925   0.290   6.945   4.923
12990TIP3   OH238926   6.399   1.886   2.581
12990TIP3    H138927   6.373   1.910   2.492
12990TIP3    H238928   6.318   1.893   2.632
12991TIP3   OH238929   3.229   3.050   4.634
12991TIP3    H138930   3.199   3.136   4.663
12991TIP3    H238931   3.280   3.016   4.708
12992TIP3   OH238932   4.872   1.885   2.533
12992TIP3    H138933   4.808   1.902   2.602
12992TIP3    H238934   4.864   1.960   2.474
12993TIP3   OH238935   4.723   3.767   0.091
12993TIP3    H138936   4.720   3.853   0.132
12993TIP3    H238937   4.644   3.765   0.036
12994TIP3   OH238938   5.340   0.400   3.655
12994TIP3    H138939   5.321   0.492   3.672
12994TIP3    H238940   5.365   0.364   3.741
12995TIP3   OH238941   2.845   2.749   6.321
12995TIP3    H138942   2.825   2.842   6.313
12995TIP3    H238943   2.763   2.705   6.297
12996TIP3   OH238944   0.692   0.993   5.609
12996TIP3    H138945   0.659   0.998   5.699
12996TIP3    H238946   0.765   0.931   5.613
12997TIP3   OH238947   6.310   2.308   3.382
12997TIP3    H138948   6.293   2.355   3.301
12997TIP3    H238949   6.294   2.216   3.361
12998TIP3   OH238950   5.775   2.328   0.882
12998TIP3    H138951   5.777   2.402   0.821
12998TIP3    H238952   5.855   2.339   0.934
12999TIP3   OH238953   4.317   7.516   1.653
12999TIP3    H138954   4.294   7.597   1.699
12999TIP3    H238955   4.356   7.545   1.571
13000TIP3   OH238956   1.995   6.522   5.892
13000TIP3    H138957   2.041   6.567   5.821
13000TIP3    H238958   2.061   6.466   5.932
13001TIP3   OH238959   1.014   3.897   2.246
13001TIP3    H138960   1.024   3.852   2.162
13001TIP3    H238961   0.964   3.977   2.225
13002TIP3   OH238962   0.183   0.202   4.037
13002TIP3    H138963   0.242   0.265   3.995
13002TIP3    H238964   0.239   0.154   4.097
13003TIP3   OH238965   5.153   0.017   4.320
13003TIP3    H138966   5.221   0.078   4.349
13003TIP3    H238967   5.076   0.043   4.370
13004TIP3   OH238968   6.916   1.052   0.740
13004TIP3    H138969   6.985   0.987   0.754
13004TIP3    H238970   6.931   1.118   0.808
13005TIP3   OH238971   4.415   0.747   1.812
13005TIP3    H138972   4.359   0.819   1.781
13005TIP3    H238973   4.475   0.731   1.739
13006TIP3   OH238974   5.882   1.369   0.840
13006TIP3    H138975   5.946   1.352   0.909
13006TIP3    H238976   5.820   1.296   0.845
13007TIP3   OH238977   5.210   1.580   0.399
13007TIP3    H138978   5.305   1.583   0.386
13007TIP3    H238979   5.187   1.668   0.429
13008TIP3   OH238980   1.759   5.394   1.639
13008TIP3    H138981   1.711   5.362   1.563
13008TIP3    H238982   1.753   5.323   1.703
13009TIP3   OH238983   0.870   2.578   5.178
13009TIP3    H138984   0.826   2.507   5.131
13009TIP3    H238985   0.932   2.533   5.235
13010TIP3   OH238986   0.724   7.235   6.188
13010TIP3    H138987   0.751   7.290   6.262
13010TIP3    H238988   0.639   7.269   6.162
13011TIP3   OH238989   8.302   0.759   4.555
13011TIP3    H138990   8.325   0.685   4.498
13011TIP3    H238991   8.284   0.718   4.640
13012TIP3   OH238992   7.310   7.852   1.965
13012TIP3    H138993   7.364   7.800   2.025
13012TIP3    H238994   7.310   7.803   1.883
13013TIP3   OH238995   4.963   5.163   1.838
13013TIP3    H138996   4.914   5.239   1.870
13013TIP3    H238997   5.035   5.200   1.787
13014TIP3   OH238998   0.132   5.843   2.334
13014TIP3    H138999   0.061   5.794   2.293
13014TIP3    H239000   0.089   5.898   2.400
13015TIP3   OH239001   0.814   0.986   3.898
13015TIP3    H139002   0.720   1.003   3.902
13015TIP3    H239003   0.840   1.018   3.811
13016TIP3   OH239004   7.744   3.932   0.949
13016TIP3    H139005   7.706   3.953   1.035
13016TIP3    H239006   7.836   3.958   0.957
13017TIP3   OH239007   4.086   2.532   1.981
13017TIP3    H139008   4.005   2.561   1.938
13017TIP3    H239009   4.155   2.584   1.940
13018TIP3   OH239010   2.527   1.693   5.816
13018TIP3    H139011   2.524   1.709   5.911
13018TIP3    H239012   2.519   1.779   5.777
13019TIP3   OH239013   5.484   5.083   0.537
13019TIP3    H139014   5.518   5.119   0.619
13019TIP3    H239015   5.547   5.110   0.470
13020TIP3   OH239016   7.539   6.439   5.049
13020TIP3    H139017   7.525   6.475   5.136
13020TIP3    H239018   7.462   6.384   5.033
13021TIP3   OH239019   5.892   6.947   1.284
13021TIP3    H139020   5.865   6.930   1.194
13021TIP3    H239021   5.984   6.970   1.278
13022TIP3   OH239022   4.627   2.147   6.041
13022TIP3    H139023   4.664   2.183   5.960
13022TIP3    H239024   4.665   2.201   6.111
13023TIP3   OH239025   2.868   4.798   5.255
13023TIP3    H139026   2.853   4.731   5.189
13023TIP3    H239027   2.906   4.871   5.208
13024TIP3   OH239028   7.600   3.373   1.506
13024TIP3    H139029   7.577   3.338   1.419
13024TIP3    H239030   7.520   3.416   1.536
13025TIP3   OH239031   8.151   4.033   3.872
13025TIP3    H139032   8.121   3.979   3.799
13025TIP3    H239033   8.230   4.075   3.840
13026TIP3   OH239034   4.199   5.340   2.496
13026TIP3    H139035   4.153   5.330   2.413
13026TIP3    H239036   4.286   5.304   2.480
13027TIP3   OH239037   6.264   5.026   5.844
13027TIP3    H139038   6.288   5.111   5.879
13027TIP3    H239039   6.171   5.033   5.824
13028TIP3   OH239040   6.906   0.248   6.615
13028TIP3    H139041   6.894   0.335   6.655
13028TIP3    H239042   6.923   0.190   6.689
13029TIP3   OH239043   3.801   2.567   4.156
13029TIP3    H139044   3.771   2.616   4.080
13029TIP3    H239045   3.788   2.475   4.132
13030TIP3   OH239046   2.682   4.610   4.741
13030TIP3    H139047   2.709   4.701   4.755
13030TIP3    H239048   2.757   4.570   4.697
13031TIP3   OH239049   6.180   1.912   0.870
13031TIP3    H139050   6.096   1.867   0.860
13031TIP3    H239051   6.159   2.005   0.861
13032TIP3   OH239052   0.155   6.387   5.966
13032TIP3    H139053   0.191   6.437   6.039
13032TIP3    H239054   0.166   6.295   5.992
13033TIP3   OH239055   2.867   4.211   2.477
13033TIP3    H139056   2.880   4.233   2.385
13033TIP3    H239057   2.889   4.290   2.524
13034TIP3   OH239058   0.627   1.524   1.387
13034TIP3    H139059   0.695   1.545   1.451
13034TIP3    H239060   0.551   1.500   1.439
13035TIP3   OH239061   5.088   6.436   2.272
13035TIP3    H139062   5.163   6.377   2.275
13035TIP3    H239063   5.077   6.466   2.362
13036TIP3   OH239064   8.263   5.720   3.004
13036TIP3    H139065   8.325   5.669   3.057
13036TIP3    H239066   8.310   5.801   2.983
13037TIP3   OH239067   1.643   7.190   0.406
13037TIP3    H139068   1.611   7.131   0.474
13037TIP3    H239069   1.726   7.152   0.378
13038TIP3   OH239070   6.386   2.539   5.738
13038TIP3    H139071   6.317   2.479   5.708
13038TIP3    H239072   6.466   2.507   5.696
13039TIP3   OH239073   7.359   0.623   2.384
13039TIP3    H139074   7.341   0.593   2.473
13039TIP3    H239075   7.315   0.560   2.327
13040TIP3   OH239076   2.411   7.305   2.058
13040TIP3    H139077   2.478   7.316   1.991
13040TIP3    H239078   2.379   7.216   2.045
13041TIP3   OH239079   3.728   6.862   1.915
13041TIP3    H139080   3.686   6.939   1.952
13041TIP3    H239081   3.755   6.889   1.827
13042TIP3   OH239082   7.259   7.000   3.892
13042TIP3    H139083   7.344   6.982   3.851
13042TIP3    H239084   7.194   6.975   3.826
13043TIP3   OH239085   1.046   6.589   2.540
13043TIP3    H139086   1.099   6.656   2.497
13043TIP3    H239087   0.964   6.634   2.561
13044TIP3   OH239088   8.103   0.777   1.679
13044TIP3    H139089   8.021   0.822   1.694
13044TIP3    H239090   8.080   0.701   1.625
13045TIP3   OH239091   4.627   4.870   1.926
13045TIP3    H139092   4.541   4.910   1.921
13045TIP3    H239093   4.677   4.926   1.986
13046TIP3   OH239094   3.913   3.622   2.817
13046TIP3    H139095   3.847   3.689   2.837
13046TIP3    H239096   3.910   3.563   2.893
13047TIP3   OH239097   4.629   7.615   6.387
13047TIP3    H139098   4.573   7.659   6.324
13047TIP3    H239099   4.642   7.527   6.350
13048TIP3   OH239100   3.590   7.100   0.244
13048TIP3    H139101   3.568   7.182   0.289
13048TIP3    H239102   3.624   7.043   0.313
13049TIP3   OH239103   7.326   6.543   5.262
13049TIP3    H139104   7.233   6.538   5.286
13049TIP3    H239105   7.361   6.613   5.316
13050TIP3   OH239106   4.199   6.098   1.655
13050TIP3    H139107   4.130   6.078   1.592
13050TIP3    H239108   4.155   6.148   1.724
13051TIP3   OH239109   0.526   3.896   3.595
13051TIP3    H139110   0.446   3.930   3.555
13051TIP3    H239111   0.524   3.802   3.577
13052TIP3   OH239112   6.543   4.934   4.695
13052TIP3    H139113   6.489   4.965   4.767
13052TIP3    H239114   6.632   4.962   4.717
13053TIP3   OH239115   0.802   0.153   0.005
13053TIP3    H139116   0.839   0.091  -0.058
13053TIP3    H239117   0.879   0.189   0.051
13054TIP3   OH239118   0.266   2.915   6.016
13054TIP3    H139119   0.182   2.958   6.036
13054TIP3    H239120   0.242   2.840   5.961
13055TIP3   OH239121   1.701   7.343   2.612
13055TIP3    H139122   1.766   7.403   2.577
13055TIP3    H239123   1.688   7.278   2.542
13056TIP3   OH239124   3.721   1.020   0.958
13056TIP3    H139125   3.796   1.010   0.900
13056TIP3    H239126   3.696   0.930   0.981
13057TIP3   OH239127   5.577   1.111   0.730
13057TIP3    H139128   5.524   1.031   0.732
13057TIP3    H239129   5.525   1.173   0.680
13058TIP3   OH239130   0.261   2.308   4.175
13058TIP3    H139131   0.349   2.293   4.140
13058TIP3    H239132   0.205   2.315   4.097
13059TIP3   OH239133   4.939   4.176   4.813
13059TIP3    H139134   5.003   4.131   4.868
13059TIP3    H239135   4.957   4.144   4.725
13060TIP3   OH239136   2.328   5.078   2.662
13060TIP3    H139137   2.322   5.052   2.570
13060TIP3    H239138   2.421   5.092   2.677
13061TIP3   OH239139   5.057   5.820   6.439
13061TIP3    H139140   4.979   5.868   6.468
13061TIP3    H239141   5.087   5.868   6.362
13062TIP3   OH239142   3.797   0.402   3.098
13062TIP3    H139143   3.856   0.411   3.023
13062TIP3    H239144   3.850   0.429   3.173
13063TIP3   OH239145   0.516   0.674   2.532
13063TIP3    H139146   0.442   0.735   2.535
13063TIP3    H239147   0.590   0.725   2.563
13064TIP3   OH239148   8.155   1.117   2.932
13064TIP3    H139149   8.102   1.134   2.854
13064TIP3    H239150   8.094   1.076   2.994
13065TIP3   OH239151   5.731   7.094   0.556
13065TIP3    H139152   5.646   7.094   0.599
13065TIP3    H239153   5.714   7.132   0.470
13066TIP3   OH239154   1.566   4.932   5.119
13066TIP3    H139155   1.508   4.881   5.062
13066TIP3    H239156   1.636   4.963   5.061
13067TIP3   OH239157   3.069   4.760   4.885
13067TIP3    H139158   2.974   4.776   4.886
13067TIP3    H239159   3.095   4.776   4.795
13068TIP3   OH239160   3.157   4.189   4.584
13068TIP3    H139161   3.245   4.178   4.549
13068TIP3    H239162   3.117   4.102   4.577
13069TIP3   OH239163   7.527   3.639   0.659
13069TIP3    H139164   7.457   3.616   0.719
13069TIP3    H239165   7.510   3.730   0.636
13070TIP3   OH239166   5.479   4.363   5.308
13070TIP3    H139167   5.398   4.326   5.344
13070TIP3    H239168   5.451   4.425   5.241
13071TIP3   OH239169   4.414   1.171   5.743
13071TIP3    H139170   4.482   1.206   5.684
13071TIP3    H239171   4.345   1.237   5.742
13072TIP3   OH239172   0.079   0.519   5.285
13072TIP3    H139173  -0.009   0.550   5.302
13072TIP3    H239174   0.136   0.583   5.327
13073TIP3   OH239175   6.447   6.915   6.624
13073TIP3    H139176   6.505   6.868   6.564
13073TIP3    H239177   6.394   6.971   6.568
13074TIP3   OH239178   2.455   7.357   0.731
13074TIP3    H139179   2.549   7.354   0.711
13074TIP3    H239180   2.416   7.289   0.675
13075TIP3   OH239181   1.299   7.543   2.625
13075TIP3    H139182   1.281   7.628   2.584
13075TIP3    H239183   1.388   7.551   2.658
13076TIP3   OH239184   7.049   6.230   3.353
13076TIP3    H139185   7.030   6.146   3.311
13076TIP3    H239186   7.027   6.296   3.287
13077TIP3   OH239187   0.210   7.224   2.332
13077TIP3    H139188   0.216   7.319   2.343
13077TIP3    H239189   0.288   7.190   2.375
13078TIP3   OH239190   5.415   2.832   3.502
13078TIP3    H139191   5.399   2.837   3.596
13078TIP3    H239192   5.431   2.739   3.486
13079TIP3   OH239193   1.023   5.090   2.131
13079TIP3    H139194   1.092   5.154   2.146
13079TIP3    H239195   0.943   5.142   2.123
13080TIP3   OH239196   1.352   6.962   4.141
13080TIP3    H139197   1.340   7.050   4.106
13080TIP3    H239198   1.349   6.905   4.064
13081TIP3   OH239199   6.214   0.767   2.350
13081TIP3    H139200   6.139   0.733   2.302
13081TIP3    H239201   6.176   0.809   2.427
13082TIP3   OH239202   1.250   1.055   3.493
13082TIP3    H139203   1.221   1.005   3.569
13082TIP3    H239204   1.170   1.071   3.443
13083TIP3   OH239205   5.792   6.803   0.560
13083TIP3    H139206   5.742   6.857   0.498
13083TIP3    H239207   5.799   6.718   0.516
13084TIP3   OH239208   5.828   4.889   0.110
13084TIP3    H139209   5.887   4.848   0.174
13084TIP3    H239210   5.740   4.866   0.140
13085TIP3   OH239211   0.143   7.607   3.618
13085TIP3    H139212   0.167   7.662   3.694
13085TIP3    H239213   0.141   7.668   3.544
13086TIP3   OH239214   7.038   7.066   0.940
13086TIP3    H139215   6.998   7.009   0.875
13086TIP3    H239216   7.097   7.009   0.989
13087TIP3   OH239217   7.775   5.222   2.651
13087TIP3    H139218   7.777   5.309   2.610
13087TIP3    H239219   7.694   5.182   2.619
13088TIP3   OH239220   3.635   2.699   1.760
13088TIP3    H139221   3.541   2.682   1.758
13088TIP3    H239222   3.642   2.793   1.779
13089TIP3   OH239223   5.837   5.565   5.597
13089TIP3    H139224   5.756   5.571   5.547
13089TIP3    H239225   5.809   5.572   5.688
13090TIP3   OH239226   4.288   3.579   0.341
13090TIP3    H139227   4.331   3.655   0.380
13090TIP3    H239228   4.330   3.503   0.383
13091TIP3   OH239229   2.721   3.311   6.212
13091TIP3    H139230   2.747   3.403   6.215
13091TIP3    H239231   2.626   3.312   6.215
13092TIP3   OH239232   5.947   2.716   0.630
13092TIP3    H139233   5.852   2.712   0.620
13092TIP3    H239234   5.965   2.674   0.714
13093TIP3   OH239235   6.724   2.680   5.359
13093TIP3    H139236   6.782   2.737   5.309
13093TIP3    H239237   6.638   2.720   5.351
13094TIP3   OH239238   2.091   7.327   4.980
13094TIP3    H139239   2.105   7.331   5.074
13094TIP3    H239240   2.139   7.402   4.945
13095TIP3   OH239241   4.918   1.563   4.673
13095TIP3    H139242   4.834   1.519   4.666
13095TIP3    H239243   4.971   1.507   4.729
13096TIP3   OH239244   3.643   0.242   0.310
13096TIP3    H139245   3.733   0.214   0.293
13096TIP3    H239246   3.627   0.309   0.243
13097TIP3   OH239247   4.717   6.177   5.243
13097TIP3    H139248   4.663   6.215   5.313
13097TIP3    H239249   4.752   6.096   5.282
13098TIP3   OH239250   3.816   5.969   3.591
13098TIP3    H139251   3.873   6.001   3.521
13098TIP3    H239252   3.765   5.899   3.550
13099TIP3   OH239253   6.283   4.828   6.042
13099TIP3    H139254   6.276   4.876   5.959
13099TIP3    H239255   6.211   4.861   6.095
13100TIP3   OH239256   7.119   1.818   0.387
13100TIP3    H139257   7.044   1.810   0.327
13100TIP3    H239258   7.196   1.803   0.332
13101TIP3   OH239259   4.541   0.128   6.474
13101TIP3    H139260   4.502   0.049   6.510
13101TIP3    H239261   4.481   0.199   6.500
13102TIP3   OH239262   2.432   1.724   6.346
13102TIP3    H139263   2.481   1.764   6.418
13102TIP3    H239264   2.498   1.709   6.279
13103TIP3   OH239265   4.833   0.374   5.136
13103TIP3    H139266   4.832   0.280   5.116
13103TIP3    H239267   4.923   0.401   5.120
13104TIP3   OH239268   2.712   7.203   0.736
13104TIP3    H139269   2.700   7.123   0.787
13104TIP3    H239270   2.784   7.183   0.676
13105TIP3   OH239271   7.064   7.281   4.901
13105TIP3    H139272   7.074   7.374   4.880
13105TIP3    H239273   7.080   7.275   4.995
13106TIP3   OH239274   4.842   0.462   5.393
13106TIP3    H139275   4.791   0.409   5.454
13106TIP3    H239276   4.820   0.426   5.307
13107TIP3   OH239277   1.829   0.557   3.692
13107TIP3    H139278   1.751   0.501   3.687
13107TIP3    H239279   1.830   0.591   3.781
13108TIP3   OH239280   2.938   1.619   0.372
13108TIP3    H139281   2.968   1.568   0.297
13108TIP3    H239282   3.015   1.668   0.401
13109TIP3   OH239283   0.789   4.096   1.331
13109TIP3    H139284   0.770   4.010   1.367
13109TIP3    H239285   0.743   4.097   1.247
13110TIP3   OH239286   2.156   2.959   2.470
13110TIP3    H139287   2.165   2.940   2.564
13110TIP3    H239288   2.195   2.883   2.427
13111TIP3   OH239289   6.095   7.514   6.223
13111TIP3    H139290   6.118   7.602   6.253
13111TIP3    H239291   6.180   7.471   6.209
13112TIP3   OH239292   6.344   2.807   6.424
13112TIP3    H139293   6.334   2.893   6.464
13112TIP3    H239294   6.385   2.753   6.492
13113TIP3   OH239295   7.530   3.745   6.293
13113TIP3    H139296   7.497   3.744   6.383
13113TIP3    H239297   7.621   3.775   6.301
13114TIP3   OH239298   2.225   7.556   5.862
13114TIP3    H139299   2.140   7.592   5.890
13114TIP3    H239300   2.207   7.465   5.840
13115TIP3   OH239301   0.717   6.156   0.805
13115TIP3    H139302   0.788   6.211   0.772
13115TIP3    H239303   0.761   6.087   0.855
13116TIP3   OH239304   5.742   4.026   0.212
13116TIP3    H139305   5.716   4.038   0.121
13116TIP3    H239306   5.744   4.115   0.249
13117TIP3   OH239307   7.231   2.955   2.488
13117TIP3    H139308   7.221   2.997   2.573
13117TIP3    H239309   7.141   2.937   2.460
13118TIP3   OH239310   7.334   1.660   4.730
13118TIP3    H139311   7.400   1.591   4.737
13118TIP3    H239312   7.250   1.616   4.745
13119TIP3   OH239313   1.115   2.066   0.968
13119TIP3    H139314   1.148   1.976   0.978
13119TIP3    H239315   1.112   2.100   1.058
13120TIP3   OH239316   3.274   7.222   3.001
13120TIP3    H139317   3.248   7.225   2.909
13120TIP3    H239318   3.330   7.299   3.013
13121TIP3   OH239319   1.433   7.318   2.847
13121TIP3    H139320   1.374   7.389   2.873
13121TIP3    H239321   1.519   7.360   2.843
13122TIP3   OH239322   7.988   1.126   2.706
13122TIP3    H139323   8.046   1.156   2.636
13122TIP3    H239324   7.921   1.074   2.662
13123TIP3   OH239325   2.133   3.010   5.902
13123TIP3    H139326   2.153   2.923   5.935
13123TIP3    H239327   2.202   3.066   5.938
13124TIP3   OH239328   3.066   0.396   6.029
13124TIP3    H139329   3.123   0.328   6.065
13124TIP3    H239330   3.010   0.350   5.966
13125TIP3   OH239331   7.821   5.366   0.727
13125TIP3    H139332   7.807   5.439   0.788
13125TIP3    H239333   7.761   5.384   0.655
13126TIP3   OH239334   8.196   4.375   2.375
13126TIP3    H139335   8.278   4.399   2.332
13126TIP3    H239336   8.131   4.436   2.340
13127TIP3   OH239337   7.237   3.077   3.618
13127TIP3    H139338   7.244   2.981   3.617
13127TIP3    H239339   7.194   3.096   3.702
13128TIP3   OH239340   0.998   4.402   4.665
13128TIP3    H139341   0.906   4.387   4.644
13128TIP3    H239342   1.014   4.493   4.639
13129TIP3   OH239343   6.046   6.590   1.959
13129TIP3    H139344   6.128   6.626   1.993
13129TIP3    H239345   6.020   6.651   1.890
13130TIP3   OH239346   5.130   2.165   6.027
13130TIP3    H139347   5.128   2.192   6.119
13130TIP3    H239348   5.042   2.134   6.009
13131TIP3   OH239349   5.306   3.582   6.020
13131TIP3    H139350   5.345   3.564   5.934
13131TIP3    H239351   5.215   3.605   6.001
13132TIP3   OH239352   2.603   7.690   4.750
13132TIP3    H139353   2.546   7.717   4.677
13132TIP3    H239354   2.560   7.726   4.828
13133TIP3   OH239355   7.281   1.574   0.333
13133TIP3    H139356   7.253   1.520   0.407
13133TIP3    H239357   7.372   1.596   0.351
13134TIP3   OH239358   3.082   1.576   5.169
13134TIP3    H139359   3.041   1.649   5.216
13134TIP3    H239360   3.014   1.546   5.109
13135TIP3   OH239361   3.433   2.281   1.608
13135TIP3    H139362   3.422   2.293   1.703
13135TIP3    H239363   3.528   2.285   1.594
13136TIP3   OH239364   6.477   3.555   6.405
13136TIP3    H139365   6.514   3.533   6.491
13136TIP3    H239366   6.553   3.581   6.353
13137TIP3   OH239367   1.137   4.204   0.370
13137TIP3    H139368   1.223   4.214   0.411
13137TIP3    H239369   1.150   4.230   0.279
13138TIP3   OH239370   0.845   6.117   6.630
13138TIP3    H139371   0.812   6.069   6.554
13138TIP3    H239372   0.772   6.172   6.657
13139TIP3   OH239373   1.549   0.165   3.472
13139TIP3    H139374   1.473   0.224   3.481
13139TIP3    H239375   1.574   0.144   3.562
13140TIP3   OH239376   7.646   2.999   2.469
13140TIP3    H139377   7.606   3.067   2.523
13140TIP3    H239378   7.732   3.035   2.446
13141TIP3   OH239379   6.599   0.486   6.238
13141TIP3    H139380   6.655   0.555   6.274
13141TIP3    H239381   6.641   0.462   6.155
13142TIP3   OH239382   3.159   7.546   0.547
13142TIP3    H139383   3.229   7.575   0.489
13142TIP3    H239384   3.083   7.599   0.522
13143TIP3   OH239385   1.645   1.174   0.557
13143TIP3    H139386   1.675   1.226   0.632
13143TIP3    H239387   1.573   1.122   0.591
13144TIP3   OH239388   6.965   1.248   1.738
13144TIP3    H139389   6.925   1.219   1.820
13144TIP3    H239390   6.940   1.340   1.730
13145TIP3   OH239391   6.062   1.399   2.818
13145TIP3    H139392   6.142   1.448   2.840
13145TIP3    H239393   6.093   1.319   2.775
13146TIP3   OH239394   3.276   2.826   0.253
13146TIP3    H139395   3.343   2.757   0.253
13146TIP3    H239396   3.208   2.793   0.311
13147TIP3   OH239397   0.759   3.147   1.885
13147TIP3    H139398   0.851   3.161   1.908
13147TIP3    H239399   0.710   3.207   1.942
13148TIP3   OH239400   0.424   7.521   3.026
13148TIP3    H139401   0.395   7.586   3.090
13148TIP3    H239402   0.490   7.567   2.974
13149TIP3   OH239403   4.252   6.355   5.120
13149TIP3    H139404   4.296   6.272   5.139
13149TIP3    H239405   4.188   6.364   5.190
13150TIP3   OH239406   5.148   6.685   3.599
13150TIP3    H139407   5.203   6.763   3.595
13150TIP3    H239408   5.117   6.672   3.510
13151TIP3   OH239409   2.087   3.691   6.038
13151TIP3    H139410   2.153   3.747   6.078
13151TIP3    H239411   2.012   3.694   6.098
13152TIP3   OH239412   6.451   1.961   4.812
13152TIP3    H139413   6.466   1.938   4.904
13152TIP3    H239414   6.469   1.880   4.764
13153TIP3   OH239415   2.891   3.045   4.626
13153TIP3    H139416   2.957   2.986   4.660
13153TIP3    H239417   2.922   3.133   4.649
13154TIP3   OH239418   0.146   4.398   1.606
13154TIP3    H139419   0.215   4.416   1.669
13154TIP3    H239420   0.131   4.303   1.613
13155TIP3   OH239421   0.645   3.017   5.273
13155TIP3    H139422   0.714   3.060   5.323
13155TIP3    H239423   0.661   2.923   5.287
13156TIP3   OH239424   7.366   5.280   3.096
13156TIP3    H139425   7.430   5.243   3.036
13156TIP3    H239426   7.419   5.316   3.168
13157TIP3   OH239427   0.056   5.551   0.007
13157TIP3    H139428   0.038   5.618   0.073
13157TIP3    H239429  -0.012   5.484   0.022
13158TIP3   OH239430   5.777   4.607   3.128
13158TIP3    H139431   5.785   4.695   3.163
13158TIP3    H239432   5.777   4.550   3.205
13159TIP3   OH239433   1.033   4.795   3.557
13159TIP3    H139434   1.030   4.703   3.531
13159TIP3    H239435   1.072   4.794   3.644
13160TIP3   OH239436   7.490   3.616   4.057
13160TIP3    H139437   7.515   3.659   3.975
13160TIP3    H239438   7.430   3.547   4.031
13161TIP3   OH239439   7.225   4.967   2.065
13161TIP3    H139440   7.176   4.943   1.986
13161TIP3    H239441   7.228   4.887   2.117
13162TIP3   OH239442   0.575   5.200   4.398
13162TIP3    H139443   0.623   5.188   4.316
13162TIP3    H239444   0.535   5.287   4.390
13163TIP3   OH239445   7.910   7.086   0.732
13163TIP3    H139446   7.871   7.113   0.815
13163TIP3    H239447   7.966   7.160   0.707
13164TIP3   OH239448   2.421   6.151   2.992
13164TIP3    H139449   2.447   6.059   2.999
13164TIP3    H239450   2.341   6.150   2.940
13165TIP3   OH239451   3.161   4.496   0.783
13165TIP3    H139452   3.241   4.535   0.747
13165TIP3    H239453   3.181   4.404   0.793
13166TIP3   OH239454   2.974   6.106   3.732
13166TIP3    H139455   3.064   6.134   3.714
13166TIP3    H239456   2.921   6.181   3.706
13167TIP3   OH239457   0.941   7.038   3.527
13167TIP3    H139458   0.946   7.012   3.619
13167TIP3    H239459   0.848   7.055   3.512
13168TIP3   OH239460   4.333   1.615   2.870
13168TIP3    H139461   4.326   1.695   2.923
13168TIP3    H239462   4.294   1.640   2.785
13169TIP3   OH239463   6.074   4.598   4.694
13169TIP3    H139464   6.127   4.519   4.703
13169TIP3    H239465   5.992   4.568   4.654
13170TIP3   OH239466   6.819  -0.009   3.016
13170TIP3    H139467   6.866  -0.003   2.933
13170TIP3    H239468   6.766   0.070   3.020
13171TIP3   OH239469   0.698   6.358   0.484
13171TIP3    H139470   0.727   6.449   0.488
13171TIP3    H239471   0.605   6.363   0.461
13172TIP3   OH239472   0.473   0.575   6.141
13172TIP3    H139473   0.448   0.535   6.225
13172TIP3    H239474   0.450   0.667   6.151
13173TIP3   OH239475   2.658   7.339   1.897
13173TIP3    H139476   2.710   7.266   1.862
13173TIP3    H239477   2.722   7.394   1.942
13174TIP3   OH239478   1.468   1.308   6.454
13174TIP3    H139479   1.522   1.238   6.491
13174TIP3    H239480   1.508   1.326   6.369
13175TIP3   OH239481   2.111   6.592   3.286
13175TIP3    H139482   2.048   6.661   3.306
13175TIP3    H239483   2.196   6.637   3.286
13176TIP3   OH239484   5.926   0.144   0.611
13176TIP3    H139485   5.983   0.208   0.566
13176TIP3    H239486   5.841   0.153   0.568
13177TIP3   OH239487   0.998   0.276   0.192
13177TIP3    H139488   0.986   0.295   0.285
13177TIP3    H239489   1.002   0.181   0.187
13178TIP3   OH239490   1.751   3.099   2.762
13178TIP3    H139491   1.678   3.125   2.705
13178TIP3    H239492   1.829   3.118   2.710
13179TIP3   OH239493   2.058   5.568   0.187
13179TIP3    H139494   2.054   5.661   0.166
13179TIP3    H239495   2.147   5.555   0.221
13180TIP3   OH239496   3.628   5.718   4.604
13180TIP3    H139497   3.696   5.786   4.597
13180TIP3    H239498   3.663   5.656   4.668
13181TIP3   OH239499   0.856   4.814   1.257
13181TIP3    H139500   0.811   4.790   1.338
13181TIP3    H239501   0.788   4.851   1.202
13182TIP3   OH239502   2.900   0.312   5.773
13182TIP3    H139503   2.842   0.299   5.698
13182TIP3    H239504   2.881   0.239   5.831
13183TIP3   OH239505   7.694   5.113   4.428
13183TIP3    H139506   7.611   5.078   4.394
13183TIP3    H239507   7.701   5.077   4.516
13184TIP3   OH239508   1.242   0.597   1.417
13184TIP3    H139509   1.306   0.658   1.379
13184TIP3    H239510   1.237   0.621   1.509
13185TIP3   OH239511   5.344   7.605   1.633
13185TIP3    H139512   5.386   7.594   1.718
13185TIP3    H239513   5.250   7.602   1.652
13186TIP3   OH239514   6.280   4.954   4.907
13186TIP3    H139515   6.338   4.885   4.940
13186TIP3    H239516   6.240   4.916   4.829
13187TIP3   OH239517   3.203   1.151   5.047
13187TIP3    H139518   3.205   1.226   5.107
13187TIP3    H239519   3.287   1.107   5.061
13188TIP3   OH239520   3.294   5.133   1.103
13188TIP3    H139521   3.379   5.132   1.059
13188TIP3    H239522   3.260   5.221   1.088
13189TIP3   OH239523   6.029   4.980   1.584
13189TIP3    H139524   5.941   4.958   1.553
13189TIP3    H239525   6.014   5.035   1.661
13190TIP3   OH239526   6.089   3.893   6.665
13190TIP3    H139527   6.035   3.932   6.596
13190TIP3    H239528   6.057   3.932   6.746
13191TIP3   OH239529   8.005   3.567   1.398
13191TIP3    H139530   7.973   3.493   1.347
13191TIP3    H239531   7.926   3.614   1.424
13192TIP3   OH239532   6.420   7.169   1.926
13192TIP3    H139533   6.472   7.225   1.868
13192TIP3    H239534   6.425   7.082   1.886
13193TIP3   OH239535   2.553   3.188   1.874
13193TIP3    H139536   2.586   3.176   1.963
13193TIP3    H239537   2.608   3.257   1.837
13194TIP3   OH239538   7.787   5.505   1.616
13194TIP3    H139539   7.695   5.480   1.627
13194TIP3    H239540   7.834   5.445   1.674
13195TIP3   OH239541   3.246   0.628   6.649
13195TIP3    H139542   3.231   0.721   6.635
13195TIP3    H239543   3.159   0.589   6.648
13196TIP3   OH239544   0.701   3.967   0.187
13196TIP3    H139545   0.656   3.892   0.148
13196TIP3    H239546   0.678   4.041   0.132
13197TIP3   OH239547   0.771   3.275   5.409
13197TIP3    H139548   0.696   3.282   5.469
13197TIP3    H239549   0.847   3.266   5.467
13198TIP3   OH239550   5.257   2.595   6.746
13198TIP3    H139551   5.325   2.617   6.810
13198TIP3    H239552   5.192   2.665   6.754
13199TIP3   OH239553   7.153   2.557   4.582
13199TIP3    H139554   7.170   2.603   4.664
13199TIP3    H239555   7.239   2.552   4.539
13200TIP3   OH239556   4.571   6.697   1.893
13200TIP3    H139557   4.628   6.623   1.874
13200TIP3    H239558   4.607   6.735   1.973
13201TIP3   OH239559   4.203   3.528   4.513
13201TIP3    H139560   4.283   3.576   4.531
13201TIP3    H239561   4.166   3.570   4.435
13202TIP3   OH239562   4.531   3.582   5.147
13202TIP3    H139563   4.497   3.660   5.191
13202TIP3    H239564   4.624   3.581   5.168
13203TIP3   OH239565   0.437   6.274   4.737
13203TIP3    H139566   0.520   6.316   4.756
13203TIP3    H239567   0.374   6.346   4.729
13204TIP3   OH239568   0.545   7.384   1.957
13204TIP3    H139569   0.544   7.322   2.029
13204TIP3    H239570   0.475   7.447   1.979
13205TIP3   OH239571   4.270   2.215   2.664
13205TIP3    H139572   4.346   2.246   2.713
13205TIP3    H239573   4.259   2.280   2.594
13206TIP3   OH239574   6.633   2.133   6.680
13206TIP3    H139575   6.542   2.122   6.708
13206TIP3    H239576   6.642   2.075   6.605
13207TIP3   OH239577   0.406   0.347   0.020
13207TIP3    H139578   0.496   0.320   0.007
13207TIP3    H239579   0.406   0.441   0.001
13208TIP3   OH239580   1.930   5.582   0.487
13208TIP3    H139581   1.996   5.570   0.554
13208TIP3    H239582   1.955   5.661   0.441
13209TIP3   OH239583   1.562   5.743   5.729
13209TIP3    H139584   1.629   5.683   5.763
13209TIP3    H239585   1.586   5.828   5.766
13210TIP3   OH239586   4.995   1.584   1.675
13210TIP3    H139587   4.954   1.520   1.617
13210TIP3    H239588   5.037   1.647   1.615
13211TIP3   OH239589   4.083   7.537   3.888
13211TIP3    H139590   4.052   7.603   3.950
13211TIP3    H239591   4.027   7.547   3.812
13212TIP3   OH239592   7.424   1.823   5.442
13212TIP3    H139593   7.418   1.822   5.347
13212TIP3    H239594   7.383   1.905   5.469
13213TIP3   OH239595   0.151   3.669   5.263
13213TIP3    H139596   0.187   3.642   5.348
13213TIP3    H239597   0.213   3.634   5.199
13214TIP3   OH239598   7.604   2.033   1.606
13214TIP3    H139599   7.554   1.971   1.659
13214TIP3    H239600   7.642   1.980   1.535
13215TIP3   OH239601   7.279   2.995   0.412
13215TIP3    H139602   7.213   3.048   0.366
13215TIP3    H239603   7.259   2.905   0.387
13216TIP3   OH239604   6.767   3.490   2.781
13216TIP3    H139605   6.696   3.453   2.833
13216TIP3    H239606   6.769   3.583   2.807
13217TIP3   OH239607   2.971   3.733   0.350
13217TIP3    H139608   2.881   3.737   0.319
13217TIP3    H239609   3.015   3.675   0.289
13218TIP3   OH239610   6.345   1.588   5.974
13218TIP3    H139611   6.338   1.668   6.025
13218TIP3    H239612   6.258   1.578   5.934
13219TIP3   OH239613   8.308   1.260   2.292
13219TIP3    H139614   8.251   1.185   2.275
13219TIP3    H239615   8.294   1.318   2.217
13220TIP3   OH239616   6.281   1.320   6.089
13220TIP3    H139617   6.186   1.329   6.099
13220TIP3    H239618   6.305   1.388   6.026
13221TIP3   OH239619   6.331   6.185   2.277
13221TIP3    H139620   6.290   6.122   2.218
13221TIP3    H239621   6.298   6.162   2.364
13222TIP3   OH239622   2.312   4.469   5.429
13222TIP3    H139623   2.360   4.456   5.511
13222TIP3    H239624   2.376   4.508   5.369
13223TIP3   OH239625   4.120   1.012   0.625
13223TIP3    H139626   4.106   1.033   0.533
13223TIP3    H239627   4.173   0.933   0.623
13224TIP3   OH239628   6.381   4.136   5.516
13224TIP3    H139629   6.470   4.165   5.533
13224TIP3    H239630   6.391   4.044   5.490
13225TIP3   OH239631   0.002   4.751   3.388
13225TIP3    H139632   0.073   4.813   3.374
13225TIP3    H239633   0.030   4.696   3.461
13226TIP3   OH239634   3.392   7.400   1.329
13226TIP3    H139635   3.342   7.339   1.275
13226TIP3    H239636   3.333   7.475   1.343
13227TIP3   OH239637   3.063   3.137   6.084
13227TIP3    H139638   2.987   3.174   6.038
13227TIP3    H239639   3.069   3.187   6.165
13228TIP3   OH239640   7.584   4.803   4.386
13228TIP3    H139641   7.650   4.743   4.421
13228TIP3    H239642   7.581   4.783   4.292
13229TIP3   OH239643   3.532   7.549   5.026
13229TIP3    H139644   3.607   7.603   5.000
13229TIP3    H239645   3.533   7.551   5.122
13230TIP3   OH239646   0.903   3.953   2.628
13230TIP3    H139647   0.821   4.002   2.636
13230TIP3    H239648   0.959   4.010   2.575
13231TIP3   OH239649   0.895   2.911   1.018
13231TIP3    H139650   0.944   2.991   1.002
13231TIP3    H239651   0.809   2.928   0.980
13232TIP3   OH239652   0.613   1.611   0.196
13232TIP3    H139653   0.546   1.679   0.193
13232TIP3    H239654   0.651   1.618   0.284
13233TIP3   OH239655   6.478   3.928   1.822
13233TIP3    H139656   6.505   4.017   1.801
13233TIP3    H239657   6.407   3.909   1.760
13234TIP3   OH239658   3.519   2.233   5.383
13234TIP3    H139659   3.454   2.164   5.376
13234TIP3    H239660   3.567   2.231   5.300
13235TIP3   OH239661   7.691   5.406   0.479
13235TIP3    H139662   7.715   5.488   0.435
13235TIP3    H239663   7.612   5.428   0.528
13236TIP3   OH239664   7.652   1.433   6.769
13236TIP3    H139665   7.706   1.374   6.821
13236TIP3    H239666   7.661   1.518   6.812
13237TIP3   OH239667   1.436   3.369   6.413
13237TIP3    H139668   1.413   3.295   6.357
13237TIP3    H239669   1.532   3.365   6.419
13238TIP3   OH239670   2.807   1.662   4.301
13238TIP3    H139671   2.715   1.687   4.292
13238TIP3    H239672   2.808   1.601   4.376
13239TIP3   OH239673   0.283   3.500   4.683
13239TIP3    H139674   0.224   3.542   4.745
13239TIP3    H239675   0.225   3.458   4.619
13240TIP3   OH239676   5.787   6.720   4.680
13240TIP3    H139677   5.730   6.676   4.743
13240TIP3    H239678   5.875   6.687   4.699
13241TIP3   OH239679   4.459   5.989   6.166
13241TIP3    H139680   4.481   5.996   6.259
13241TIP3    H239681   4.427   5.900   6.156
13242TIP3   OH239682   3.443   5.314   3.695
13242TIP3    H139683   3.441   5.247   3.627
13242TIP3    H239684   3.495   5.275   3.766
13243TIP3   OH239685   1.842   5.044   5.004
13243TIP3    H139686   1.866   5.129   5.042
13243TIP3    H239687   1.877   4.979   5.064
13244TIP3   OH239688   2.493   0.195   3.972
13244TIP3    H139689   2.556   0.232   4.034
13244TIP3    H239690   2.483   0.104   4.000
13245TIP3   OH239691   2.729   5.833   1.520
13245TIP3    H139692   2.642   5.868   1.539
13245TIP3    H239693   2.764   5.806   1.606
13246TIP3   OH239694   4.108   5.886   4.597
13246TIP3    H139695   4.114   5.793   4.575
13246TIP3    H239696   4.145   5.931   4.521
13247TIP3   OH239697   1.588   6.124   4.978
13247TIP3    H139698   1.540   6.082   5.049
13247TIP3    H239699   1.676   6.138   5.012
13248TIP3   OH239700   7.649   4.919   2.252
13248TIP3    H139701   7.728   4.874   2.222
13248TIP3    H239702   7.586   4.849   2.269
13249TIP3   OH239703   2.604   5.245   5.572
13249TIP3    H139704   2.592   5.287   5.487
13249TIP3    H239705   2.674   5.181   5.558
13250TIP3   OH239706   1.684   3.042   4.133
13250TIP3    H139707   1.669   3.136   4.138
13250TIP3    H239708   1.658   3.017   4.045
13251TIP3   OH239709   3.654   4.964   4.847
13251TIP3    H139710   3.743   4.985   4.877
13251TIP3    H239711   3.599   5.029   4.890
13252TIP3   OH239712   8.236   1.305   3.859
13252TIP3    H139713   8.272   1.317   3.947
13252TIP3    H239714   8.156   1.255   3.872
13253TIP3   OH239715   2.348   2.268   3.948
13253TIP3    H139716   2.306   2.306   4.025
13253TIP3    H239717   2.345   2.174   3.962
13254TIP3   OH239718   2.542   1.493   2.518
13254TIP3    H139719   2.517   1.430   2.586
13254TIP3    H239720   2.468   1.553   2.512
13255TIP3   OH239721   1.877   1.856   5.573
13255TIP3    H139722   1.872   1.776   5.624
13255TIP3    H239723   1.817   1.917   5.617
13256TIP3   OH239724   6.816   5.213   0.472
13256TIP3    H139725   6.744   5.265   0.436
13256TIP3    H239726   6.883   5.214   0.403
13257TIP3   OH239727   8.204   2.706   0.297
13257TIP3    H139728   8.258   2.658   0.359
13257TIP3    H239729   8.116   2.701   0.333
13258TIP3   OH239730   4.036   6.597   1.358
13258TIP3    H139731   4.045   6.692   1.352
13258TIP3    H239732   4.123   6.564   1.336
13259TIP3   OH239733   6.942   3.435   3.111
13259TIP3    H139734   6.904   3.348   3.117
13259TIP3    H239735   6.867   3.494   3.106
13260TIP3   OH239736   0.036   0.997   6.295
13260TIP3    H139737   0.029   0.902   6.299
13260TIP3    H239738   0.001   1.021   6.210
13261TIP3   OH239739   6.496   1.328   4.873
13261TIP3    H139740   6.495   1.422   4.857
13261TIP3    H239741   6.564   1.294   4.815
13262TIP3   OH239742   7.607   4.903   6.295
13262TIP3    H139743   7.584   4.986   6.254
13262TIP3    H239744   7.680   4.924   6.352
13263TIP3   OH239745   1.937   1.312   3.687
13263TIP3    H139746   1.973   1.399   3.673
13263TIP3    H239747   1.911   1.283   3.599
13264TIP3   OH239748   1.193   3.221   0.630
13264TIP3    H139749   1.168   3.313   0.640
13264TIP3    H239750   1.270   3.223   0.573
13265TIP3   OH239751   0.176   3.612   1.825
13265TIP3    H139752   0.122   3.552   1.875
13265TIP3    H239753   0.131   3.696   1.831
13266TIP3   OH239754   4.380   5.902   0.654
13266TIP3    H139755   4.361   5.938   0.740
13266TIP3    H239756   4.474   5.881   0.656
13267TIP3   OH239757   4.726   4.252   3.898
13267TIP3    H139758   4.681   4.214   3.974
13267TIP3    H239759   4.655   4.287   3.844
13268TIP3   OH239760   3.122   5.325   6.480
13268TIP3    H139761   3.084   5.275   6.408
13268TIP3    H239762   3.207   5.353   6.448
13269TIP3   OH239763   3.457   6.072   3.565
13269TIP3    H139764   3.365   6.098   3.559
13269TIP3    H239765   3.457   5.995   3.620
13270TIP3   OH239766   4.410   4.380   4.956
13270TIP3    H139767   4.476   4.352   4.892
13270TIP3    H239768   4.459   4.397   5.036
13271TIP3   OH239769   2.596   4.229   2.553
13271TIP3    H139770   2.642   4.199   2.631
13271TIP3    H239771   2.664   4.242   2.488
13272TIP3   OH239772   5.778   7.719   3.544
13272TIP3    H139773   5.808   7.649   3.486
13272TIP3    H239774   5.699   7.753   3.503
13273TIP3   OH239775   6.625   0.797   2.275
13273TIP3    H139776   6.614   0.887   2.245
13273TIP3    H239777   6.551   0.782   2.334
13274TIP3   OH239778   4.919   2.869   0.546
13274TIP3    H139779   4.824   2.882   0.548
13274TIP3    H239780   4.956   2.957   0.540
13275TIP3   OH239781   4.146   5.721   3.821
13275TIP3    H139782   4.159   5.678   3.737
13275TIP3    H239783   4.228   5.768   3.838
13276TIP3   OH239784   1.943   1.709   3.377
13276TIP3    H139785   1.950   1.804   3.373
13276TIP3    H239786   2.001   1.678   3.308
13277TIP3   OH239787   5.109   1.309   0.352
13277TIP3    H139788   5.034   1.316   0.293
13277TIP3    H239789   5.133   1.399   0.373
13278TIP3   OH239790   0.209   1.150   4.249
13278TIP3    H139791   0.282   1.155   4.187
13278TIP3    H239792   0.251   1.135   4.334
13279TIP3   OH239793   1.495   1.203   0.164
13279TIP3    H139794   1.529   1.168   0.081
13279TIP3    H239795   1.405   1.226   0.145
13280TIP3   OH239796   1.259   0.264   1.694
13280TIP3    H139797   1.262   0.194   1.760
13280TIP3    H239798   1.216   0.337   1.738
13281TIP3   OH239799   6.906   4.779   5.665
13281TIP3    H139800   6.832   4.831   5.696
13281TIP3    H239801   6.878   4.688   5.677
13282TIP3   OH239802   3.893   1.738   1.564
13282TIP3    H139803   3.909   1.647   1.591
13282TIP3    H239804   3.806   1.736   1.524
13283TIP3   OH239805   6.693   4.350   4.432
13283TIP3    H139806   6.656   4.395   4.508
13283TIP3    H239807   6.739   4.419   4.383
13284TIP3   OH239808   1.842   6.957   2.207
13284TIP3    H139809   1.810   6.880   2.160
13284TIP3    H239810   1.897   6.921   2.277
13285TIP3   OH239811   6.919   7.458   6.496
13285TIP3    H139812   6.825   7.457   6.476
13285TIP3    H239813   6.927   7.402   6.574
13286TIP3   OH239814   0.064   1.112   0.398
13286TIP3    H139815   0.107   1.181   0.450
13286TIP3    H239816   0.048   1.042   0.460
13287TIP3   OH239817   5.182   2.063   2.897
13287TIP3    H139818   5.272   2.058   2.865
13287TIP3    H239819   5.128   2.062   2.817
13288TIP3   OH239820   4.432   7.227   3.793
13288TIP3    H139821   4.375   7.266   3.726
13288TIP3    H239822   4.413   7.277   3.872
13289TIP3   OH239823   6.310   5.509   4.773
13289TIP3    H139824   6.300   5.595   4.814
13289TIP3    H239825   6.238   5.503   4.711
13290TIP3   OH239826   4.740   3.419   3.751
13290TIP3    H139827   4.781   3.358   3.813
13290TIP3    H239828   4.685   3.475   3.805
13291TIP3   OH239829   5.528   2.861   3.156
13291TIP3    H139830   5.519   2.893   3.245
13291TIP3    H239831   5.556   2.770   3.165
13292TIP3   OH239832   0.306   0.877   3.744
13292TIP3    H139833   0.387   0.888   3.695
13292TIP3    H239834   0.238   0.870   3.676
13293TIP3   OH239835   5.944   5.456   2.920
13293TIP3    H139836   5.860   5.447   2.964
13293TIP3    H239837   5.921   5.467   2.827
13294TIP3   OH239838   3.784   5.722   5.606
13294TIP3    H139839   3.726   5.785   5.648
13294TIP3    H239840   3.849   5.776   5.561
13295TIP3   OH239841   4.527   3.160   2.319
13295TIP3    H139842   4.484   3.212   2.386
13295TIP3    H239843   4.500   3.070   2.336
13296TIP3   OH239844   7.676   7.525   2.906
13296TIP3    H139845   7.730   7.483   2.972
13296TIP3    H239846   7.698   7.618   2.912
13297TIP3   OH239847   4.510   2.283   6.675
13297TIP3    H139848   4.568   2.235   6.617
13297TIP3    H239849   4.431   2.229   6.680
13298TIP3   OH239850   1.310   4.776   1.513
13298TIP3    H139851   1.322   4.762   1.419
13298TIP3    H239852   1.392   4.816   1.542
13299TIP3   OH239853   4.309   2.072   4.732
13299TIP3    H139854   4.318   2.016   4.655
13299TIP3    H239855   4.237   2.130   4.711
13300TIP3   OH239856   4.919   6.988   1.670
13300TIP3    H139857   4.844   6.950   1.715
13300TIP3    H239858   4.939   6.925   1.600
13301TIP3   OH239859   4.559   3.265   5.860
13301TIP3    H139860   4.526   3.301   5.778
13301TIP3    H239861   4.622   3.198   5.834
13302TIP3   OH239862   1.215   0.534   4.234
13302TIP3    H139863   1.130   0.561   4.268
13302TIP3    H239864   1.277   0.596   4.272
13303TIP3   OH239865   6.223   1.183   4.765
13303TIP3    H139866   6.244   1.273   4.738
13303TIP3    H239867   6.181   1.192   4.851
13304TIP3   OH239868   0.692   2.120   2.718
13304TIP3    H139869   0.611   2.171   2.713
13304TIP3    H239870   0.745   2.152   2.645
13305TIP3   OH239871   5.804   6.790   6.057
13305TIP3    H139872   5.833   6.871   6.015
13305TIP3    H239873   5.824   6.722   5.994
13306TIP3   OH239874   0.952   1.980   5.278
13306TIP3    H139875   0.872   1.987   5.330
13306TIP3    H239876   0.965   2.068   5.242
13307TIP3   OH239877   7.047   1.795   2.284
13307TIP3    H139878   7.052   1.890   2.274
13307TIP3    H239879   6.956   1.777   2.305
13308TIP3   OH239880   3.819   1.191   0.145
13308TIP3    H139881   3.822   1.209   0.051
13308TIP3    H239882   3.874   1.260   0.184
13309TIP3   OH239883   4.310   3.108   5.555
13309TIP3    H139884   4.340   3.196   5.578
13309TIP3    H239885   4.375   3.050   5.595
13310TIP3   OH239886   5.841   6.575   2.241
13310TIP3    H139887   5.890   6.576   2.324
13310TIP3    H239888   5.889   6.515   2.185
13311TIP3   OH239889   7.907   0.648   4.450
13311TIP3    H139890   7.854   0.584   4.402
13311TIP3    H239891   7.951   0.596   4.517
13312TIP3   OH239892   2.306   3.822   6.141
13312TIP3    H139893   2.279   3.914   6.135
13312TIP3    H239894   2.401   3.826   6.148
13313TIP3   OH239895   3.437   1.116   0.034
13313TIP3    H139896   3.436   1.028   0.072
13313TIP3    H239897   3.514   1.117  -0.023
13314TIP3   OH239898   5.022   0.594   5.865
13314TIP3    H139899   4.948   0.577   5.807
13314TIP3    H239900   5.099   0.590   5.808
13315TIP3   OH239901   7.675   4.282   4.373
13315TIP3    H139902   7.664   4.195   4.334
13315TIP3    H239903   7.602   4.289   4.434
13316TIP3   OH239904   1.739   1.182   6.671
13316TIP3    H139905   1.700   1.227   6.746
13316TIP3    H239906   1.663   1.148   6.623
13317TIP3   OH239907   7.980   3.488   5.666
13317TIP3    H139908   7.965   3.398   5.693
13317TIP3    H239909   8.075   3.498   5.663
13318TIP3   OH239910   3.550   4.904   3.719
13318TIP3    H139911   3.560   4.993   3.752
13318TIP3    H239912   3.630   4.859   3.748
13319TIP3   OH239913   4.962   5.797   5.529
13319TIP3    H139914   5.052   5.804   5.499
13319TIP3    H239915   4.967   5.745   5.609
13320TIP3   OH239916   4.087   2.055   6.058
13320TIP3    H139917   4.082   2.058   6.154
13320TIP3    H239918   4.022   2.118   6.028
13321TIP3   OH239919   5.320   6.708   1.558
13321TIP3    H139920   5.297   6.626   1.516
13321TIP3    H239921   5.271   6.775   1.510
13322TIP3   OH239922   0.261   1.581   5.324
13322TIP3    H139923   0.220   1.653   5.372
13322TIP3    H239924   0.294   1.621   5.243
13323TIP3   OH239925   2.568   7.556   1.690
13323TIP3    H139926   2.477   7.527   1.690
13323TIP3    H239927   2.608   7.509   1.764
13324TIP3   OH239928   7.302   5.869   3.028
13324TIP3    H139929   7.303   5.800   3.094
13324TIP3    H239930   7.394   5.880   3.004
13325TIP3   OH239931   8.290   6.495   6.375
13325TIP3    H139932   8.223   6.519   6.312
13325TIP3    H239933   8.243   6.490   6.459
13326TIP3   OH239934   3.691   1.556   1.691
13326TIP3    H139935   3.642   1.511   1.622
13326TIP3    H239936   3.659   1.518   1.773
13327TIP3   OH239937   4.379   5.719   3.095
13327TIP3    H139938   4.358   5.634   3.056
13327TIP3    H239939   4.363   5.782   3.026
13328TIP3   OH239940   5.006   5.327   4.146
13328TIP3    H139941   5.089   5.354   4.186
13328TIP3    H239942   5.029   5.303   4.057
13329TIP3   OH239943   2.582   2.662   4.250
13329TIP3    H139944   2.648   2.593   4.239
13329TIP3    H239945   2.561   2.661   4.343
13330TIP3   OH239946   5.556   0.723   1.445
13330TIP3    H139947   5.621   0.745   1.378
13330TIP3    H239948   5.603   0.730   1.527
13331TIP3   OH239949   5.753   5.845   0.855
13331TIP3    H139950   5.710   5.810   0.933
13331TIP3    H239951   5.713   5.799   0.782
13332TIP3   OH239952   0.619   4.908   3.434
13332TIP3    H139953   0.630   4.898   3.339
13332TIP3    H239954   0.704   4.941   3.464
13333TIP3   OH239955   0.850   5.952   4.699
13333TIP3    H139956   0.861   6.004   4.620
13333TIP3    H239957   0.805   5.873   4.670
13334TIP3   OH239958   6.758   3.529   0.884
13334TIP3    H139959   6.721   3.523   0.972
13334TIP3    H239960   6.700   3.475   0.829
13335TIP3   OH239961   7.318   3.945   3.848
13335TIP3    H139962   7.300   3.998   3.926
13335TIP3    H239963   7.268   3.865   3.862
13336TIP3   OH239964   3.123   2.178   5.757
13336TIP3    H139965   3.033   2.208   5.743
13336TIP3    H239966   3.172   2.212   5.682
13337TIP3   OH239967   4.506   6.978   3.655
13337TIP3    H139968   4.546   7.060   3.624
13337TIP3    H239969   4.433   7.007   3.710
13338TIP3   OH239970   4.014   3.101   3.638
13338TIP3    H139971   3.927   3.069   3.664
13338TIP3    H239972   4.073   3.067   3.704
13339TIP3   OH239973   6.979   6.787   3.110
13339TIP3    H139974   7.000   6.863   3.164
13339TIP3    H239975   7.038   6.719   3.142
13340TIP3   OH239976   7.929   6.250   4.382
13340TIP3    H139977   7.989   6.264   4.456
13340TIP3    H239978   7.888   6.335   4.367
13341TIP3   OH239979   5.733   6.510   3.989
13341TIP3    H139980   5.821   6.547   3.980
13341TIP3    H239981   5.697   6.512   3.901
13342TIP3   OH239982   1.433   6.085   1.052
13342TIP3    H139983   1.503   6.120   1.107
13342TIP3    H239984   1.356   6.083   1.109
13343TIP3   OH239985   7.193   6.606   3.099
13343TIP3    H139986   7.179   6.645   3.013
13343TIP3    H239987   7.204   6.512   3.082
13344TIP3   OH239988   0.639   4.502   4.987
13344TIP3    H139989   0.584   4.467   5.057
13344TIP3    H239990   0.691   4.427   4.957
13345TIP3   OH239991   6.930   1.961   3.296
13345TIP3    H139992   6.962   1.917   3.217
13345TIP3    H239993   6.974   2.046   3.295
13346TIP3   OH239994   6.143   5.387   6.413
13346TIP3    H139995   6.086   5.463   6.422
13346TIP3    H239996   6.101   5.319   6.467
13347TIP3   OH239997   5.784   3.096   4.471
13347TIP3    H139998   5.757   3.013   4.509
13347TIP3    H239999   5.751   3.162   4.531
13348TIP3   OH240000   4.882   0.590   4.254
13348TIP3    H140001   4.943   0.613   4.184
13348TIP3    H240002   4.897   0.497   4.269
13349TIP3   OH240003   2.977   3.149   3.300
13349TIP3    H140004   2.938   3.099   3.228
13349TIP3    H240005   3.071   3.148   3.281
13350TIP3   OH240006   3.791   3.596   2.386
13350TIP3    H140007   3.851   3.556   2.449
13350TIP3    H240008   3.705   3.585   2.425
13351TIP3   OH240009   4.973   5.284   2.161
13351TIP3    H140010   5.052   5.326   2.194
13351TIP3    H240011   4.926   5.353   2.115
13352TIP3   OH240012   5.411   1.844   4.641
13352TIP3    H140013   5.342   1.859   4.706
13352TIP3    H240014   5.484   1.809   4.692
13353TIP3   OH240015   2.804   3.942   1.018
13353TIP3    H140016   2.835   3.909   0.933
13353TIP3    H240017   2.751   4.018   0.996
13354TIP3   OH240018   5.593   6.731   1.534
13354TIP3    H140019   5.624   6.719   1.444
13354TIP3    H240020   5.501   6.705   1.532
13355TIP3   OH240021   1.200   0.950   1.722
13355TIP3    H140022   1.204   0.860   1.689
13355TIP3    H240023   1.196   0.940   1.817
13356TIP3   OH240024   3.719   1.208   3.726
13356TIP3    H140025   3.641   1.153   3.721
13356TIP3    H240026   3.777   1.162   3.787
13357TIP3   OH240027   5.051   2.813   3.907
13357TIP3    H140028   4.961   2.834   3.933
13357TIP3    H240029   5.099   2.895   3.921
13358TIP3   OH240030   3.373   4.643   4.254
13358TIP3    H140031   3.417   4.567   4.293
13358TIP3    H240032   3.280   4.619   4.253
13359TIP3   OH240033   5.141   7.229   1.866
13359TIP3    H140034   5.055   7.269   1.873
13359TIP3    H240035   5.201   7.293   1.904
13360TIP3   OH240036   6.002   5.956   0.967
13360TIP3    H140037   5.913   5.930   0.944
13360TIP3    H240038   6.020   6.032   0.913
13361TIP3   OH240039   0.413   1.702   6.272
13361TIP3    H140040   0.481   1.682   6.337
13361TIP3    H240041   0.396   1.796   6.284
13362TIP3   OH240042   7.592   4.566   1.338
13362TIP3    H140043   7.626   4.572   1.427
13362TIP3    H240044   7.528   4.495   1.340
13363TIP3   OH240045   5.049   3.165   6.667
13363TIP3    H140046   4.996   3.202   6.738
13363TIP3    H240047   5.128   3.133   6.711
13364TIP3   OH240048   6.637   1.909   3.254
13364TIP3    H140049   6.613   1.963   3.178
13364TIP3    H240050   6.727   1.934   3.274
13365TIP3   OH240051   0.115   0.473   5.011
13365TIP3    H140052   0.125   0.500   5.102
13365TIP3    H240053   0.038   0.416   5.011
13366TIP3   OH240054   8.006   4.466   3.931
13366TIP3    H140055   7.934   4.487   3.990
13366TIP3    H240056   8.082   4.512   3.967
13367TIP3   OH240057   5.803   1.804   5.266
13367TIP3    H140058   5.896   1.819   5.253
13367TIP3    H240059   5.795   1.710   5.280
13368TIP3   OH240060   1.695   4.913   1.835
13368TIP3    H140061   1.766   4.907   1.770
13368TIP3    H240062   1.693   4.827   1.876
13369TIP3   OH240063   8.129   3.447   4.418
13369TIP3    H140064   8.146   3.355   4.397
13369TIP3    H240065   8.042   3.446   4.459
13370TIP3   OH240066   4.953   1.731   0.829
13370TIP3    H140067   5.028   1.710   0.885
13370TIP3    H240068   4.949   1.827   0.830
13371TIP3   OH240069   6.412   2.598   5.015
13371TIP3    H140070   6.494   2.575   4.970
13371TIP3    H240071   6.434   2.675   5.068
13372TIP3   OH240072   0.463   2.655   4.033
13372TIP3    H140073   0.520   2.602   3.978
13372TIP3    H240074   0.491   2.635   4.122
13373TIP3   OH240075   3.068   1.944   1.783
13373TIP3    H140076   3.144   1.981   1.737
13373TIP3    H240077   3.104   1.912   1.865
13374TIP3   OH240078   3.164   1.916   0.956
13374TIP3    H140079   3.237   1.915   1.018
13374TIP3    H240080   3.096   1.967   1.000
13375TIP3   OH240081   4.411   7.757   0.197
13375TIP3    H140082   4.413   7.666   0.224
13375TIP3    H240083   4.383   7.754   0.105
13376TIP3   OH240084   5.681   0.989   0.079
13376TIP3    H140085   5.722   0.972  -0.006
13376TIP3    H240086   5.596   0.946   0.074
13377TIP3   OH240087   2.641   2.330   0.331
13377TIP3    H140088   2.704   2.320   0.260
13377TIP3    H240089   2.689   2.305   0.410
13378TIP3   OH240090   8.178   1.986   5.183
13378TIP3    H140091   8.195   2.057   5.246
13378TIP3    H240092   8.245   1.996   5.116
13379TIP3   OH240093   8.142   6.807   5.119
13379TIP3    H140094   8.120   6.899   5.135
13379TIP3    H240095   8.098   6.786   5.037
13380TIP3   OH240096   1.908   2.932   5.048
13380TIP3    H140097   1.892   2.841   5.074
13380TIP3    H240098   2.002   2.945   5.062
13381TIP3   OH240099   5.693   1.258   1.127
13381TIP3    H140100   5.604   1.225   1.125
13381TIP3    H240101   5.738   1.210   1.057
13382TIP3   OH240102   2.854   5.817   3.719
13382TIP3    H140103   2.881   5.778   3.803
13382TIP3    H240104   2.872   5.910   3.729
13383TIP3   OH240105   6.916   3.129   0.042
13383TIP3    H140106   6.834   3.178   0.048
13383TIP3    H240107   6.910   3.064   0.112
13384TIP3   OH240108   3.382   2.333   1.916
13384TIP3    H140109   3.409   2.243   1.938
13384TIP3    H240110   3.298   2.344   1.959
13385TIP3   OH240111   1.400   4.569   0.465
13385TIP3    H140112   1.336   4.584   0.395
13385TIP3    H240113   1.386   4.479   0.492
13386TIP3   OH240114   2.689   5.102   4.650
13386TIP3    H140115   2.613   5.045   4.641
13386TIP3    H240116   2.760   5.044   4.679
13387TIP3   OH240117   1.462   6.306   3.416
13387TIP3    H140118   1.552   6.337   3.402
13387TIP3    H240119   1.407   6.381   3.392
13388TIP3   OH240120   0.928   3.192   5.022
13388TIP3    H140121   0.898   3.198   4.931
13388TIP3    H240122   0.955   3.100   5.032
13389TIP3   OH240123   4.054   1.790   0.966
13389TIP3    H140124   3.981   1.831   0.919
13389TIP3    H240125   4.052   1.829   1.053
13390TIP3   OH240126   7.615   3.301   5.775
13390TIP3    H140127   7.608   3.396   5.774
13390TIP3    H240128   7.693   3.282   5.725
13391TIP3   OH240129   7.591   7.613   3.791
13391TIP3    H140130   7.672   7.645   3.751
13391TIP3    H240131   7.522   7.664   3.748
13392TIP3   OH240132   1.876   4.065   4.064
13392TIP3    H140133   1.949   4.003   4.065
13392TIP3    H240134   1.798   4.011   4.074
13393TIP3   OH240135   1.526   4.805   0.373
13393TIP3    H140136   1.575   4.873   0.419
13393TIP3    H240137   1.520   4.733   0.437
13394TIP3   OH240138   6.546  -0.026   4.554
13394TIP3    H140139   6.585   0.062   4.560
13394TIP3    H240140   6.513  -0.030   4.464
13395TIP3   OH240141   7.388   3.178   5.710
13395TIP3    H140142   7.341   3.191   5.792
13395TIP3    H240143   7.473   3.219   5.723
13396TIP3   OH240144   6.847   0.930   6.178
13396TIP3    H140145   6.844   0.836   6.194
13396TIP3    H240146   6.835   0.969   6.265
13397TIP3   OH240147   4.599   0.466   6.743
13397TIP3    H140148   4.689   0.440   6.761
13397TIP3    H240149   4.584   0.444   6.651
13398TIP3   OH240150   4.844   5.182   5.826
13398TIP3    H140151   4.915   5.118   5.824
13398TIP3    H240152   4.772   5.137   5.870
13399TIP3   OH240153   7.399   2.373   2.062
13399TIP3    H140154   7.388   2.406   2.151
13399TIP3    H240155   7.487   2.401   2.037
13400TIP3   OH240156   3.093   1.422   4.071
13400TIP3    H140157   3.119   1.331   4.056
13400TIP3    H240158   3.117   1.467   3.990
13401TIP3   OH240159   3.184   0.328   3.844
13401TIP3    H140160   3.090   0.310   3.838
13401TIP3    H240161   3.192   0.389   3.917
13402TIP3   OH240162   0.986   0.572   3.053
13402TIP3    H140163   0.991   0.649   3.109
13402TIP3    H240164   1.040   0.507   3.097
13403TIP3   OH240165   5.011   0.873   5.512
13403TIP3    H140166   4.949   0.842   5.579
13403TIP3    H240167   5.030   0.795   5.460
13404TIP3   OH240168   4.233   5.650   4.831
13404TIP3    H140169   4.179   5.572   4.828
13404TIP3    H240170   4.225   5.689   4.744
13405TIP3   OH240171   7.836   1.965   5.458
13405TIP3    H140172   7.926   1.986   5.485
13405TIP3    H240173   7.840   1.872   5.435
13406TIP3   OH240174   5.240   7.355   0.799
13406TIP3    H140175   5.261   7.417   0.729
13406TIP3    H240176   5.188   7.406   0.861
13407TIP3   OH240177   4.846   7.590   5.127
13407TIP3    H140178   4.920   7.534   5.101
13407TIP3    H240179   4.836   7.574   5.221
13408TIP3   OH240180   6.784   5.674   6.627
13408TIP3    H140181   6.826   5.723   6.698
13408TIP3    H240182   6.857   5.629   6.583
13409TIP3   OH240183   4.807   2.370   6.157
13409TIP3    H140184   4.860   2.331   6.226
13409TIP3    H240185   4.847   2.456   6.142
13410TIP3   OH240186   4.969   0.328   4.298
13410TIP3    H140187   4.985   0.246   4.345
13410TIP3    H240188   5.054   0.373   4.301
13411TIP3   OH240189   3.324   6.060   5.058
13411TIP3    H140190   3.332   6.121   4.985
13411TIP3    H240191   3.235   6.073   5.091
13412TIP3   OH240192   4.963   5.864   0.615
13412TIP3    H140193   5.038   5.861   0.673
13412TIP3    H240194   4.989   5.924   0.544
13413TIP3   OH240195   1.978   0.487   2.434
13413TIP3    H140196   2.018   0.482   2.521
13413TIP3    H240197   1.886   0.465   2.449
13414TIP3   OH240198   0.421   6.569   3.472
13414TIP3    H140199   0.348   6.516   3.504
13414TIP3    H240200   0.424   6.552   3.378
13415TIP3   OH240201   2.577   5.544   2.285
13415TIP3    H140202   2.590   5.465   2.233
13415TIP3    H240203   2.608   5.615   2.229
13416TIP3   OH240204   6.921   6.869   6.404
13416TIP3    H140205   6.832   6.837   6.421
13416TIP3    H240206   6.908   6.957   6.368
13417TIP3   OH240207   5.754   6.114   2.538
13417TIP3    H140208   5.720   6.068   2.461
13417TIP3    H240209   5.847   6.123   2.521
13418TIP3   OH240210   4.637   5.871   0.680
13418TIP3    H140211   4.673   5.952   0.716
13418TIP3    H240212   4.665   5.872   0.588
13419TIP3   OH240213   4.924   4.904   6.395
13419TIP3    H140214   4.973   4.891   6.477
13419TIP3    H240215   4.855   4.966   6.418
13420TIP3   OH240216   7.107   2.002   6.496
13420TIP3    H140217   7.159   1.929   6.530
13420TIP3    H240218   7.060   2.036   6.572
13421TIP3   OH240219   0.320   5.792   5.727
13421TIP3    H140220   0.367   5.749   5.656
13421TIP3    H240221   0.290   5.720   5.783
13422TIP3   OH240222   5.727   1.557   5.274
13422TIP3    H140223   5.745   1.538   5.366
13422TIP3    H240224   5.682   1.480   5.242
13423TIP3   OH240225   0.256   2.416   2.033
13423TIP3    H140226   0.189   2.363   2.075
13423TIP3    H240227   0.312   2.445   2.105
13424TIP3   OH240228   3.472   2.543   1.095
13424TIP3    H140229   3.393   2.573   1.142
13424TIP3    H240230   3.511   2.624   1.062
13425TIP3   OH240231   1.257   4.630   4.888
13425TIP3    H140232   1.220   4.667   4.808
13425TIP3    H240233   1.184   4.583   4.929
13426TIP3   OH240234   5.896   5.333   3.318
13426TIP3    H140235   5.938   5.253   3.286
13426TIP3    H240236   5.969   5.386   3.351
13427TIP3   OH240237   7.194   2.551   4.232
13427TIP3    H140238   7.234   2.633   4.203
13427TIP3    H240239   7.257   2.512   4.292
13428TIP3   OH240240   3.062   4.284   5.584
13428TIP3    H140241   3.009   4.279   5.663
13428TIP3    H240242   3.068   4.193   5.553
13429TIP3   OH240243   7.244   1.806   6.619
13429TIP3    H140244   7.285   1.725   6.648
13429TIP3    H240245   7.246   1.863   6.695
13430TIP3   OH240246   3.287   4.692   6.563
13430TIP3    H140247   3.373   4.658   6.587
13430TIP3    H240248   3.285   4.781   6.599
13431TIP3   OH240249   1.870   1.859   0.056
13431TIP3    H140250   1.822   1.822   0.130
13431TIP3    H240251   1.806   1.859  -0.016
13432TIP3   OH240252   5.357   4.815   0.455
13432TIP3    H140253   5.341   4.895   0.506
13432TIP3    H240254   5.310   4.829   0.373
13433TIP3   OH240255   8.052   2.527   0.098
13433TIP3    H140256   8.073   2.601   0.154
13433TIP3    H240257   8.136   2.483   0.084
13434TIP3   OH240258   0.557   5.921   4.440
13434TIP3    H140259   0.601   5.843   4.472
13434TIP3    H240260   0.611   5.994   4.471
13435TIP3   OH240261   4.516   5.373   0.542
13435TIP3    H140262   4.521   5.294   0.488
13435TIP3    H240263   4.538   5.444   0.483
13436TIP3   OH240264   7.048   4.211   0.956
13436TIP3    H140265   7.140   4.185   0.954
13436TIP3    H240266   7.001   4.134   0.926
13437TIP3   OH240267   0.060   5.655   1.665
13437TIP3    H140268   0.127   5.706   1.620
13437TIP3    H240269   0.107   5.580   1.701
13438TIP3   OH240270   7.176   3.697   4.328
13438TIP3    H140271   7.154   3.634   4.396
13438TIP3    H240272   7.204   3.643   4.254
13439TIP3   OH240273   5.584   4.389   3.603
13439TIP3    H140274   5.624   4.473   3.625
13439TIP3    H240275   5.596   4.336   3.682
13440TIP3   OH240276   5.808   2.726   3.518
13440TIP3    H140277   5.779   2.686   3.601
13440TIP3    H240278   5.868   2.662   3.480
13441TIP3   OH240279   6.608   0.740   3.392
13441TIP3    H140280   6.562   0.811   3.348
13441TIP3    H240281   6.543   0.703   3.452
13442TIP3   OH240282   6.851   6.694   6.678
13442TIP3    H140283   6.841   6.782   6.712
13442TIP3    H240284   6.946   6.678   6.680
13443TIP3   OH240285   4.684   4.015   0.942
13443TIP3    H140286   4.671   4.056   0.856
13443TIP3    H240287   4.751   4.068   0.983
13444TIP3   OH240288   2.439   5.443   0.496
13444TIP3    H140289   2.502   5.484   0.554
13444TIP3    H240290   2.364   5.423   0.552
13445TIP3   OH240291   0.584   4.562   2.885
13445TIP3    H140292   0.502   4.606   2.904
13445TIP3    H240293   0.650   4.631   2.888
13446TIP3   OH240294   6.420   4.661   4.647
13446TIP3    H140295   6.486   4.713   4.601
13446TIP3    H240296   6.364   4.725   4.690
13447TIP3   OH240297   4.093   6.157   2.145
13447TIP3    H140298   4.087   6.064   2.127
13447TIP3    H240299   4.142   6.193   2.071
13448TIP3   OH240300   3.929   1.120   4.738
13448TIP3    H140301   3.960   1.050   4.794
13448TIP3    H240302   3.845   1.146   4.776
13449TIP3   OH240303   1.824   6.304   5.540
13449TIP3    H140304   1.866   6.390   5.534
13449TIP3    H240305   1.797   6.297   5.632
13450TIP3   OH240306   7.063   7.711   3.982
13450TIP3    H140307   7.085   7.793   4.027
13450TIP3    H240308   7.146   7.682   3.945
13451TIP3   OH240309   7.319   2.346   1.770
13451TIP3    H140310   7.330   2.409   1.699
13451TIP3    H240311   7.237   2.372   1.812
13452TIP3   OH240312   1.819   3.885   3.267
13452TIP3    H140313   1.822   3.920   3.178
13452TIP3    H240314   1.847   3.957   3.323
13453TIP3   OH240315   6.848   3.173   6.499
13453TIP3    H140316   6.856   3.180   6.404
13453TIP3    H240317   6.832   3.080   6.515
13454TIP3   OH240318   4.317   5.774   5.849
13454TIP3    H140319   4.395   5.828   5.835
13454TIP3    H240320   4.340   5.688   5.813
13455TIP3   OH240321   1.686   4.402   2.165
13455TIP3    H140322   1.645   4.403   2.078
13455TIP3    H240323   1.679   4.492   2.196
13456TIP3   OH240324   2.231   3.514   0.864
13456TIP3    H140325   2.268   3.443   0.812
13456TIP3    H240326   2.225   3.478   0.953
13457TIP3   OH240327   4.062   4.863   4.224
13457TIP3    H140328   4.131   4.846   4.159
13457TIP3    H240329   4.110   4.878   4.306
13458TIP3   OH240330   5.057   6.604   5.884
13458TIP3    H140331   5.039   6.513   5.906
13458TIP3    H240332   5.132   6.628   5.939
13459TIP3   OH240333   6.225   5.321   2.936
13459TIP3    H140334   6.138   5.331   2.974
13459TIP3    H240335   6.209   5.320   2.841
13460TIP3   OH240336   6.522   4.148   6.041
13460TIP3    H140337   6.488   4.205   5.973
13460TIP3    H240338   6.472   4.171   6.119
13461TIP3   OH240339   8.260   5.893   4.096
13461TIP3    H140340   8.225   5.969   4.141
13461TIP3    H240341   8.282   5.832   4.167
13462TIP3   OH240342   7.957   5.201   5.793
13462TIP3    H140343   7.924   5.183   5.705
13462TIP3    H240344   7.928   5.126   5.845
13463TIP3   OH240345   4.107   3.875   5.310
13463TIP3    H140346   4.052   3.943   5.270
13463TIP3    H240347   4.115   3.903   5.401
13464TIP3   OH240348   8.240   2.880   1.129
13464TIP3    H140349   8.172   2.942   1.104
13464TIP3    H240350   8.256   2.829   1.049
13465TIP3   OH240351   1.312   7.685   2.239
13465TIP3    H140352   1.324   7.726   2.154
13465TIP3    H240353   1.398   7.651   2.262
13466TIP3   OH240354   4.194   3.537   6.461
13466TIP3    H140355   4.136   3.514   6.534
13466TIP3    H240356   4.142   3.516   6.383
13467TIP3   OH240357   6.509   5.393   0.538
13467TIP3    H140358   6.471   5.480   0.525
13467TIP3    H240359   6.434   5.336   0.550
13468TIP3   OH240360   1.980   5.206   1.425
13468TIP3    H140361   2.036   5.283   1.431
13468TIP3    H240362   2.026   5.138   1.474
13469TIP3   OH240363   3.776   5.320   0.801
13469TIP3    H140364   3.824   5.390   0.845
13469TIP3    H240365   3.702   5.364   0.759
13470TIP3   OH240366   7.371   2.346   5.497
13470TIP3    H140367   7.293   2.316   5.543
13470TIP3    H240368   7.346   2.430   5.457
13471TIP3   OH240369   6.482   1.434   0.835
13471TIP3    H140370   6.388   1.421   0.851
13471TIP3    H240371   6.490   1.442   0.740
13472TIP3   OH240372   2.128   4.389   1.339
13472TIP3    H140373   2.160   4.392   1.249
13472TIP3    H240374   2.204   4.361   1.390
13473TIP3   OH240375   7.591   0.863   4.762
13473TIP3    H140376   7.621   0.954   4.765
13473TIP3    H240377   7.670   0.812   4.749
13474TIP3   OH240378   3.236   3.560   1.616
13474TIP3    H140379   3.169   3.492   1.611
13474TIP3    H240380   3.262   3.575   1.525
13475TIP3   OH240381   2.945   0.314   1.379
13475TIP3    H140382   2.924   0.347   1.292
13475TIP3    H240383   2.882   0.242   1.392
13476TIP3   OH240384   3.913   1.143   5.261
13476TIP3    H140385   3.867   1.225   5.241
13476TIP3    H240386   3.866   1.076   5.211
13477TIP3   OH240387   5.514   2.046  -0.014
13477TIP3    H140388   5.559   2.071   0.066
13477TIP3    H240389   5.490   1.954  -0.001
13478TIP3   OH240390   1.628   0.278   5.418
13478TIP3    H140391   1.563   0.296   5.487
13478TIP3    H240392   1.587   0.309   5.338
13479TIP3   OH240393   6.628   4.199   4.189
13479TIP3    H140394   6.641   4.218   4.282
13479TIP3    H240395   6.688   4.127   4.170
13480TIP3   OH240396   0.128   0.064   1.847
13480TIP3    H140397   0.173  -0.019   1.862
13480TIP3    H240398   0.164   0.096   1.764
13481TIP3   OH240399   3.590   5.153   0.972
13481TIP3    H140400   3.632   5.200   0.900
13481TIP3    H240401   3.563   5.070   0.934
13482TIP3   OH240402   2.518   4.485   1.702
13482TIP3    H140403   2.581   4.514   1.769
13482TIP3    H240404   2.480   4.405   1.738
13483TIP3   OH240405   4.960   1.046   0.197
13483TIP3    H140406   4.945   1.117   0.259
13483TIP3    H240407   4.908   1.070   0.120
13484TIP3   OH240408   6.317   2.575   2.631
13484TIP3    H140409   6.242   2.568   2.690
13484TIP3    H240410   6.306   2.503   2.570
13485TIP3   OH240411   5.803   3.428   2.485
13485TIP3    H140412   5.768   3.514   2.460
13485TIP3    H240413   5.893   3.430   2.454
13486TIP3   OH240414   6.905   0.791   4.999
13486TIP3    H140415   6.939   0.759   4.916
13486TIP3    H240416   6.810   0.780   4.992
13487TIP3   OH240417   8.157   7.744   3.408
13487TIP3    H140418   8.215   7.813   3.440
13487TIP3    H240419   8.074   7.760   3.452
13488TIP3   OH240420   4.216   4.935   5.452
13488TIP3    H140421   4.199   4.845   5.478
13488TIP3    H240422   4.141   4.985   5.483
13489TIP3   OH240423   6.258   4.790   0.448
13489TIP3    H140424   6.281   4.842   0.525
13489TIP3    H240425   6.190   4.731   0.478
13490TIP3   OH240426   5.579   1.659   1.177
13490TIP3    H140427   5.557   1.752   1.182
13490TIP3    H240428   5.508   1.620   1.126
13491TIP3   OH240429   3.659   0.048   6.771
13491TIP3    H140430   3.703   0.108   6.711
13491TIP3    H240431   3.584   0.015   6.721
13492TIP3   OH240432   1.032   2.485   1.481
13492TIP3    H140433   1.128   2.482   1.490
13492TIP3    H240434   1.007   2.568   1.521
13493TIP3   OH240435   5.212   2.958   2.394
13493TIP3    H140436   5.295   2.990   2.429
13493TIP3    H240437   5.212   2.984   2.302
13494TIP3   OH240438   0.981   5.904   6.282
13494TIP3    H140439   0.969   5.907   6.188
13494TIP3    H240440   0.892   5.899   6.318
13495TIP3   OH240441   2.937   6.501   6.023
13495TIP3    H140442   2.852   6.503   6.067
13495TIP3    H240443   2.953   6.408   6.006
13496TIP3   OH240444   6.374   0.048   1.166
13496TIP3    H140445   6.322  -0.027   1.196
13496TIP3    H240446   6.465   0.020   1.177
13497TIP3   OH240447   3.707   6.504   5.182
13497TIP3    H140448   3.633   6.560   5.157
13497TIP3    H240449   3.754   6.554   5.248
13498TIP3   OH240450   4.700   4.750   4.672
13498TIP3    H140451   4.675   4.661   4.696
13498TIP3    H240452   4.783   4.740   4.626
13499TIP3   OH240453   0.629   5.200   4.884
13499TIP3    H140454   0.545   5.177   4.923
13499TIP3    H240455   0.637   5.142   4.809
13500TIP3   OH240456   0.129   3.309   4.515
13500TIP3    H140457   0.035   3.312   4.496
13500TIP3    H240458   0.165   3.248   4.451
13501TIP3   OH240459   2.932   4.476   1.440
13501TIP3    H140460   2.991   4.412   1.400
13501TIP3    H240461   2.946   4.556   1.390
13502TIP3   OH240462   0.221   5.914   1.085
13502TIP3    H140463   0.155   5.943   1.021
13502TIP3    H240464   0.273   5.992   1.103
13503TIP3   OH240465   4.512   4.914   6.301
13503TIP3    H140466   4.521   4.939   6.209
13503TIP3    H240467   4.425   4.946   6.326
13504TIP3   OH240468   0.177   2.731   4.968
13504TIP3    H140469   0.083   2.715   4.961
13504TIP3    H240470   0.201   2.695   5.054
13505TIP3   OH240471   6.241   1.633   3.940
13505TIP3    H140472   6.319   1.646   3.995
13505TIP3    H240473   6.242   1.539   3.920
13506TIP3   OH240474   5.117   0.726   3.456
13506TIP3    H140475   5.071   0.747   3.537
13506TIP3    H240476   5.162   0.807   3.432
13507TIP3   OH240477   2.653   2.459   2.757
13507TIP3    H140478   2.723   2.459   2.822
13507TIP3    H240479   2.577   2.493   2.803
13508TIP3   OH240480   2.392   1.120   2.784
13508TIP3    H140481   2.319   1.181   2.795
13508TIP3    H240482   2.443   1.156   2.711
13509TIP3   OH240483   2.415   2.799   4.895
13509TIP3    H140484   2.344   2.853   4.860
13509TIP3    H240485   2.490   2.819   4.839
13510TIP3   OH240486   7.267   1.145   0.704
13510TIP3    H140487   7.250   1.051   0.693
13510TIP3    H240488   7.345   1.162   0.652
13511TIP3   OH240489   7.325   1.166   6.704
13511TIP3    H140490   7.310   1.257   6.682
13511TIP3    H240491   7.324   1.164   6.800
13512TIP3   OH240492   1.940   0.589   4.153
13512TIP3    H140493   1.851   0.553   4.157
13512TIP3    H240494   1.998   0.514   4.165
13513TIP3   OH240495   2.778   7.703   3.615
13513TIP3    H140496   2.824   7.785   3.634
13513TIP3    H240497   2.839   7.634   3.642
13514TIP3   OH240498   3.403   7.415   3.861
13514TIP3    H140499   3.378   7.418   3.769
13514TIP3    H240500   3.476   7.353   3.865
13515TIP3   OH240501   1.924   2.746   1.980
13515TIP3    H140502   1.930   2.841   1.979
13515TIP3    H240503   1.952   2.721   2.068
13516TIP3   OH240504   0.536   1.196   4.714
13516TIP3    H140505   0.585   1.271   4.678
13516TIP3    H240506   0.597   1.153   4.772
13517TIP3   OH240507   2.941   0.275   0.208
13517TIP3    H140508   2.989   0.275   0.125
13517TIP3    H240509   2.967   0.193   0.250
13518TIP3   OH240510   6.038   4.523   3.643
13518TIP3    H140511   6.116   4.500   3.693
13518TIP3    H240512   6.055   4.492   3.554
13519TIP3   OH240513   1.467   1.752   4.942
13519TIP3    H140514   1.433   1.830   4.897
13519TIP3    H240515   1.538   1.722   4.886
13520TIP3   OH240516   6.382   2.355   1.583
13520TIP3    H140517   6.339   2.328   1.502
13520TIP3    H240518   6.402   2.447   1.570
13521TIP3   OH240519   4.670   3.776   4.872
13521TIP3    H140520   4.672   3.864   4.833
13521TIP3    H240521   4.681   3.792   4.966
13522TIP3   OH240522   1.000   4.684  -0.011
13522TIP3    H140523   0.986   4.590  -0.012
13522TIP3    H240524   1.012   4.706   0.082
13523TIP3   OH240525   0.155   2.306   1.412
13523TIP3    H140526   0.173   2.350   1.495
13523TIP3    H240527   0.092   2.237   1.434
13524TIP3   OH240528   7.806   7.548   4.342
13524TIP3    H140529   7.779   7.475   4.286
13524TIP3    H240530   7.895   7.568   4.315
13525TIP3   OH240531   5.742   6.078   5.063
13525TIP3    H140532   5.658   6.105   5.099
13525TIP3    H240533   5.787   6.035   5.137
13526TIP3   OH240534   3.881   6.722   3.086
13526TIP3    H140535   3.866   6.683   3.172
13526TIP3    H240536   3.811   6.786   3.076
13527TIP3   OH240537   4.334   4.504   3.097
13527TIP3    H140538   4.270   4.468   3.036
13527TIP3    H240539   4.282   4.557   3.157
13528TIP3   OH240540   7.601   2.245   0.844
13528TIP3    H140541   7.684   2.200   0.831
13528TIP3    H240542   7.552   2.189   0.905
13529TIP3   OH240543   7.227   2.532   3.551
13529TIP3    H140544   7.146   2.484   3.566
13529TIP3    H240545   7.296   2.466   3.553
13530TIP3   OH240546   5.645   3.398   3.915
13530TIP3    H140547   5.638   3.472   3.854
13530TIP3    H240548   5.554   3.374   3.933
13531TIP3   OH240549   5.097   7.494   5.983
13531TIP3    H140550   5.135   7.521   6.066
13531TIP3    H240551   5.081   7.401   5.993
13532TIP3   OH240552   7.799   2.990   4.944
13532TIP3    H140553   7.733   2.991   4.874
13532TIP3    H240554   7.794   2.902   4.980
13533TIP3   OH240555   1.165   1.064   1.988
13533TIP3    H140556   1.070   1.055   1.995
13533TIP3    H240557   1.199   1.020   2.066
13534TIP3   OH240558   3.221   6.947   1.208
13534TIP3    H140559   3.281   6.991   1.147
13534TIP3    H240560   3.260   6.861   1.223
13535TIP3   OH240561   2.321   3.724   5.833
13535TIP3    H140562   2.278   3.806   5.860
13535TIP3    H240563   2.301   3.662   5.903
13536TIP3   OH240564   7.261   4.747   3.846
13536TIP3    H140565   7.231   4.739   3.755
13536TIP3    H240566   7.354   4.768   3.838
13537TIP3   OH240567   0.787   6.065   3.380
13537TIP3    H140568   0.817   6.070   3.289
13537TIP3    H240569   0.796   5.972   3.403
13538TIP3   OH240570   5.835   3.181   3.879
13538TIP3    H140571   5.895   3.218   3.815
13538TIP3    H240572   5.756   3.236   3.874
13539TIP3   OH240573   5.813   2.528   4.528
13539TIP3    H140574   5.818   2.503   4.620
13539TIP3    H240575   5.895   2.496   4.490
13540TIP3   OH240576   6.547   5.877   1.892
13540TIP3    H140577   6.468   5.931   1.883
13540TIP3    H240578   6.576   5.892   1.982
13541TIP3   OH240579   0.588   0.174   2.861
13541TIP3    H140580   0.652   0.202   2.796
13541TIP3    H240581   0.521   0.243   2.860
13542TIP3   OH240582   3.952   1.832   4.646
13542TIP3    H140583   3.928   1.756   4.594
13542TIP3    H240584   3.963   1.798   4.735
13543TIP3   OH240585   7.149   6.973   0.231
13543TIP3    H140586   7.174   6.938   0.146
13543TIP3    H240587   7.053   6.972   0.230
13544TIP3   OH240588   1.317   2.667   4.350
13544TIP3    H140589   1.299   2.751   4.306
13544TIP3    H240590   1.245   2.610   4.324
13545TIP3   OH240591   5.648   5.063   6.109
13545TIP3    H140592   5.711   5.111   6.162
13545TIP3    H240593   5.571   5.119   6.107
13546TIP3   OH240594   3.336   2.324   0.268
13546TIP3    H140595   3.255   2.369   0.241
13546TIP3    H240596   3.308   2.266   0.338
13547TIP3   OH240597   3.213   6.746   1.578
13547TIP3    H140598   3.173   6.822   1.621
13547TIP3    H240599   3.165   6.671   1.613
13548TIP3   OH240600   6.879   4.465   3.804
13548TIP3    H140601   6.821   4.504   3.740
13548TIP3    H240602   6.835   4.479   3.888
13549TIP3   OH240603   1.837   2.822   4.099
13549TIP3    H140604   1.889   2.816   4.019
13549TIP3    H240605   1.808   2.913   4.103
13550TIP3   OH240606   5.013   3.716   0.094
13550TIP3    H140607   4.919   3.725   0.110
13550TIP3    H240608   5.053   3.726   0.180
13551TIP3   OH240609   2.791   0.774   2.992
13551TIP3    H140610   2.734   0.699   2.977
13551TIP3    H240611   2.731   0.847   3.007
13552TIP3   OH240612   7.966   3.620   1.018
13552TIP3    H140613   7.957   3.574   0.934
13552TIP3    H240614   7.876   3.634   1.048
13553TIP3   OH240615   7.650   1.765   5.618
13553TIP3    H140616   7.575   1.787   5.563
13553TIP3    H240617   7.645   1.827   5.691
13554TIP3   OH240618   0.152   6.279   6.410
13554TIP3    H140619   0.081   6.342   6.399
13554TIP3    H240620   0.116   6.213   6.470
13555TIP3   OH240621   0.342  -0.016   6.102
13555TIP3    H140622   0.369  -0.027   6.193
13555TIP3    H240623   0.300   0.070   6.099
13556TIP3   OH240624   6.809   0.632   2.186
13556TIP3    H140625   6.767   0.563   2.134
13556TIP3    H240626   6.738   0.692   2.209
13557TIP3   OH240627   5.380   6.857   3.085
13557TIP3    H140628   5.312   6.905   3.131
13557TIP3    H240629   5.406   6.914   3.012
13558TIP3   OH240630   8.018   0.613   3.620
13558TIP3    H140631   8.072   0.690   3.599
13558TIP3    H240632   7.960   0.603   3.544
13559TIP3   OH240633   6.375   1.175   1.941
13559TIP3    H140634   6.444   1.157   2.004
13559TIP3    H240635   6.416   1.229   1.874
13560TIP3   OH240636   7.579   6.155   5.249
13560TIP3    H140637   7.592   6.167   5.155
13560TIP3    H240638   7.555   6.063   5.258
13561TIP3   OH240639   5.317   1.679   5.577
13561TIP3    H140640   5.367   1.741   5.525
13561TIP3    H240641   5.352   1.593   5.552
13562TIP3   OH240642   3.210   6.564   1.385
13562TIP3    H140643   3.120   6.539   1.405
13562TIP3    H240644   3.228   6.639   1.442
13563TIP3   OH240645   3.602   2.313   2.888
13563TIP3    H140646   3.603   2.288   2.980
13563TIP3    H240647   3.562   2.399   2.886
13564TIP3   OH240648   1.902   2.160   6.245
13564TIP3    H140649   1.988   2.137   6.212
13564TIP3    H240650   1.841   2.125   6.180
13565TIP3   OH240651   2.224   0.657   4.526
13565TIP3    H140652   2.203   0.659   4.433
13565TIP3    H240653   2.185   0.576   4.558
13566TIP3   OH240654   5.548   3.114   5.228
13566TIP3    H140655   5.541   3.076   5.140
13566TIP3    H240656   5.632   3.160   5.228
13567TIP3   OH240657   4.256   1.349   4.375
13567TIP3    H140658   4.274   1.262   4.340
13567TIP3    H240659   4.303   1.352   4.458
13568TIP3   OH240660   4.090   2.252   1.135
13568TIP3    H140661   4.053   2.294   1.213
13568TIP3    H240662   4.133   2.173   1.168
13569TIP3   OH240663   0.086   2.688   5.483
13569TIP3    H140664   0.106   2.780   5.501
13569TIP3    H240665   0.146   2.639   5.539
13570TIP3   OH240666   8.159   2.898   6.695
13570TIP3    H140667   8.142   2.961   6.625
13570TIP3    H240668   8.217   2.944   6.755
13571TIP3   OH240669   0.004   2.046   0.077
13571TIP3    H140670  -0.076   2.058   0.128
13571TIP3    H240671   0.072   2.030   0.143
13572TIP3   OH240672   3.735   0.891   6.068
13572TIP3    H140673   3.789   0.885   6.148
13572TIP3    H240674   3.674   0.818   6.075
13573TIP3   OH240675   0.386   7.819   1.322
13573TIP3    H140676   0.394   7.912   1.299
13573TIP3    H240677   0.419   7.773   1.245
13574TIP3   OH240678   5.231   0.504   4.530
13574TIP3    H140679   5.237   0.545   4.444
13574TIP3    H240680   5.258   0.413   4.515
13575TIP3   OH240681   7.466   1.439   5.091
13575TIP3    H140682   7.539   1.381   5.111
13575TIP3    H240683   7.397   1.413   5.153
13576TIP3   OH240684   5.699   3.872   6.502
13576TIP3    H140685   5.778   3.914   6.467
13576TIP3    H240686   5.728   3.785   6.528
13577TIP3   OH240687   6.466   3.684   4.214
13577TIP3    H140688   6.479   3.771   4.252
13577TIP3    H240689   6.433   3.701   4.126
13578TIP3   OH240690   1.174   2.616   2.093
13578TIP3    H140691   1.135   2.635   2.007
13578TIP3    H240692   1.126   2.540   2.125
13579TIP3   OH240693   7.515   2.917   4.127
13579TIP3    H140694   7.508   3.012   4.134
13579TIP3    H240695   7.603   2.897   4.159
13580TIP3   OH240696   7.875   0.414   5.963
13580TIP3    H140697   7.786   0.386   5.941
13580TIP3    H240698   7.916   0.338   6.003
13581TIP3   OH240699   4.974   1.634   4.411
13581TIP3    H140700   4.941   1.619   4.499
13581TIP3    H240701   4.919   1.579   4.354
13582TIP3   OH240702   1.797   6.828   6.549
13582TIP3    H140703   1.760   6.825   6.637
13582TIP3    H240704   1.741   6.890   6.502
13583TIP3   OH240705   4.209   2.064   5.768
13583TIP3    H140706   4.220   1.997   5.701
13583TIP3    H240707   4.266   2.036   5.840
13584TIP3   OH240708   1.943   1.608   0.803
13584TIP3    H140709   1.905   1.535   0.853
13584TIP3    H240710   1.979   1.567   0.725
13585TIP3   OH240711   2.635   1.211   5.710
13585TIP3    H140712   2.705   1.209   5.775
13585TIP3    H240713   2.673   1.172   5.631
13586TIP3   OH240714   4.811   4.016   6.697
13586TIP3    H140715   4.865   3.946   6.659
13586TIP3    H240716   4.844   4.096   6.655
13587TIP3   OH240717   5.938   5.021   2.917
13587TIP3    H140718   5.919   4.937   2.876
13587TIP3    H240719   6.007   5.059   2.863
13588TIP3   OH240720   7.513   3.799   2.364
13588TIP3    H140721   7.599   3.758   2.356
13588TIP3    H240722   7.502   3.847   2.282
13589TIP3   OH240723   3.956   3.742   4.513
13589TIP3    H140724   4.042   3.781   4.497
13589TIP3    H240725   3.937   3.763   4.605
13590TIP3   OH240726   7.451   0.398   3.528
13590TIP3    H140727   7.451   0.486   3.492
13590TIP3    H240728   7.455   0.340   3.452
13591TIP3   OH240729   3.478   1.446   3.397
13591TIP3    H140730   3.497   1.495   3.317
13591TIP3    H240731   3.553   1.387   3.407
13592TIP3   OH240732   0.239   2.087   0.499
13592TIP3    H140733   0.191   2.072   0.581
13592TIP3    H240734   0.292   2.165   0.516
13593TIP3   OH240735   5.851   4.229   6.744
13593TIP3    H140736   5.781   4.260   6.686
13593TIP3    H240737   5.888   4.153   6.699
13594TIP3   OH240738   7.343   5.784   0.209
13594TIP3    H140739   7.390   5.840   0.270
13594TIP3    H240740   7.280   5.736   0.262
13595TIP3   OH240741   1.739   0.635   0.740
13595TIP3    H140742   1.774   0.719   0.768
13595TIP3    H240743   1.713   0.649   0.649
13596TIP3   OH240744   7.395   5.175   6.316
13596TIP3    H140745   7.486   5.193   6.289
13596TIP3    H240746   7.348   5.164   6.233
13597TIP3   OH240747   5.817   2.525   4.803
13597TIP3    H140748   5.727   2.539   4.835
13597TIP3    H240749   5.853   2.458   4.860
13598TIP3   OH240750   0.042   7.274   0.436
13598TIP3    H140751   0.054   7.301   0.527
13598TIP3    H240752   0.126   7.292   0.395
13599TIP3   OH240753   2.291   4.718   3.651
13599TIP3    H140754   2.216   4.749   3.701
13599TIP3    H240755   2.296   4.624   3.671
13600TIP3   OH240756   6.301   5.216   3.183
13600TIP3    H140757   6.308   5.231   3.089
13600TIP3    H240758   6.238   5.282   3.213
13601TIP3   OH240759   0.067   5.533   5.426
13601TIP3    H140760   0.075   5.628   5.420
13601TIP3    H240761   0.153   5.500   5.400
13602TIP3   OH240762   7.126   6.537   4.750
13602TIP3    H140763   7.061   6.568   4.687
13602TIP3    H240764   7.187   6.610   4.759
13603TIP3   OH240765   3.388   1.494   4.788
13603TIP3    H140766   3.452   1.460   4.726
13603TIP3    H240767   3.418   1.584   4.806
13604TIP3   OH240768   6.152   1.705   6.680
13604TIP3    H140769   6.234   1.754   6.688
13604TIP3    H240770   6.135   1.670   6.767
13605TIP3   OH240771   1.383   6.752   4.994
13605TIP3    H140772   1.415   6.678   4.941
13605TIP3    H240773   1.374   6.824   4.931
13606TIP3   OH240774   6.036   3.032   0.167
13606TIP3    H140775   6.085   3.098   0.217
13606TIP3    H240776   5.981   2.988   0.232
13607TIP3   OH240777   8.205   5.097   5.536
13607TIP3    H140778   8.225   5.171   5.479
13607TIP3    H240779   8.215   5.131   5.625
13608TIP3   OH240780   1.273   1.184   2.733
13608TIP3    H140781   1.339   1.127   2.773
13608TIP3    H240782   1.278   1.162   2.639
13609TIP3   OH240783   0.258   1.301   5.419
13609TIP3    H140784   0.259   1.376   5.360
13609TIP3    H240785   0.321   1.239   5.382
13610TIP3   OH240786   4.410   5.690   3.399
13610TIP3    H140787   4.383   5.686   3.307
13610TIP3    H240788   4.371   5.771   3.432
13611TIP3   OH240789   1.728   5.417   0.592
13611TIP3    H140790   1.789   5.472   0.543
13611TIP3    H240791   1.660   5.477   0.620
13612TIP3   OH240792   6.700   7.166   0.096
13612TIP3    H140793   6.694   7.188   0.189
13612TIP3    H240794   6.792   7.142   0.084
13613TIP3   OH240795   2.689   2.950   5.044
13613TIP3    H140796   2.671   2.906   4.962
13613TIP3    H240797   2.782   2.931   5.061
13614TIP3   OH240798   5.312   6.629   4.776
13614TIP3    H140799   5.385   6.575   4.746
13614TIP3    H240800   5.262   6.647   4.697
13615TIP3   OH240801   5.769   4.302   5.314
13615TIP3    H140802   5.828   4.354   5.260
13615TIP3    H240803   5.685   4.348   5.310
13616TIP3   OH240804   6.238   4.837   1.128
13616TIP3    H140805   6.144   4.848   1.145
13616TIP3    H240806   6.242   4.797   1.041
13617TIP3   OH240807   0.172   7.664   5.823
13617TIP3    H140808   0.122   7.681   5.743
13617TIP3    H240809   0.115   7.692   5.894
13618TIP3   OH240810   2.425   7.557   4.291
13618TIP3    H140811   2.447   7.576   4.200
13618TIP3    H240812   2.448   7.636   4.338
13619TIP3   OH240813   7.924   7.086   2.158
13619TIP3    H140814   7.891   7.124   2.076
13619TIP3    H240815   7.996   7.029   2.131
13620TIP3   OH240816   4.794   3.951   1.397
13620TIP3    H140817   4.778   4.041   1.368
13620TIP3    H240818   4.812   3.959   1.490
13621TIP3   OH240819   6.285   0.435   5.126
13621TIP3    H140820   6.254   0.429   5.036
13621TIP3    H240821   6.217   0.392   5.178
13622TIP3   OH240822   7.936   1.105   3.102
13622TIP3    H140823   7.951   1.188   3.147
13622TIP3    H240824   7.876   1.057   3.159
13623TIP3   OH240825   0.762   2.875   6.353
13623TIP3    H140826   0.749   2.913   6.266
13623TIP3    H240827   0.778   2.950   6.410
13624TIP3   OH240828   2.404   1.153   4.350
13624TIP3    H140829   2.382   1.167   4.258
13624TIP3    H240830   2.487   1.200   4.363
13625TIP3   OH240831   4.191   3.849   4.391
13625TIP3    H140832   4.146   3.922   4.347
13625TIP3    H240833   4.273   3.839   4.343
13626TIP3   OH240834   3.245   2.201   4.659
13626TIP3    H140835   3.305   2.164   4.594
13626TIP3    H240836   3.183   2.130   4.676
13627TIP3   OH240837   4.235   4.856   0.256
13627TIP3    H140838   4.207   4.856   0.165
13627TIP3    H240839   4.280   4.940   0.267
13628TIP3   OH240840   4.874   0.519   0.260
13628TIP3    H140841   4.833   0.436   0.286
13628TIP3    H240842   4.874   0.516   0.164
13629TIP3   OH240843   4.048   7.062   1.040
13629TIP3    H140844   4.036   7.134   0.978
13629TIP3    H240845   4.047   6.983   0.987
13630TIP3   OH240846   8.219   3.764   5.651
13630TIP3    H140847   8.266   3.845   5.629
13630TIP3    H240848   8.152   3.757   5.584
13631TIP3   OH240849   1.828   0.061   1.085
13631TIP3    H140850   1.807   0.034   0.996
13631TIP3    H240851   1.759   0.123   1.109
13632TIP3   OH240852   6.742   7.375   4.740
13632TIP3    H140853   6.726   7.289   4.702
13632TIP3    H240854   6.821   7.407   4.696
13633TIP3   OH240855   4.707   1.794   5.189
13633TIP3    H140856   4.764   1.739   5.242
13633TIP3    H240857   4.757   1.873   5.173
13634TIP3   OH240858   5.528   7.654   0.511
13634TIP3    H140859   5.590   7.585   0.487
13634TIP3    H240860   5.559   7.731   0.464
13635TIP3   OH240861   2.586   2.961   5.363
13635TIP3    H140862   2.559   2.972   5.454
13635TIP3    H240863   2.682   2.952   5.367
13636TIP3   OH240864   4.077   3.962   3.156
13636TIP3    H140865   4.120   4.009   3.227
13636TIP3    H240866   4.113   4.000   3.076
13637TIP3   OH240867   7.404   5.833   3.364
13637TIP3    H140868   7.477   5.830   3.426
13637TIP3    H240869   7.331   5.867   3.416
13638TIP3   OH240870   1.488   1.021   0.758
13638TIP3    H140871   1.411   1.057   0.802
13638TIP3    H240872   1.483   0.927   0.773
13639TIP3   OH240873   5.558   4.785   6.253
13639TIP3    H140874   5.558   4.716   6.319
13639TIP3    H240875   5.490   4.845   6.280
13640TIP3   OH240876   6.193   3.763   2.703
13640TIP3    H140877   6.102   3.755   2.674
13640TIP3    H240878   6.243   3.705   2.645
13641TIP3   OH240879   3.895   1.453   1.169
13641TIP3    H140880   3.974   1.497   1.201
13641TIP3    H240881   3.840   1.523   1.137
13642TIP3   OH240882   3.916   0.630   1.498
13642TIP3    H140883   3.935   0.646   1.590
13642TIP3    H240884   3.997   0.654   1.452
13643TIP3   OH240885   6.275   1.413   6.636
13643TIP3    H140886   6.315   1.495   6.607
13643TIP3    H240887   6.334   1.345   6.604
13644TIP3   OH240888   3.554   4.588   2.133
13644TIP3    H140889   3.588   4.667   2.091
13644TIP3    H240890   3.465   4.578   2.099
13645TIP3   OH240891   1.507   4.462   6.121
13645TIP3    H140892   1.458   4.541   6.144
13645TIP3    H240893   1.572   4.492   6.057
13646TIP3   OH240894   3.286   0.311   0.773
13646TIP3    H140895   3.248   0.367   0.840
13646TIP3    H240896   3.378   0.302   0.798
13647TIP3   OH240897   7.884   2.036   2.263
13647TIP3    H140898   7.867   2.108   2.324
13647TIP3    H240899   7.977   2.041   2.245
13648TIP3   OH240900   6.706   4.951   0.075
13648TIP3    H140901   6.749   4.955   0.160
13648TIP3    H240902   6.778   4.948   0.012
13649TIP3   OH240903   2.905   0.802   5.338
13649TIP3    H140904   2.986   0.800   5.388
13649TIP3    H240905   2.930   0.838   5.253
13650TIP3   OH240906   5.034   3.195   1.179
13650TIP3    H140907   5.124   3.188   1.148
13650TIP3    H240908   4.984   3.222   1.103
13651TIP3   OH240909   1.313   2.696   0.758
13651TIP3    H140910   1.237   2.650   0.722
13651TIP3    H240911   1.280   2.782   0.783
13652TIP3   OH240912   4.908   1.062   2.973
13652TIP3    H140913   4.880   1.150   2.950
13652TIP3    H240914   4.826   1.013   2.986
13653TIP3   OH240915   7.484   5.717   4.946
13653TIP3    H140916   7.425   5.643   4.963
13653TIP3    H240917   7.545   5.684   4.880
13654TIP3   OH240918   0.219   2.918   5.551
13654TIP3    H140919   0.245   2.855   5.617
13654TIP3    H240920   0.299   2.966   5.529
13655TIP3   OH240921   2.218   1.805   0.346
13655TIP3    H140922   2.271   1.839   0.418
13655TIP3    H240923   2.271   1.822   0.268
13656TIP3   OH240924   0.689   4.232   0.098
13656TIP3    H140925   0.759   4.280   0.053
13656TIP3    H240926   0.703   4.248   0.191
13657TIP3   OH240927   1.638   3.225   2.363
13657TIP3    H140928   1.602   3.138   2.346
13657TIP3    H240929   1.629   3.237   2.458
13658TIP3   OH240930   2.240   0.286   1.674
13658TIP3    H140931   2.200   0.201   1.693
13658TIP3    H240932   2.287   0.273   1.591
13659TIP3   OH240933   2.489   5.466   6.565
13659TIP3    H140934   2.521   5.388   6.519
13659TIP3    H240935   2.557   5.531   6.552
13660TIP3   OH240936   3.176   5.718   5.710
13660TIP3    H140937   3.215   5.805   5.718
13660TIP3    H240938   3.171   5.686   5.799
13661TIP3   OH240939   1.871   3.638   3.908
13661TIP3    H140940   1.944   3.700   3.913
13661TIP3    H240941   1.855   3.613   3.999
13662TIP3   OH240942   0.722   0.266   2.354
13662TIP3    H140943   0.761   0.264   2.441
13662TIP3    H240944   0.644   0.321   2.364
13663TIP3   OH240945   4.011   4.808   2.733
13663TIP3    H140946   3.962   4.877   2.777
13663TIP3    H240947   3.976   4.727   2.771
13664TIP3   OH240948   1.203   3.979   4.763
13664TIP3    H140949   1.243   3.916   4.823
13664TIP3    H240950   1.113   3.949   4.753
13665TIP3   OH240951   7.319   0.137   2.354
13665TIP3    H140952   7.309   0.082   2.277
13665TIP3    H240953   7.238   0.189   2.357
13666TIP3   OH240954   0.289   0.285   4.886
13666TIP3    H140955   0.222   0.220   4.867
13666TIP3    H240956   0.247   0.348   4.945
13667TIP3   OH240957   0.912   5.618   5.823
13667TIP3    H140958   0.971   5.590   5.753
13667TIP3    H240959   0.825   5.596   5.792
13668TIP3   OH240960   5.662   6.972   2.666
13668TIP3    H140961   5.693   6.940   2.751
13668TIP3    H240962   5.609   6.900   2.632
13669TIP3   OH240963   4.583   3.633   6.473
13669TIP3    H140964   4.678   3.634   6.462
13669TIP3    H240965   4.569   3.633   6.568
13670TIP3   OH240966   2.170   2.683   5.004
13670TIP3    H140967   2.259   2.713   4.984
13670TIP3    H240968   2.173   2.657   5.096
13671TIP3   OH240969   4.912   1.377   0.134
13671TIP3    H140970   4.946   1.425   0.058
13671TIP3    H240971   4.850   1.314   0.097
13672TIP3   OH240972   7.977   0.449   1.132
13672TIP3    H140973   8.043   0.469   1.065
13672TIP3    H240974   8.013   0.374   1.179
13673TIP3   OH240975   5.678   5.306   3.525
13673TIP3    H140976   5.723   5.356   3.593
13673TIP3    H240977   5.741   5.300   3.453
13674TIP3   OH240978   0.756   2.830   5.045
13674TIP3    H140979   0.731   2.797   5.131
13674TIP3    H240980   0.821   2.898   5.064
13675TIP3   OH240981   7.108   4.126   3.387
13675TIP3    H140982   7.124   4.044   3.432
13675TIP3    H240983   7.026   4.159   3.423
13676TIP3   OH240984   6.838   7.438   5.011
13676TIP3    H140985   6.792   7.393   4.939
13676TIP3    H240986   6.856   7.368   5.074
13677TIP3   OH240987   1.225   7.701   5.957
13677TIP3    H140988   1.159   7.679   5.891
13677TIP3    H240989   1.190   7.777   6.002
13678TIP3   OH240990   1.151   4.369   0.133
13678TIP3    H140991   1.080   4.366   0.069
13678TIP3    H240992   1.231   4.362   0.081
13679TIP3   OH240993   3.901   6.112   1.127
13679TIP3    H140994   3.884   6.194   1.173
13679TIP3    H240995   3.846   6.048   1.173
13680TIP3   OH240996   0.080   0.591   0.069
13680TIP3    H140997  -0.012   0.564   0.057
13680TIP3    H240998   0.102   0.639  -0.010
13681TIP3   OH240999   6.356   1.809   2.066
13681TIP3    H141000   6.415   1.810   1.990
13681TIP3    H241001   6.377   1.889   2.113
13682TIP3   OH241002   7.723   3.070   1.371
13682TIP3    H141003   7.651   3.037   1.425
13682TIP3    H241004   7.684   3.139   1.318
13683TIP3   OH241005   6.801   4.886   1.428
13683TIP3    H141006   6.770   4.796   1.421
13683TIP3    H241007   6.826   4.910   1.338
13684TIP3   OH241008   0.146   4.005   5.821
13684TIP3    H141009   0.187   3.950   5.753
13684TIP3    H241010   0.162   4.095   5.792
13685TIP3   OH241011   4.350   0.259   2.360
13685TIP3    H141012   4.336   0.293   2.271
13685TIP3    H241013   4.441   0.227   2.359
13686TIP3   OH241014   5.220   0.339   0.549
13686TIP3    H141015   5.258   0.295   0.472
13686TIP3    H241016   5.192   0.424   0.516
13687TIP3   OH241017   6.066   7.787   1.773
13687TIP3    H141018   6.152   7.800   1.812
13687TIP3    H241019   6.084   7.748   1.687
13688TIP3   OH241020   7.963   3.771   4.794
13688TIP3    H141021   8.015   3.842   4.832
13688TIP3    H241022   8.006   3.691   4.823
13689TIP3   OH241023   2.656   4.201   5.354
13689TIP3    H141024   2.613   4.222   5.437
13689TIP3    H241025   2.629   4.111   5.335
13690TIP3   OH241026   6.271   4.175   3.323
13690TIP3    H141027   6.238   4.195   3.235
13690TIP3    H241028   6.365   4.166   3.312
13691TIP3   OH241029   6.974   5.452   0.082
13691TIP3    H141030   6.907   5.422   0.021
13691TIP3    H241031   6.994   5.541   0.054
13692TIP3   OH241032   5.913   0.773   3.029
13692TIP3    H141033   5.823   0.745   3.044
13692TIP3    H241034   5.910   0.868   3.033
13693TIP3   OH241035   7.851   6.507   4.365
13693TIP3    H141036   7.860   6.578   4.301
13693TIP3    H241037   7.898   6.538   4.442
13694TIP3   OH241038   7.788   4.438   6.287
13694TIP3    H141039   7.802   4.343   6.293
13694TIP3    H241040   7.765   4.464   6.376
13695TIP3   OH241041   0.799   4.643   2.392
13695TIP3    H141042   0.798   4.641   2.296
13695TIP3    H241043   0.892   4.631   2.414
13696TIP3   OH241044   2.232   5.828   2.162
13696TIP3    H141045   2.185   5.815   2.079
13696TIP3    H241046   2.323   5.840   2.136
13697TIP3   OH241047   1.545   0.708   4.527
13697TIP3    H141048   1.466   0.720   4.581
13697TIP3    H241049   1.511   0.694   4.438
13698TIP3   OH241050   1.543   1.723   5.861
13698TIP3    H141051   1.605   1.684   5.923
13698TIP3    H241052   1.457   1.694   5.891
13699TIP3   OH241053   6.809   4.033   5.781
13699TIP3    H141054   6.741   4.006   5.842
13699TIP3    H241055   6.761   4.065   5.704
13700TIP3   OH241056   4.000   1.398   2.320
13700TIP3    H141057   4.061   1.325   2.331
13700TIP3    H241058   4.055   1.476   2.325
13701TIP3   OH241059   3.039   6.021   4.503
13701TIP3    H141060   3.107   6.007   4.569
13701TIP3    H241061   3.028   6.117   4.500
13702TIP3   OH241062   1.868   5.002   4.007
13702TIP3    H141063   1.854   4.907   3.999
13702TIP3    H241064   1.910   5.027   3.925
13703TIP3   OH241065   3.503   6.902   5.710
13703TIP3    H141066   3.469   6.853   5.785
13703TIP3    H241067   3.426   6.944   5.672
13704TIP3   OH241068   5.541   2.491   1.829
13704TIP3    H141069   5.602   2.424   1.797
13704TIP3    H241070   5.562   2.501   1.921
13705TIP3   OH241071   0.837   5.162   1.036
13705TIP3    H141072   0.780   5.191   0.964
13705TIP3    H241073   0.816   5.221   1.108
13706TIP3   OH241074   4.247   4.362   5.369
13706TIP3    H141075   4.192   4.348   5.293
13706TIP3    H241076   4.186   4.389   5.438
13707TIP3   OH241077   0.800   6.122   2.884
13707TIP3    H141078   0.734   6.176   2.928
13707TIP3    H241079   0.884   6.160   2.912
13708TIP3   OH241080   6.217   7.292   6.592
13708TIP3    H141081   6.178   7.238   6.660
13708TIP3    H241082   6.310   7.267   6.591
13709TIP3   OH241083   4.815   0.821   3.162
13709TIP3    H141084   4.892   0.868   3.129
13709TIP3    H241085   4.845   0.731   3.175
13710TIP3   OH241086   7.350   1.181   3.459
13710TIP3    H141087   7.439   1.197   3.425
13710TIP3    H241088   7.331   1.258   3.513
13711TIP3   OH241089   7.590   2.665   1.671
13711TIP3    H141090   7.512   2.712   1.702
13711TIP3    H241091   7.652   2.671   1.743
13712TIP3   OH241092   3.704   5.321   5.070
13712TIP3    H141093   3.670   5.330   5.159
13712TIP3    H241094   3.763   5.246   5.075
13713TIP3   OH241095   3.549   6.063   2.140
13713TIP3    H141096   3.519   6.139   2.091
13713TIP3    H241097   3.525   5.988   2.086
13714TIP3   OH241098   6.285   4.077   5.007
13714TIP3    H141099   6.276   4.005   5.070
13714TIP3    H241100   6.285   4.035   4.921
13715TIP3   OH241101   1.556   7.430   4.925
13715TIP3    H141102   1.644   7.461   4.948
13715TIP3    H241103   1.502   7.509   4.926
13716TIP3   OH241104   3.798   5.387   6.584
13716TIP3    H141105   3.824   5.416   6.497
13716TIP3    H241106   3.845   5.305   6.597
13717TIP3   OH241107   1.594   7.169   5.075
13717TIP3    H141108   1.549   7.090   5.046
13717TIP3    H241109   1.551   7.240   5.026
13718TIP3   OH241110   0.888   4.522   2.703
13718TIP3    H141111   0.801   4.487   2.684
13718TIP3    H241112   0.907   4.492   2.792
13719TIP3   OH241113   7.130   2.481   0.904
13719TIP3    H141114   7.095   2.393   0.919
13719TIP3    H241115   7.107   2.500   0.813
13720TIP3   OH241116   3.745   0.347   4.320
13720TIP3    H141117   3.754   0.284   4.247
13720TIP3    H241118   3.665   0.320   4.365
13721TIP3   OH241119   7.748   4.159   6.037
13721TIP3    H141120   7.795   4.236   6.005
13721TIP3    H241121   7.798   4.130   6.113
13722TIP3   OH241122   6.091   3.847   5.592
13722TIP3    H141123   6.109   3.762   5.633
13722TIP3    H241124   6.101   3.830   5.498
13723TIP3   OH241125   6.140   2.808   6.636
13723TIP3    H141126   6.175   2.770   6.555
13723TIP3    H241127   6.139   2.735   6.698
13724TIP3   OH241128   6.520   1.544   4.201
13724TIP3    H141129   6.472   1.621   4.233
13724TIP3    H241130   6.478   1.470   4.245
13725TIP3   OH241131   1.042   0.609   3.994
13725TIP3    H141132   1.036   0.527   3.944
13725TIP3    H241133   1.108   0.591   4.061
13726TIP3   OH241134   4.635   4.084   4.149
13726TIP3    H141135   4.672   4.165   4.185
13726TIP3    H241136   4.544   4.084   4.178
13727TIP3   OH241137   3.833   3.223   5.760
13727TIP3    H141138   3.927   3.208   5.759
13727TIP3    H241139   3.822   3.314   5.733
13728TIP3   OH241140   2.004   5.056   2.515
13728TIP3    H141141   2.031   4.965   2.530
13728TIP3    H241142   1.913   5.059   2.543
13729TIP3   OH241143   5.532   0.962   4.252
13729TIP3    H141144   5.561   0.956   4.343
13729TIP3    H241145   5.438   0.943   4.256
13730TIP3   OH241146   2.222   7.292   2.543
13730TIP3    H141147   2.292   7.283   2.478
13730TIP3    H241148   2.158   7.349   2.501
13731TIP3   OH241149   2.109   1.511   2.262
13731TIP3    H141150   2.122   1.596   2.221
13731TIP3    H241151   2.045   1.527   2.331
13732TIP3   OH241152   4.192   7.032   3.742
13732TIP3    H141153   4.178   7.092   3.815
13732TIP3    H241154   4.115   6.975   3.743
13733TIP3   OH241155   6.417   7.457   0.091
13733TIP3    H141156   6.499   7.449   0.043
13733TIP3    H241157   6.443   7.492   0.177
13734TIP3   OH241158   3.791   4.556   4.049
13734TIP3    H141159   3.804   4.614   4.125
13734TIP3    H241160   3.868   4.499   4.050
13735TIP3   OH241161   4.749   5.187   4.381
13735TIP3    H141162   4.737   5.210   4.289
13735TIP3    H241163   4.660   5.185   4.416
13736TIP3   OH241164   7.213   5.835   0.524
13736TIP3    H141165   7.297   5.882   0.525
13736TIP3    H241166   7.232   5.753   0.570
13737TIP3   OH241167   7.355   5.993   5.657
13737TIP3    H141168   7.294   5.925   5.627
13737TIP3    H241169   7.426   5.945   5.699
13738TIP3   OH241170   2.577   7.272   5.731
13738TIP3    H141171   2.559   7.311   5.645
13738TIP3    H241172   2.559   7.343   5.793
13739TIP3   OH241173   3.586   1.551   4.508
13739TIP3    H141174   3.649   1.594   4.451
13739TIP3    H241175   3.504   1.598   4.494
13740TIP3   OH241176   0.905   3.937   5.941
13740TIP3    H141177   0.862   3.872   5.996
13740TIP3    H241178   0.994   3.903   5.930
13741TIP3   OH241179   6.090   7.371   0.675
13741TIP3    H141180   6.020   7.374   0.610
13741TIP3    H241181   6.058   7.425   0.747
13742TIP3   OH241182   6.545   1.774   1.811
13742TIP3    H141183   6.503   1.837   1.752
13742TIP3    H241184   6.591   1.714   1.753
13743TIP3   OH241185   2.158   5.996   6.479
13743TIP3    H141186   2.172   5.914   6.525
13743TIP3    H241187   2.233   6.003   6.420
13744TIP3   OH241188   0.235   0.222   0.192
13744TIP3    H141189   0.163   0.285   0.204
13744TIP3    H241190   0.302   0.270   0.145
13745TIP3   OH241191   8.032   5.720   2.824
13745TIP3    H141192   8.092   5.647   2.811
13745TIP3    H241193   7.944   5.682   2.817
13746TIP3   OH241194   1.466   0.629   2.825
13746TIP3    H141195   1.413   0.549   2.817
13746TIP3    H241196   1.449   0.659   2.914
13747TIP3   OH241197   6.750   7.200   2.062
13747TIP3    H141198   6.811   7.182   2.134
13747TIP3    H241199   6.707   7.116   2.046
13748TIP3   OH241200   1.126   4.305   1.078
13748TIP3    H141201   1.188   4.372   1.050
13748TIP3    H241202   1.176   4.224   1.079
13749TIP3   OH241203   0.368   4.223   1.651
13749TIP3    H141204   0.338   4.168   1.723
13749TIP3    H241205   0.357   4.170   1.573
13750TIP3   OH241206   7.917   6.034   6.244
13750TIP3    H141207   7.979   6.068   6.308
13750TIP3    H241208   7.840   6.009   6.295
13751TIP3   OH241209   5.471   1.674   0.372
13751TIP3    H141210   5.527   1.599   0.351
13751TIP3    H241211   5.515   1.716   0.446
13752TIP3   OH241212   5.246   5.980   0.172
13752TIP3    H141213   5.318   5.983   0.235
13752TIP3    H241214   5.257   6.059   0.120
13753TIP3   OH241215   3.791   4.044   1.376
13753TIP3    H141216   3.849   4.043   1.452
13753TIP3    H241217   3.743   3.961   1.380
13754TIP3   OH241218   3.614   4.014   3.796
13754TIP3    H141219   3.534   4.055   3.829
13754TIP3    H241220   3.669   4.002   3.873
13755TIP3   OH241221   4.099   5.772   6.173
13755TIP3    H141222   4.022   5.758   6.117
13755TIP3    H241223   4.157   5.698   6.153
13756TIP3   OH241224   6.515   1.515   3.375
13756TIP3    H141225   6.533   1.463   3.453
13756TIP3    H241226   6.571   1.478   3.308
13757TIP3   OH241227   7.282   6.373   6.055
13757TIP3    H141228   7.186   6.371   6.061
13757TIP3    H241229   7.302   6.328   5.973
13758TIP3   OH241230   2.533   3.590   2.014
13758TIP3    H141231   2.562   3.546   2.094
13758TIP3    H241232   2.447   3.551   1.995
13759TIP3   OH241233   5.279   2.319   4.280
13759TIP3    H141234   5.361   2.365   4.301
13759TIP3    H241235   5.289   2.294   4.188
13760TIP3   OH241236   3.567   6.575   3.093
13760TIP3    H141237   3.531   6.663   3.106
13760TIP3    H241238   3.637   6.587   3.028
13761TIP3   OH241239   0.299   1.924   2.687
13761TIP3    H141240   0.292   2.008   2.641
13761TIP3    H241241   0.347   1.945   2.767
13762TIP3   OH241242   3.591   5.336   3.308
13762TIP3    H141243   3.543   5.257   3.334
13762TIP3    H241244   3.588   5.393   3.385
13763TIP3   OH241245   3.454   6.740   5.162
13763TIP3    H141246   3.450   6.740   5.066
13763TIP3    H241247   3.511   6.813   5.184
13764TIP3   OH241248   5.834   5.853   6.106
13764TIP3    H141249   5.843   5.910   6.182
13764TIP3    H241250   5.754   5.803   6.123
13765TIP3   OH241251   7.723   5.139   2.087
13765TIP3    H141252   7.658   5.075   2.116
13765TIP3    H241253   7.803   5.115   2.134
13766TIP3   OH241254   0.241   5.185   0.660
13766TIP3    H141255   0.149   5.203   0.681
13766TIP3    H241256   0.290   5.249   0.712
13767TIP3   OH241257   6.800   6.390   5.222
13767TIP3    H141258   6.880   6.430   5.187
13767TIP3    H241259   6.752   6.462   5.262
13768TIP3   OH241260   7.656   1.848   4.907
13768TIP3    H141261   7.673   1.834   5.000
13768TIP3    H241262   7.598   1.924   4.904
13769TIP3   OH241263   1.294   6.386   1.203
13769TIP3    H141264   1.210   6.407   1.242
13769TIP3    H241265   1.327   6.312   1.255
13770TIP3   OH241266   5.006   3.637   0.396
13770TIP3    H141267   5.091   3.606   0.429
13770TIP3    H241268   4.946   3.624   0.469
13771TIP3   OH241269   8.101   1.381   4.566
13771TIP3    H141270   8.048   1.310   4.530
13771TIP3    H241271   8.043   1.457   4.565
13772TIP3   OH241272   5.363   5.076   5.914
13772TIP3    H141273   5.382   4.985   5.889
13772TIP3    H241274   5.420   5.128   5.857
13773TIP3   OH241275   3.860   4.101   2.718
13773TIP3    H141276   3.949   4.067   2.707
13773TIP3    H241277   3.865   4.157   2.796
13774TIP3   OH241278   5.400   1.730   0.819
13774TIP3    H141279   5.434   1.641   0.811
13774TIP3    H241280   5.473   1.781   0.855
13775TIP3   OH241281   2.788   1.114   2.741
13775TIP3    H141282   2.813   1.135   2.831
13775TIP3    H241283   2.808   1.194   2.692
13776TIP3   OH241284   5.690   7.408   0.438
13776TIP3    H141285   5.779   7.375   0.422
13776TIP3    H241286   5.635   7.357   0.380
13777TIP3   OH241287   0.879   5.263   4.506
13777TIP3    H141288   0.969   5.232   4.519
13777TIP3    H241289   0.853   5.228   4.420
13778TIP3   OH241290   2.173   1.264   0.694
13778TIP3    H141291   2.210   1.352   0.700
13778TIP3    H241292   2.131   1.261   0.608
13779TIP3   OH241293   7.720   2.368   2.726
13779TIP3    H141294   7.681   2.412   2.802
13779TIP3    H241295   7.665   2.291   2.712
13780TIP3   OH241296   7.122   1.474   4.792
13780TIP3    H141297   7.104   1.419   4.715
13780TIP3    H241298   7.121   1.412   4.866
13781TIP3   OH241299   7.893   2.579   0.586
13781TIP3    H141300   7.949   2.501   0.592
13781TIP3    H241301   7.838   2.575   0.664
13782TIP3   OH241302   3.065   6.682   4.168
13782TIP3    H141303   3.028   6.771   4.166
13782TIP3    H241304   2.990   6.625   4.150
13783TIP3   OH241305   8.160   3.936   0.603
13783TIP3    H141306   8.201   4.022   0.615
13783TIP3    H241307   8.139   3.906   0.692
13784TIP3   OH241308   1.936   4.335   2.279
13784TIP3    H141309   1.864   4.361   2.221
13784TIP3    H241310   1.930   4.240   2.283
13785TIP3   OH241311   5.564   1.347   3.975
13785TIP3    H141312   5.521   1.429   3.999
13785TIP3    H241313   5.526   1.325   3.890
13786TIP3   OH241314   3.808   2.036   1.835
13786TIP3    H141315   3.714   2.019   1.839
13786TIP3    H241316   3.820   2.093   1.759
13787TIP3   OH241317   3.784   2.706   0.528
13787TIP3    H141318   3.720   2.655   0.479
13787TIP3    H241319   3.745   2.793   0.537
13788TIP3   OH241320   8.136   1.854   1.878
13788TIP3    H141321   8.131   1.896   1.964
13788TIP3    H241322   8.221   1.880   1.844
13789TIP3   OH241323   7.313   3.703   1.072
13789TIP3    H141324   7.220   3.697   1.094
13789TIP3    H241325   7.325   3.638   1.002
13790TIP3   OH241326   7.876   7.157   1.470
13790TIP3    H141327   7.883   7.140   1.564
13790TIP3    H241328   7.851   7.073   1.432
13791TIP3   OH241329   7.969   5.363   4.252
13791TIP3    H141330   7.930   5.295   4.196
13791TIP3    H241331   7.897   5.393   4.307
13792TIP3   OH241332   5.724   2.179   2.338
13792TIP3    H141333   5.671   2.108   2.301
13792TIP3    H241334   5.746   2.150   2.426
13793TIP3   OH241335   0.043   2.176   4.711
13793TIP3    H141336   0.119   2.121   4.730
13793TIP3    H241337   0.002   2.136   4.635
13794TIP3   OH241338   2.517   4.921   3.362
13794TIP3    H141339   2.513   4.983   3.435
13794TIP3    H241340   2.584   4.858   3.388
13795TIP3   OH241341   1.219   0.744   3.564
13795TIP3    H141342   1.227   0.804   3.639
13795TIP3    H241343   1.159   0.676   3.594
13796TIP3   OH241344   2.843   6.554   6.392
13796TIP3    H141345   2.751   6.579   6.381
13796TIP3    H241346   2.891   6.635   6.376
13797TIP3   OH241347   7.144   1.159   1.504
13797TIP3    H141348   7.131   1.197   1.417
13797TIP3    H241349   7.101   1.221   1.563
13798TIP3   OH241350   3.684   7.064   5.848
13798TIP3    H141351   3.610   7.060   5.787
13798TIP3    H241352   3.710   6.973   5.860
13799TIP3   OH241353   4.937   5.933   3.606
13799TIP3    H141354   4.873   5.863   3.621
13799TIP3    H241355   5.010   5.890   3.562
13800TIP3   OH241356   6.522   1.561   6.553
13800TIP3    H141357   6.490   1.644   6.517
13800TIP3    H241358   6.569   1.520   6.480
13801TIP3   OH241359   0.405   0.785   4.851
13801TIP3    H141360   0.407   0.859   4.791
13801TIP3    H241361   0.464   0.720   4.812
13802TIP3   OH241362   1.175   0.480   5.672
13802TIP3    H141363   1.253   0.499   5.725
13802TIP3    H241364   1.168   0.384   5.674
13803TIP3   OH241365   3.616   6.629   3.820
13803TIP3    H141366   3.555   6.562   3.788
13803TIP3    H241367   3.701   6.584   3.821
13804TIP3   OH241368   3.306   0.903   0.427
13804TIP3    H141369   3.215   0.917   0.402
13804TIP3    H241370   3.355   0.904   0.344
13805TIP3   OH241371   1.844   6.115   5.079
13805TIP3    H141372   1.898   6.040   5.053
13805TIP3    H241373   1.901   6.191   5.069
13806TIP3   OH241374   5.431   0.276   0.124
13806TIP3    H141375   5.392   0.260   0.210
13806TIP3    H241376   5.356   0.277   0.064
13807TIP3   OH241377   6.145   3.773   1.235
13807TIP3    H141378   6.080   3.771   1.304
13807TIP3    H241379   6.102   3.820   1.163
13808TIP3   OH241380   7.016   5.628   2.663
13808TIP3    H141381   7.040   5.719   2.685
13808TIP3    H241382   7.069   5.575   2.723
13809TIP3   OH241383   4.971   5.761   0.044
13809TIP3    H141384   4.926   5.740  -0.038
13809TIP3    H241385   4.901   5.777   0.107
13810TIP3   OH241386   7.886   4.059   5.449
13810TIP3    H141387   7.963   4.080   5.396
13810TIP3    H241388   7.909   3.975   5.491
13811TIP3   OH241389   6.416   6.068   3.824
13811TIP3    H141390   6.475   6.120   3.770
13811TIP3    H241391   6.382   6.128   3.890
13812TIP3   OH241392   7.228   5.577   0.595
13812TIP3    H141393   7.166   5.510   0.623
13812TIP3    H241394   7.310   5.530   0.581
13813TIP3   OH241395   4.746   0.449   0.608
13813TIP3    H141396   4.811   0.466   0.676
13813TIP3    H241397   4.767   0.512   0.539
13814TIP3   OH241398   7.527   1.850   6.516
13814TIP3    H141399   7.495   1.855   6.425
13814TIP3    H241400   7.473   1.783   6.557
13815TIP3   OH241401   2.088   4.532   5.016
13815TIP3    H141402   2.167   4.478   5.017
13815TIP3    H241403   2.042   4.505   4.937
13816TIP3   OH241404   6.552   6.829   3.778
13816TIP3    H141405   6.499   6.894   3.823
13816TIP3    H241406   6.491   6.780   3.725
13817TIP3   OH241407   3.103   2.471   4.173
13817TIP3    H141408   3.028   2.416   4.149
13817TIP3    H241409   3.083   2.502   4.261
13818TIP3   OH241410   5.337   4.512   0.182
13818TIP3    H141411   5.256   4.497   0.134
13818TIP3    H241412   5.378   4.587   0.138
13819TIP3   OH241413   7.705   3.338   4.854
13819TIP3    H141414   7.641   3.296   4.912
13819TIP3    H241415   7.785   3.342   4.906
13820TIP3   OH241416   4.590   1.097   4.897
13820TIP3    H141417   4.583   1.076   4.803
13820TIP3    H241418   4.500   1.100   4.927
13821TIP3   OH241419   3.174   1.997   6.499
13821TIP3    H141420   3.189   1.903   6.495
13821TIP3    H241421   3.085   2.007   6.533
13822TIP3   OH241422   0.103   4.115   6.524
13822TIP3    H141423   0.015   4.086   6.550
13822TIP3    H241424   0.138   4.157   6.602
13823TIP3   OH241425   5.067   1.806   5.873
13823TIP3    H141426   5.110   1.882   5.833
13823TIP3    H241427   5.113   1.792   5.955
13824TIP3   OH241428   2.168   0.469   2.981
13824TIP3    H141429   2.108   0.427   3.043
13824TIP3    H241430   2.199   0.547   3.027
13825TIP3   OH241431   3.975   0.001   2.951
13825TIP3    H141432   4.032   0.038   3.019
13825TIP3    H241433   3.887   0.005   2.988
13826TIP3   OH241434   2.396   5.706   0.231
13826TIP3    H141435   2.410   5.612   0.225
13826TIP3    H241436   2.353   5.729   0.148
13827TIP3   OH241437   1.318   2.812   5.332
13827TIP3    H141438   1.279   2.750   5.270
13827TIP3    H241439   1.250   2.878   5.346
13828TIP3   OH241440   5.281   1.110   4.440
13828TIP3    H141441   5.278   1.112   4.345
13828TIP3    H241442   5.256   1.198   4.467
13829TIP3   OH241443   1.502   5.450   1.745
13829TIP3    H141444   1.558   5.448   1.822
13829TIP3    H241445   1.555   5.496   1.679
13830TIP3   OH241446   7.569   3.435   5.447
13830TIP3    H141447   7.579   3.528   5.425
13830TIP3    H241448   7.562   3.433   5.542
13831TIP3   OH241449   1.747   5.377   4.821
13831TIP3    H141450   1.793   5.461   4.828
13831TIP3    H241451   1.705   5.365   4.906
13832TIP3   OH241452   3.362   4.038   5.745
13832TIP3    H141453   3.435   4.004   5.797
13832TIP3    H241454   3.396   4.119   5.706
13833TIP3   OH241455   7.682   6.332   3.758
13833TIP3    H141456   7.673   6.353   3.665
13833TIP3    H241457   7.692   6.236   3.760
13834TIP3   OH241458   3.218   3.389   2.793
13834TIP3    H141459   3.128   3.400   2.762
13834TIP3    H241460   3.249   3.479   2.807
13835TIP3   OH241461   7.936   7.790   2.312
13835TIP3    H141462   8.010   7.764   2.258
13835TIP3    H241463   7.973   7.801   2.400
13836TIP3   OH241464   4.908   6.127   1.326
13836TIP3    H141465   4.941   6.039   1.344
13836TIP3    H241466   4.814   6.120   1.341
13837TIP3   OH241467   7.388   2.775   4.554
13837TIP3    H141468   7.458   2.722   4.515
13837TIP3    H241469   7.345   2.817   4.480
13838TIP3   OH241470   0.852   4.106   5.743
13838TIP3    H141471   0.943   4.121   5.718
13838TIP3    H241472   0.857   4.066   5.829
13839TIP3   OH241473   0.072   0.929   2.894
13839TIP3    H141474   0.013   1.002   2.912
13839TIP3    H241475   0.121   0.956   2.816
13840TIP3   OH241476   2.394   4.673   6.700
13840TIP3    H141477   2.321   4.651   6.642
13840TIP3    H241478   2.470   4.680   6.642
13841TIP3   OH241479   5.228   7.088   1.146
13841TIP3    H141480   5.293   7.137   1.096
13841TIP3    H241481   5.196   7.150   1.212
13842TIP3   OH241482   5.352   3.673   4.684
13842TIP3    H141483   5.396   3.702   4.605
13842TIP3    H241484   5.390   3.727   4.754
13843TIP3   OH241485   3.552   6.012   6.665
13843TIP3    H141486   3.478   5.970   6.620
13843TIP3    H241487   3.564   6.094   6.619
13844TIP3   OH241488   0.986   5.258   6.327
13844TIP3    H141489   0.930   5.189   6.362
13844TIP3    H241490   0.949   5.276   6.240
13845TIP3   OH241491   2.743   1.286   4.803
13845TIP3    H141492   2.741   1.190   4.804
13845TIP3    H241493   2.716   1.311   4.892
13846TIP3   OH241494   0.835   3.633   0.544
13846TIP3    H141495   0.831   3.691   0.468
13846TIP3    H241496   0.774   3.562   0.524
13847TIP3   OH241497   7.426   6.759   1.109
13847TIP3    H141498   7.464   6.828   1.163
13847TIP3    H241499   7.472   6.679   1.136
13848TIP3   OH241500   3.947   5.325   0.163
13848TIP3    H141501   3.977   5.290   0.247
13848TIP3    H241502   3.958   5.420   0.172
13849TIP3   OH241503   1.290   5.284   6.068
13849TIP3    H141504   1.208   5.302   6.022
13849TIP3    H241505   1.345   5.238   6.004
13850TIP3   OH241506   1.743   2.907   5.633
13850TIP3    H141507   1.828   2.937   5.601
13850TIP3    H241508   1.681   2.937   5.566
13851TIP3   OH241509   0.520   3.311   3.963
13851TIP3    H141510   0.594   3.289   4.019
13851TIP3    H241511   0.446   3.322   4.023
13852TIP3   OH241512   0.064   1.025   4.632
13852TIP3    H141513   0.026   0.944   4.597
13852TIP3    H241514   0.132   0.995   4.692
13853TIP3   OH241515   1.473   6.260   4.527
13853TIP3    H141516   1.524   6.303   4.458
13853TIP3    H241517   1.495   6.167   4.519
13854TIP3   OH241518   7.531   4.353   2.253
13854TIP3    H141519   7.445   4.351   2.210
13854TIP3    H241520   7.523   4.422   2.318
13855TIP3   OH241521   7.944   3.690   0.479
13855TIP3    H141522   7.864   3.702   0.429
13855TIP3    H241523   7.927   3.733   0.563
13856TIP3   OH241524   5.338   6.035   2.404
13856TIP3    H141525   5.263   6.046   2.462
13856TIP3    H241526   5.300   6.015   2.319
13857TIP3   OH241527   5.491   3.148   3.584
13857TIP3    H141528   5.413   3.195   3.613
13857TIP3    H241529   5.482   3.140   3.489
13858TIP3   OH241530   0.896   4.625   0.989
13858TIP3    H141531   0.874   4.563   1.059
13858TIP3    H241532   0.900   4.710   1.032
13859TIP3   OH241533   7.805   3.725   3.683
13859TIP3    H141534   7.782   3.656   3.620
13859TIP3    H241535   7.798   3.806   3.634
13860TIP3   OH241536   2.632   1.965   2.230
13860TIP3    H141537   2.559   1.979   2.290
13860TIP3    H241538   2.667   1.879   2.255
13861TIP3   OH241539   6.388   0.210   2.062
13861TIP3    H141540   6.295   0.224   2.081
13861TIP3    H241541   6.415   0.143   2.125
13862TIP3   OH241542   6.669   6.819   0.301
13862TIP3    H141543   6.666   6.723   0.307
13862TIP3    H241544   6.665   6.837   0.207
13863TIP3   OH241545   8.032   4.349   2.062
13863TIP3    H141546   8.035   4.372   1.969
13863TIP3    H241547   7.997   4.260   2.063
13864TIP3   OH241548   1.011   5.389   0.049
13864TIP3    H141549   1.000   5.388  -0.046
13864TIP3    H241550   1.026   5.298   0.073
13865TIP3   OH241551   4.060   3.673   5.639
13865TIP3    H141552   4.008   3.753   5.638
13865TIP3    H241553   3.996   3.603   5.654
13866TIP3   OH241554   1.293   6.166   2.593
13866TIP3    H141555   1.267   6.258   2.597
13866TIP3    H241556   1.255   6.126   2.671
13867TIP3   OH241557   0.686   3.357   0.605
13867TIP3    H141558   0.779   3.368   0.588
13867TIP3    H241559   0.682   3.331   0.697
13868TIP3   OH241560   3.037   5.253   3.231
13868TIP3    H141561   3.072   5.333   3.269
13868TIP3    H241562   2.949   5.277   3.200
13869TIP3   OH241563   0.296   1.183   5.001
13869TIP3    H141564   0.343   1.255   4.956
13869TIP3    H241565   0.349   1.166   5.079
13870TIP3   OH241566   7.757   3.654   2.369
13870TIP3    H141567   7.807   3.575   2.346
13870TIP3    H241568   7.823   3.716   2.400
13871TIP3   OH241569   4.186   5.354   5.025
13871TIP3    H141570   4.194   5.349   4.930
13871TIP3    H241571   4.256   5.298   5.058
13872TIP3   OH241572   6.805   6.016   1.786
13872TIP3    H141573   6.805   5.945   1.721
13872TIP3    H241574   6.813   5.971   1.870
13873TIP3   OH241575   7.605   5.927   0.930
13873TIP3    H141576   7.630   6.016   0.907
13873TIP3    H241577   7.684   5.889   0.969
13874TIP3   OH241578   1.367   1.595   1.359
13874TIP3    H141579   1.298   1.660   1.371
13874TIP3    H241580   1.324   1.521   1.318
13875TIP3   OH241581   7.519   6.490   3.458
13875TIP3    H141582   7.504   6.585   3.461
13875TIP3    H241583   7.613   6.482   3.438
13876TIP3   OH241584   4.582   6.734   3.544
13876TIP3    H141585   4.644   6.779   3.487
13876TIP3    H241586   4.553   6.801   3.605
13877TIP3   OH241587   2.828   7.232   6.035
13877TIP3    H141588   2.801   7.322   6.021
13877TIP3    H241589   2.861   7.230   6.125
13878TIP3   OH241590   5.309   3.200   1.076
13878TIP3    H141591   5.259   3.252   1.014
13878TIP3    H241592   5.385   3.168   1.027
13879TIP3   OH241593   4.558   0.852   3.233
13879TIP3    H141594   4.548   0.795   3.310
13879TIP3    H241595   4.649   0.837   3.205
13880TIP3   OH241596   2.485   0.393   4.427
13880TIP3    H141597   2.532   0.431   4.500
13880TIP3    H241598   2.450   0.310   4.461
13881TIP3   OH241599   8.209   3.587   1.105
13881TIP3    H141600   8.130   3.618   1.060
13881TIP3    H241601   8.201   3.492   1.106
13882TIP3   OH241602   5.458   7.423   5.331
13882TIP3    H141603   5.366   7.408   5.352
13882TIP3    H241604   5.473   7.515   5.353
13883TIP3   OH241605   1.227   7.240   3.784
13883TIP3    H141606   1.320   7.259   3.771
13883TIP3    H241607   1.183   7.298   3.722
13884TIP3   OH241608   2.942   6.073   3.991
13884TIP3    H141609   2.962   6.114   3.907
13884TIP3    H241610   2.847   6.064   3.991
13885TIP3   OH241611   5.918   5.092   5.279
13885TIP3    H141612   5.961   5.045   5.351
13885TIP3    H241613   5.954   5.180   5.284
13886TIP3   OH241614   3.233   2.415   2.955
13886TIP3    H141615   3.224   2.443   3.046
13886TIP3    H241616   3.212   2.493   2.904
13887TIP3   OH241617   6.147   1.056   2.953
13887TIP3    H141618   6.062   1.048   2.998
13887TIP3    H241619   6.176   0.965   2.941
13888TIP3   OH241620   5.140   6.203   5.206
13888TIP3    H141621   5.072   6.246   5.154
13888TIP3    H241622   5.204   6.175   5.141
13889TIP3   OH241623   7.281   4.589   2.952
13889TIP3    H141624   7.231   4.515   2.917
13889TIP3    H241625   7.254   4.663   2.898
13890TIP3   OH241626   5.748   4.024   4.675
13890TIP3    H141627   5.661   4.063   4.663
13890TIP3    H241628   5.779   4.060   4.758
13891TIP3   OH241629   3.015   0.490   1.580
13891TIP3    H141630   2.931   0.512   1.620
13891TIP3    H241631   2.992   0.438   1.503
13892TIP3   OH241632   0.197   6.117   4.802
13892TIP3    H141633   0.267   6.090   4.861
13892TIP3    H241634   0.241   6.138   4.720
13893TIP3   OH241635   2.845   4.632   3.190
13893TIP3    H141636   2.833   4.689   3.267
13893TIP3    H241637   2.759   4.596   3.173
13894TIP3   OH241638   5.968   1.330   1.444
13894TIP3    H141639   5.879   1.362   1.430
13894TIP3    H241640   5.976   1.254   1.387
13895TIP3   OH241641   5.367   4.350   5.016
13895TIP3    H141642   5.322   4.377   5.095
13895TIP3    H241643   5.359   4.425   4.957
13896TIP3   OH241644   3.443   0.307   0.103
13896TIP3    H141645   3.380   0.289   0.173
13896TIP3    H241646   3.445   0.402   0.096
13897TIP3   OH241647   2.960   7.479   3.929
13897TIP3    H141648   2.962   7.416   4.001
13897TIP3    H241649   3.003   7.434   3.856
13898TIP3   OH241650   4.408   5.299   4.165
13898TIP3    H141651   4.349   5.232   4.198
13898TIP3    H241652   4.380   5.315   4.075
13899TIP3   OH241653   6.016   6.199   5.680
13899TIP3    H141654   5.995   6.124   5.626
13899TIP3    H241655   5.942   6.259   5.669
13900TIP3   OH241656   8.225   3.923   2.398
13900TIP3    H141657   8.236   3.841   2.445
13900TIP3    H241658   8.153   3.967   2.443
13901TIP3   OH241659   3.457   3.891   6.122
13901TIP3    H141660   3.525   3.894   6.054
13901TIP3    H241661   3.374   3.897   6.073
13902TIP3   OH241662   7.004   3.864  -0.005
13902TIP3    H141663   6.918   3.862  -0.048
13902TIP3    H241664   6.985   3.842   0.087
13903TIP3   OH241665   0.649   4.149   4.714
13903TIP3    H141666   0.596   4.222   4.746
13903TIP3    H241667   0.646   4.084   4.785
13904TIP3   OH241668   4.351   2.539   2.514
13904TIP3    H141669   4.386   2.548   2.602
13904TIP3    H241670   4.274   2.482   2.524
13905TIP3   OH241671   3.259   1.255   2.272
13905TIP3    H141672   3.208   1.264   2.192
13905TIP3    H241673   3.266   1.161   2.286
13906TIP3   OH241674   5.149   5.293   6.153
13906TIP3    H141675   5.101   5.354   6.209
13906TIP3    H241676   5.093   5.216   6.147
13907TIP3   OH241677   5.133   4.442   0.544
13907TIP3    H141678   5.150   4.348   0.535
13907TIP3    H241679   5.215   4.478   0.576
13908TIP3   OH241680   1.786   1.644   5.003
13908TIP3    H141681   1.861   1.596   5.039
13908TIP3    H241682   1.734   1.667   5.080
13909TIP3   OH241683   3.431   3.739   0.846
13909TIP3    H141684   3.466   3.700   0.926
13909TIP3    H241685   3.505   3.743   0.786
13910TIP3   OH241686   0.643   4.582   1.792
13910TIP3    H141687   0.609   4.636   1.863
13910TIP3    H241688   0.722   4.627   1.764
13911TIP3   OH241689   1.215   2.968   1.093
13911TIP3    H141690   1.204   3.059   1.120
13911TIP3    H241691   1.248   2.973   1.004
13912TIP3   OH241692   0.762   6.749   4.025
13912TIP3    H141693   0.674   6.786   4.018
13912TIP3    H241694   0.760   6.699   4.107
13913TIP3   OH241695   7.107   3.553   0.906
13913TIP3    H141696   7.060   3.635   0.889
13913TIP3    H241697   7.093   3.501   0.828
13914TIP3   OH241698   2.761   0.753   0.697
13914TIP3    H141699   2.835   0.812   0.705
13914TIP3    H241700   2.716   0.781   0.617
13915TIP3   OH241701   7.422   4.420   6.536
13915TIP3    H141702   7.478   4.492   6.507
13915TIP3    H241703   7.376   4.392   6.457
13916TIP3   OH241704   3.641   0.703   2.723
13916TIP3    H141705   3.680   0.618   2.707
13916TIP3    H241706   3.707   0.752   2.773
13917TIP3   OH241707   2.716   7.119   2.113
13917TIP3    H141708   2.706   7.214   2.115
13917TIP3    H241709   2.763   7.098   2.194
13918TIP3   OH241710   1.225   7.225   6.047
13918TIP3    H141711   1.240   7.318   6.063
13918TIP3    H241712   1.131   7.218   6.033
13919TIP3   OH241713   2.000   7.756   4.338
13919TIP3    H141714   2.039   7.739   4.253
13919TIP3    H241715   1.926   7.695   4.343
13920TIP3   OH241716   7.965   5.329   0.435
13920TIP3    H141717   7.882   5.359   0.472
13920TIP3    H241718   7.971   5.374   0.350
13921TIP3   OH241719   5.037   3.073   4.238
13921TIP3    H141720   4.945   3.067   4.210
13921TIP3    H241721   5.043   3.158   4.281
13922TIP3   OH241722   0.170   3.529   4.221
13922TIP3    H141723   0.191   3.605   4.274
13922TIP3    H241724   0.199   3.552   4.132
13923TIP3   OH241725   1.061   6.646   3.811
13923TIP3    H141726   1.094   6.558   3.833
13923TIP3    H241727   0.984   6.629   3.758
13924TIP3   OH241728   2.737   2.452   4.520
13924TIP3    H141729   2.659   2.506   4.507
13924TIP3    H241730   2.803   2.490   4.462
13925TIP3   OH241731   6.355   0.954   6.615
13925TIP3    H141732   6.388   0.894   6.682
13925TIP3    H241733   6.356   0.903   6.534
13926TIP3   OH241734   2.516   4.210   4.477
13926TIP3    H141735   2.550   4.124   4.450
13926TIP3    H241736   2.487   4.250   4.395
13927TIP3   OH241737   4.849   3.235   4.621
13927TIP3    H141738   4.828   3.250   4.713
13927TIP3    H241739   4.786   3.291   4.573
13928TIP3   OH241740   5.347   3.422   1.234
13928TIP3    H141741   5.322   3.353   1.173
13928TIP3    H241742   5.393   3.376   1.304
13929TIP3   OH241743   0.875   6.193   5.236
13929TIP3    H141744   0.825   6.120   5.201
13929TIP3    H241745   0.838   6.270   5.193
13930TIP3   OH241746   1.839   7.088   4.778
13930TIP3    H141747   1.833   7.153   4.708
13930TIP3    H241748   1.806   7.007   4.738
13931TIP3   OH241749   5.264   0.456   6.023
13931TIP3    H141750   5.222   0.509   5.955
13931TIP3    H241751   5.346   0.426   5.982
13932TIP3   OH241752   0.194   4.266   4.165
13932TIP3    H141753   0.272   4.276   4.110
13932TIP3    H241754   0.156   4.354   4.169
13933TIP3   OH241755   1.474   5.008   3.194
13933TIP3    H141756   1.564   5.002   3.226
13933TIP3    H241757   1.466   5.098   3.163
13934TIP3   OH241758   1.901   7.448   1.750
13934TIP3    H141759   1.823   7.441   1.696
13934TIP3    H241760   1.974   7.450   1.688
13935TIP3   OH241761   1.412   2.002   2.597
13935TIP3    H141762   1.383   2.077   2.546
13935TIP3    H241763   1.507   1.998   2.584
13936TIP3   OH241764   2.535   6.511   1.832
13936TIP3    H141765   2.481   6.581   1.870
13936TIP3    H241766   2.615   6.555   1.805
13937TIP3   OH241767   6.937   2.514   6.221
13937TIP3    H141768   6.921   2.603   6.188
13937TIP3    H241769   7.008   2.525   6.285
13938TIP3   OH241770   2.691   4.127   4.251
13938TIP3    H141771   2.732   4.138   4.165
13938TIP3    H241772   2.631   4.053   4.239
13939TIP3   OH241773   2.162   7.214   4.275
13939TIP3    H141774   2.247   7.254   4.295
13939TIP3    H241775   2.162   7.132   4.323
13940TIP3   OH241776   2.559   0.497   5.572
13940TIP3    H141777   2.611   0.576   5.557
13940TIP3    H241778   2.615   0.425   5.542
13941TIP3   OH241779   2.667   7.469   6.713
13941TIP3    H141780   2.714   7.392   6.744
13941TIP3    H241781   2.691   7.476   6.620
13942TIP3   OH241782   3.986   2.804   5.733
13942TIP3    H141783   4.015   2.893   5.711
13942TIP3    H241784   4.052   2.772   5.795
13943TIP3   OH241785   0.237   6.319   0.006
13943TIP3    H141786   0.279   6.287   0.086
13943TIP3    H241787   0.249   6.414   0.010
13944TIP3   OH241788   3.255   6.792   6.568
13944TIP3    H141789   3.239   6.703   6.537
13944TIP3    H241790   3.282   6.841   6.490
13945TIP3   OH241791   1.530   3.315   2.062
13945TIP3    H141792   1.553   3.339   2.152
13945TIP3    H241793   1.527   3.399   2.015
13946TIP3   OH241794   5.978   0.825   2.161
13946TIP3    H141795   5.914   0.812   2.231
13946TIP3    H241796   5.947   0.903   2.114
13947TIP3   OH241797   5.207   1.987   0.253
13947TIP3    H141798   5.115   1.984   0.225
13947TIP3    H241799   5.217   1.912   0.312
13948TIP3   OH241800   7.493   7.748   1.514
13948TIP3    H141801   7.541   7.830   1.504
13948TIP3    H241802   7.433   7.763   1.587
13949TIP3   OH241803   3.353   1.694   3.174
13949TIP3    H141804   3.403   1.767   3.210
13949TIP3    H241805   3.414   1.620   3.173
13950TIP3   OH241806   7.561   3.342   3.774
13950TIP3    H141807   7.617   3.417   3.753
13950TIP3    H241808   7.599   3.269   3.726
13951TIP3   OH241809   4.023   1.164   3.751
13951TIP3    H141810   4.095   1.122   3.797
13951TIP3    H241811   4.058   1.184   3.664
13952TIP3   OH241812   3.310   5.169   5.591
13952TIP3    H141813   3.329   5.247   5.540
13952TIP3    H241814   3.391   5.117   5.586
13953TIP3   OH241815   7.761   7.777   3.392
13953TIP3    H141816   7.822   7.840   3.354
13953TIP3    H241817   7.705   7.750   3.319
13954TIP3   OH241818   3.650   3.265   4.195
13954TIP3    H141819   3.610   3.294   4.114
13954TIP3    H241820   3.590   3.293   4.264
13955TIP3   OH241821   3.663   3.191   6.422
13955TIP3    H141822   3.737   3.135   6.446
13955TIP3    H241823   3.596   3.131   6.390
13956TIP3   OH241824   5.114   4.997   6.006
13956TIP3    H141825   5.177   5.050   5.958
13956TIP3    H241826   5.050   4.969   5.941
13957TIP3   OH241827   6.836   2.666   6.616
13957TIP3    H141828   6.838   2.680   6.710
13957TIP3    H241829   6.780   2.589   6.603
13958TIP3   OH241830   7.555   5.480   4.665
13958TIP3    H141831   7.614   5.518   4.730
13958TIP3    H241832   7.562   5.538   4.589
13959TIP3   OH241833   8.050   1.655   2.128
13959TIP3    H141834   8.112   1.724   2.104
13959TIP3    H241835   8.081   1.622   2.212
13960TIP3   OH241836   7.645   7.302   1.389
13960TIP3    H141837   7.714   7.244   1.422
13960TIP3    H241838   7.641   7.372   1.454
13961TIP3   OH241839   5.053   7.710   2.726
13961TIP3    H141840   5.025   7.638   2.782
13961TIP3    H241841   5.020   7.789   2.769
13962TIP3   OH241842   8.003   3.893   6.788
13962TIP3    H141843   7.942   3.965   6.805
13962TIP3    H241844   7.947   3.821   6.760
13963TIP3   OH241845   1.143   1.656   0.646
13963TIP3    H141846   1.168   1.741   0.611
13963TIP3    H241847   1.167   1.593   0.578
13964TIP3   OH241848   0.776   5.800   5.302
13964TIP3    H141849   0.754   5.707   5.299
13964TIP3    H241850   0.871   5.803   5.290
13965TIP3   OH241851   5.108   4.925   5.118
13965TIP3    H141852   5.075   4.876   5.042
13965TIP3    H241853   5.127   5.012   5.084
13966TIP3   OH241854   7.320   4.898   6.108
13966TIP3    H141855   7.291   4.823   6.160
13966TIP3    H241856   7.414   4.901   6.120
13967TIP3   OH241857   6.787   7.601   1.791
13967TIP3    H141858   6.863   7.646   1.828
13967TIP3    H241859   6.794   7.512   1.824
13968TIP3   OH241860   5.478   6.449   4.627
13968TIP3    H141861   5.560   6.456   4.578
13968TIP3    H241862   5.410   6.455   4.560
13969TIP3   OH241863   0.604   3.874   6.529
13969TIP3    H141864   0.696   3.895   6.543
13969TIP3    H241865   0.605   3.796   6.474
13970TIP3   OH241866   6.391   3.838   2.065
13970TIP3    H141867   6.432   3.873   1.986
13970TIP3    H241868   6.462   3.834   2.129
13971TIP3   OH241869   0.879   2.030   1.274
13971TIP3    H141870   0.819   2.088   1.226
13971TIP3    H241871   0.923   2.088   1.336
13972TIP3   OH241872   0.922   3.315   0.462
13972TIP3    H141873   0.977   3.236   0.461
13972TIP3    H241874   0.900   3.330   0.370
13973TIP3   OH241875   3.316   0.630   2.273
13973TIP3    H141876   3.327   0.644   2.179
13973TIP3    H241877   3.229   0.592   2.281
13974TIP3   OH241878   0.903   2.835   0.299
13974TIP3    H141879   0.827   2.893   0.292
13974TIP3    H241880   0.910   2.794   0.213
13975TIP3   OH241881   1.698   5.884   2.710
13975TIP3    H141882   1.668   5.869   2.621
13975TIP3    H241883   1.669   5.807   2.759
13976TIP3   OH241884   4.033   0.518   4.996
13976TIP3    H141885   4.039   0.520   4.900
13976TIP3    H241886   4.122   0.535   5.026
13977TIP3   OH241887   6.019   1.156   2.355
13977TIP3    H141888   6.107   1.167   2.318
13977TIP3    H241889   6.024   1.076   2.407
13978TIP3   OH241890   4.423   4.396   6.143
13978TIP3    H141891   4.426   4.492   6.142
13978TIP3    H241892   4.332   4.376   6.167
13979TIP3   OH241893   1.486   0.991   5.884
13979TIP3    H141894   1.496   1.079   5.848
13979TIP3    H241895   1.399   0.990   5.922
13980TIP3   OH241896   7.651   7.449   1.843
13980TIP3    H141897   7.578   7.400   1.880
13980TIP3    H241898   7.707   7.470   1.917
13981TIP3   OH241899   6.218   1.712   3.673
13981TIP3    H141900   6.299   1.694   3.627
13981TIP3    H241901   6.237   1.693   3.765
13982TIP3   OH241902   2.905   5.565   2.319
13982TIP3    H141903   2.856   5.623   2.260
13982TIP3    H241904   2.944   5.499   2.262
13983TIP3   OH241905   1.706   0.886   5.723
13983TIP3    H141906   1.710   0.859   5.815
13983TIP3    H241907   1.612   0.889   5.703
13984TIP3   OH241908   7.243   5.200   0.648
13984TIP3    H141909   7.158   5.156   0.637
13984TIP3    H241910   7.237   5.241   0.734
13985TIP3   OH241911   4.860   4.668   5.939
13985TIP3    H141912   4.821   4.581   5.930
13985TIP3    H241913   4.847   4.710   5.854
13986TIP3   OH241914   7.568   4.784   4.695
13986TIP3    H141915   7.618   4.813   4.619
13986TIP3    H241916   7.635   4.753   4.756
13987TIP3   OH241917   8.195   3.154   0.556
13987TIP3    H141918   8.223   3.177   0.468
13987TIP3    H241919   8.236   3.069   0.573
13988TIP3   OH241920   0.059   1.108   1.868
13988TIP3    H141921   0.055   1.013   1.865
13988TIP3    H241922  -0.023   1.137   1.830
13989TIP3   OH241923   3.868   5.572   6.313
13989TIP3    H141924   3.854   5.545   6.223
13989TIP3    H241925   3.794   5.629   6.334
13990TIP3   OH241926   1.392   2.725   3.766
13990TIP3    H141927   1.393   2.629   3.766
13990TIP3    H241928   1.361   2.749   3.678
13991TIP3   OH241929   7.803   0.345   3.101
13991TIP3    H141930   7.890   0.305   3.111
13991TIP3    H241931   7.821   0.428   3.056
13992TIP3   OH241932   1.211   2.555   5.837
13992TIP3    H141933   1.245   2.630   5.786
13992TIP3    H241934   1.289   2.504   5.857
13993TIP3   OH241935   6.676   6.316   0.170
13993TIP3    H141936   6.678   6.408   0.142
13993TIP3    H241937   6.583   6.295   0.174
13994TIP3   OH241938   3.363   7.174   0.727
13994TIP3    H141939   3.309   7.200   0.801
13994TIP3    H241940   3.417   7.251   0.709
13995TIP3   OH241941   0.573   5.371   5.643
13995TIP3    H141942   0.480   5.372   5.667
13995TIP3    H241943   0.581   5.437   5.574
13996TIP3   OH241944   1.527   6.096   2.440
13996TIP3    H141945   1.471   6.130   2.510
13996TIP3    H241946   1.568   6.174   2.402
13997TIP3   OH241947   4.654   5.751   3.272
13997TIP3    H141948   4.569   5.708   3.267
13997TIP3    H241949   4.635   5.843   3.256
13998TIP3   OH241950   2.386   2.758   2.741
13998TIP3    H141951   2.396   2.725   2.652
13998TIP3    H241952   2.366   2.680   2.793
13999TIP3   OH241953   7.581   6.190   6.204
13999TIP3    H141954   7.488   6.209   6.216
13999TIP3    H241955   7.584   6.122   6.137
14000TIP3   OH241956   3.236   0.630   1.664
14000TIP3    H141957   3.176   0.559   1.645
14000TIP3    H241958   3.320   0.588   1.680
14001TIP3   OH241959   2.711   6.668   3.148
14001TIP3    H141960   2.787   6.612   3.163
14001TIP3    H241961   2.731   6.714   3.066
14002TIP3   OH241962   2.812   2.471   2.526
14002TIP3    H141963   2.901   2.474   2.560
14002TIP3    H241964   2.756   2.471   2.604
14003TIP3   OH241965   0.551   0.322   0.280
14003TIP3    H141966   0.588   0.399   0.235
14003TIP3    H241967   0.490   0.359   0.343
14004TIP3   OH241968   8.213   5.409   5.227
14004TIP3    H141969   8.119   5.426   5.227
14004TIP3    H241970   8.242   5.435   5.314
14005TIP3   OH241971   5.159   4.378   3.677
14005TIP3    H141972   5.171   4.470   3.702
14005TIP3    H241973   5.240   4.335   3.704
14006TIP3   OH241974   2.478   7.229   5.359
14006TIP3    H141975   2.557   7.195   5.403
14006TIP3    H241976   2.426   7.267   5.429
14007TIP3   OH241977   5.222   5.574   5.710
14007TIP3    H141978   5.176   5.567   5.626
14007TIP3    H241979   5.297   5.515   5.702
14008TIP3   OH241980   0.938   4.669   0.350
14008TIP3    H141981   1.022   4.698   0.315
14008TIP3    H241982   0.956   4.584   0.389
14009TIP3   OH241983   5.222   3.549   2.636
14009TIP3    H141984   5.225   3.616   2.704
14009TIP3    H241985   5.305   3.557   2.590
14010TIP3   OH241986   1.704   5.902   1.850
14010TIP3    H141987   1.637   5.881   1.916
14010TIP3    H241988   1.787   5.883   1.893
14011TIP3   OH241989   1.755   7.606   3.512
14011TIP3    H141990   1.841   7.649   3.506
14011TIP3    H241991   1.710   7.651   3.583
14012TIP3   OH241992   5.436   4.626   5.169
14012TIP3    H141993   5.521   4.664   5.149
14012TIP3    H241994   5.385   4.638   5.089
14013TIP3   OH241995   1.833   4.789   2.331
14013TIP3    H141996   1.869   4.768   2.417
14013TIP3    H241997   1.827   4.885   2.330
14014TIP3   OH241998   1.935   5.302   0.756
14014TIP3    H141999   1.997   5.375   0.758
14014TIP3    H242000   1.850   5.343   0.737
14015TIP3   OH242001   6.088   6.099   4.499
14015TIP3    H142002   6.104   6.158   4.573
14015TIP3    H242003   6.137   6.138   4.426
14016TIP3   OH242004   1.580   6.202   6.496
14016TIP3    H142005   1.664   6.248   6.497
14016TIP3    H242006   1.517   6.266   6.528
14017TIP3   OH242007   1.010   7.729   2.107
14017TIP3    H142008   1.065   7.656   2.137
14017TIP3    H242009   0.934   7.687   2.067
14018TIP3   OH242010   2.683   6.827   2.167
14018TIP3    H142011   2.696   6.922   2.164
14018TIP3    H242012   2.593   6.816   2.200
14019TIP3   OH242013   1.132   3.943   0.925
14019TIP3    H142014   1.094   3.860   0.897
14019TIP3    H242015   1.061   4.006   0.918
14020TIP3   OH242016   7.605   2.432   0.039
14020TIP3    H142017   7.537   2.373   0.069
14020TIP3    H242018   7.675   2.374   0.007
14021TIP3   OH242019   6.894   3.857   2.221
14021TIP3    H142020   6.905   3.936   2.274
14021TIP3    H242021   6.924   3.882   2.134
14022TIP3   OH242022   2.721   1.167   1.901
14022TIP3    H142023   2.647   1.220   1.931
14022TIP3    H242024   2.752   1.123   1.980
14023TIP3   OH242025   5.989   0.622   6.195
14023TIP3    H142026   5.963   0.582   6.113
14023TIP3    H242027   6.079   0.591   6.210
14024TIP3   OH242028   5.535   4.805   0.743
14024TIP3    H142029   5.483   4.757   0.807
14024TIP3    H242030   5.483   4.883   0.724
14025TIP3   OH242031   5.642   3.837   0.411
14025TIP3    H142032   5.660   3.878   0.495
14025TIP3    H242033   5.658   3.906   0.347
14026TIP3   OH242034   3.822   6.587   2.260
14026TIP3    H142035   3.909   6.624   2.245
14026TIP3    H242036   3.797   6.550   2.176
14027TIP3   OH242037   4.936   7.244   1.053
14027TIP3    H142038   4.969   7.266   1.140
14027TIP3    H242039   4.991   7.293   0.993
14028TIP3   OH242040   3.216   1.710   5.438
14028TIP3    H142041   3.171   1.795   5.443
14028TIP3    H242042   3.157   1.649   5.483
14029TIP3   OH242043   3.619   3.789   3.293
14029TIP3    H142044   3.659   3.865   3.336
14029TIP3    H242045   3.691   3.727   3.282
14030TIP3   OH242046   1.951   0.700   1.778
14030TIP3    H142047   1.944   0.677   1.685
14030TIP3    H242048   2.014   0.637   1.813
14031TIP3   OH242049   6.144   2.516   2.873
14031TIP3    H142050   6.075   2.582   2.869
14031TIP3    H242051   6.105   2.438   2.833
14032TIP3   OH242052   1.530   4.506   1.674
14032TIP3    H142053   1.518   4.416   1.645
14032TIP3    H242054   1.544   4.556   1.594
14033TIP3   OH242055   7.576   2.182   5.388
14033TIP3    H142056   7.594   2.120   5.459
14033TIP3    H242057   7.504   2.236   5.421
14034TIP3   OH242058   0.428   5.587   6.408
14034TIP3    H142059   0.434   5.492   6.403
14034TIP3    H242060   0.450   5.608   6.499
14035TIP3   OH242061   3.451   1.708   4.980
14035TIP3    H142062   3.460   1.766   4.904
14035TIP3    H242063   3.425   1.767   5.051
14036TIP3   OH242064   7.125   7.360   2.627
14036TIP3    H142065   7.054   7.347   2.691
14036TIP3    H242066   7.199   7.389   2.680
14037TIP3   OH242067   5.209   2.270   3.601
14037TIP3    H142068   5.171   2.297   3.685
14037TIP3    H242069   5.139   2.288   3.537
14038TIP3   OH242070   2.108   0.477   1.860
14038TIP3    H142071   2.144   0.426   1.788
14038TIP3    H242072   2.021   0.441   1.873
14039TIP3   OH242073   7.493   1.221   0.507
14039TIP3    H142074   7.516   1.129   0.491
14039TIP3    H242075   7.557   1.251   0.571
14040TIP3   OH242076   0.044   2.672   6.359
14040TIP3    H142077   0.046   2.622   6.278
14040TIP3    H242078  -0.015   2.623   6.416
14041TIP3   OH242079   1.289   3.806   5.237
14041TIP3    H142080   1.320   3.722   5.272
14041TIP3    H242081   1.216   3.830   5.294
14042TIP3   OH242082   0.535   2.891   5.882
14042TIP3    H142083   0.533   2.970   5.937
14042TIP3    H242084   0.448   2.854   5.891
14043TIP3   OH242085   8.096   7.172   4.893
14043TIP3    H142086   8.057   7.257   4.874
14043TIP3    H242087   8.110   7.132   4.807
14044TIP3   OH242088   7.943   5.919   0.105
14044TIP3    H142089   8.006   5.931   0.034
14044TIP3    H242090   7.897   6.002   0.111
14045TIP3   OH242091   6.382   5.831   0.982
14045TIP3    H142092   6.367   5.925   0.991
14045TIP3    H242093   6.375   5.797   1.071
14046TIP3   OH242094   1.239   7.371   6.678
14046TIP3    H142095   1.149   7.356   6.707
14046TIP3    H242096   1.286   7.392   6.758
14047TIP3   OH242097   6.440   7.247   4.626
14047TIP3    H142098   6.460   7.163   4.585
14047TIP3    H242099   6.525   7.293   4.628
14048TIP3   OH242100   0.756   0.532   2.140
14048TIP3    H142101   0.702   0.454   2.131
14048TIP3    H242102   0.800   0.540   2.055
14049TIP3   OH242103   5.527   1.043   2.950
14049TIP3    H142104   5.565   1.053   3.037
14049TIP3    H242105   5.439   1.080   2.957
14050TIP3   OH242106   1.222   4.199   3.763
14050TIP3    H142107   1.160   4.266   3.736
14050TIP3    H242108   1.245   4.222   3.853
14051TIP3   OH242109   6.624   4.180   2.973
14051TIP3    H142110   6.702   4.126   2.959
14051TIP3    H242111   6.582   4.184   2.887
14052TIP3   OH242112   0.922   5.390   4.784
14052TIP3    H142113   1.016   5.386   4.805
14052TIP3    H242114   0.919   5.385   4.688
14053TIP3   OH242115   1.296   7.545   1.200
14053TIP3    H142116   1.385   7.520   1.177
14053TIP3    H242117   1.245   7.529   1.121
14054TIP3   OH242118   6.581   0.052   3.290
14054TIP3    H142119   6.569  -0.025   3.235
14054TIP3    H242120   6.641   0.023   3.359
14055TIP3   OH242121   3.616   4.097   2.017
14055TIP3    H142122   3.640   4.149   2.094
14055TIP3    H242123   3.646   4.008   2.038
14056TIP3   OH242124   2.475   0.150   5.168
14056TIP3    H142125   2.563   0.127   5.199
14056TIP3    H242126   2.416   0.106   5.229
14057TIP3   OH242127   6.425   4.402   3.122
14057TIP3    H142128   6.405   4.322   3.073
14057TIP3    H242129   6.515   4.423   3.099
14058TIP3   OH242130   4.477   5.606   4.564
14058TIP3    H142131   4.427   5.572   4.490
14058TIP3    H242132   4.437   5.690   4.583
14059TIP3   OH242133   1.068   6.240   5.438
14059TIP3    H142134   1.011   6.196   5.501
14059TIP3    H242135   1.029   6.220   5.353
14060TIP3   OH242136   6.754   2.551   4.522
14060TIP3    H142137   6.800   2.579   4.443
14060TIP3    H242138   6.823   2.519   4.580
14061TIP3   OH242139   1.092   4.186   5.646
14061TIP3    H142140   1.097   4.243   5.569
14061TIP3    H242141   1.183   4.175   5.674
14062TIP3   OH242142   8.044   5.056   3.626
14062TIP3    H142143   8.030   4.975   3.576
14062TIP3    H242144   8.139   5.063   3.633
14063TIP3   OH242145   7.798   4.817   3.131
14063TIP3    H142146   7.703   4.827   3.120
14063TIP3    H242147   7.829   4.906   3.150
14064TIP3   OH242148   6.869   1.856   0.260
14064TIP3    H142149   6.844   1.948   0.247
14064TIP3    H242150   6.824   1.831   0.341
14065TIP3   OH242151   6.567   4.010   6.377
14065TIP3    H142152   6.489   4.065   6.373
14065TIP3    H242153   6.560   3.963   6.460
14066TIP3   OH242154   3.601   3.178   1.647
14066TIP3    H142155   3.530   3.127   1.688
14066TIP3    H242156   3.642   3.225   1.720
14067TIP3   OH242157   5.519   0.828   0.974
14067TIP3    H142158   5.475   0.777   0.905
14067TIP3    H242159   5.582   0.767   1.013
14068TIP3   OH242160   8.011   4.676   0.305
14068TIP3    H142161   8.082   4.707   0.362
14068TIP3    H242162   8.009   4.740   0.234
14069TIP3   OH242163   3.296   3.555   2.309
14069TIP3    H142164   3.234   3.602   2.365
14069TIP3    H242165   3.255   3.555   2.223
14070TIP3   OH242166   2.560   1.846   4.282
14070TIP3    H142167   2.487   1.897   4.248
14070TIP3    H242168   2.559   1.862   4.377
14071TIP3   OH242169   2.731   4.691   2.910
14071TIP3    H142170   2.702   4.738   2.831
14071TIP3    H242171   2.716   4.754   2.981
14072TIP3   OH242172   4.144   6.512   5.532
14072TIP3    H142173   4.194   6.569   5.474
14072TIP3    H242174   4.133   6.431   5.483
14073TIP3   OH242175   0.992   2.160   1.495
14073TIP3    H142176   0.952   2.232   1.543
14073TIP3    H242177   1.065   2.132   1.550
14074TIP3   OH242178   8.199   7.163   6.227
14074TIP3    H142179   8.258   7.166   6.152
14074TIP3    H242180   8.117   7.129   6.192
14075TIP3   OH242181   7.873   1.876   1.870
14075TIP3    H142182   7.881   1.967   1.841
14075TIP3    H242183   7.964   1.846   1.881
14076TIP3   OH242184   3.010   7.758   3.916
14076TIP3    H142185   2.988   7.665   3.926
14076TIP3    H242186   3.074   7.776   3.986
14077TIP3   OH242187   4.526   6.414   1.305
14077TIP3    H142188   4.540   6.362   1.226
14077TIP3    H242189   4.599   6.475   1.307
14078TIP3   OH242190   5.796   1.720   4.432
14078TIP3    H142191   5.733   1.672   4.485
14078TIP3    H242192   5.756   1.723   4.345
14079TIP3   OH242193   4.952   1.179   3.289
14079TIP3    H142194   4.889   1.156   3.221
14079TIP3    H242195   4.986   1.264   3.262
14080TIP3   OH242196   7.337   3.858   3.369
14080TIP3    H142197   7.288   3.816   3.298
14080TIP3    H242198   7.383   3.931   3.326
14081TIP3   OH242199   4.932   1.565   6.372
14081TIP3    H142200   4.915   1.551   6.279
14081TIP3    H242201   4.847   1.589   6.409
14082TIP3   OH242202   1.090   3.073   0.372
14082TIP3    H142203   0.997   3.070   0.347
14082TIP3    H242204   1.117   2.981   0.377
14083TIP3   OH242205   3.165   5.264   3.488
14083TIP3    H142206   3.092   5.205   3.507
14083TIP3    H242207   3.136   5.349   3.521
14084TIP3   OH242208   5.995   1.459   6.343
14084TIP3    H142209   6.002   1.410   6.261
14084TIP3    H242210   5.985   1.392   6.410
14085TIP3   OH242211   2.948   5.842   4.319
14085TIP3    H142212   2.993   5.895   4.385
14085TIP3    H242213   2.856   5.865   4.328
14086TIP3   OH242214   0.992   7.506   0.099
14086TIP3    H142215   0.958   7.454   0.172
14086TIP3    H242216   1.087   7.511   0.115
14087TIP3   OH242217   0.730   1.070   4.870
14087TIP3    H142218   0.743   1.011   4.945
14087TIP3    H242219   0.735   1.158   4.908
14088TIP3   OH242220   5.724   1.239   4.421
14088TIP3    H142221   5.819   1.250   4.411
14088TIP3    H242222   5.715   1.176   4.493
14089TIP3   OH242223   7.125   0.089   6.734
14089TIP3    H142224   7.202   0.107   6.788
14089TIP3    H242225   7.152   0.016   6.678
14090TIP3   OH242226   5.809   6.636   1.084
14090TIP3    H142227   5.795   6.730   1.079
14090TIP3    H242228   5.757   6.608   1.159
14091TIP3   OH242229   4.058   3.276   5.528
14091TIP3    H142230   4.066   3.187   5.493
14091TIP3    H242231   4.126   3.281   5.595
14092TIP3   OH242232   0.997   4.826   1.881
14092TIP3    H142233   0.941   4.794   1.810
14092TIP3    H242234   1.062   4.881   1.836
14093TIP3   OH242235   0.122   2.927   0.633
14093TIP3    H142236   0.049   2.864   0.633
14093TIP3    H242237   0.131   2.952   0.725
14094TIP3   OH242238   3.001   7.444   0.750
14094TIP3    H142239   3.035   7.499   0.679
14094TIP3    H242240   2.945   7.380   0.706
14095TIP3   OH242241   2.349   0.259   1.966
14095TIP3    H142242   2.280   0.304   1.918
14095TIP3    H242243   2.314   0.172   1.983
14096TIP3   OH242244   6.779   5.967   5.314
14096TIP3    H142245   6.782   6.054   5.352
14096TIP3    H242246   6.848   5.918   5.360
14097TIP3   OH242247   6.557   3.046   5.069
14097TIP3    H142248   6.636   3.005   5.034
14097TIP3    H242249   6.488   3.023   5.007
14098TIP3   OH242250   1.219   6.715   4.237
14098TIP3    H142251   1.303   6.719   4.191
14098TIP3    H242252   1.175   6.796   4.213
14099TIP3   OH242253   4.647   4.560   1.750
14099TIP3    H142254   4.723   4.519   1.709
14099TIP3    H242255   4.624   4.502   1.823
14100TIP3   OH242256   0.931   4.234   4.319
14100TIP3    H142257   0.883   4.225   4.401
14100TIP3    H242258   0.978   4.151   4.310
14101TIP3   OH242259   2.814   1.155   3.026
14101TIP3    H142260   2.789   1.232   3.077
14101TIP3    H242261   2.730   1.114   3.004
14102TIP3   OH242262   5.041   5.074   2.478
14102TIP3    H142263   4.963   5.101   2.527
14102TIP3    H242264   5.011   5.004   2.420
14103TIP3   OH242265   1.675   4.060   5.415
14103TIP3    H142266   1.752   4.009   5.391
14103TIP3    H242267   1.661   4.042   5.508
14104TIP3   OH242268   6.224   4.570   3.238
14104TIP3    H142269   6.187   4.606   3.157
14104TIP3    H242270   6.301   4.521   3.210
14105TIP3   OH242271   0.912   7.057   0.912
14105TIP3    H142272   0.990   7.037   0.859
14105TIP3    H242273   0.846   6.996   0.880
14106TIP3   OH242274   3.248   2.089   1.611
14106TIP3    H142275   3.173   2.133   1.651
14106TIP3    H242276   3.311   2.159   1.595
14107TIP3   OH242277   6.240   7.226   4.062
14107TIP3    H142278   6.259   7.276   4.141
14107TIP3    H242279   6.155   7.258   4.033
14108TIP3   OH242280   1.898   0.124   5.565
14108TIP3    H142281   1.883   0.044   5.515
14108TIP3    H242282   1.890   0.195   5.501
14109TIP3   OH242283   1.788   7.655   2.480
14109TIP3    H142284   1.710   7.705   2.456
14109TIP3    H242285   1.797   7.590   2.410
14110TIP3   OH242286   4.418   3.492   6.338
14110TIP3    H142287   4.467   3.554   6.393
14110TIP3    H242288   4.327   3.500   6.368
14111TIP3   OH242289   1.858   7.531   3.817
14111TIP3    H142290   1.809   7.482   3.884
14111TIP3    H242291   1.790   7.575   3.766
14112TIP3   OH242292   1.788   5.818   2.093
14112TIP3    H142293   1.710   5.763   2.108
14112TIP3    H242294   1.845   5.800   2.168
14113TIP3   OH242295   7.587   2.963   3.820
14113TIP3    H142296   7.633   2.981   3.738
14113TIP3    H242297   7.624   2.880   3.851
14114TIP3   OH242298   1.651   4.337   6.739
14114TIP3    H142299   1.678   4.302   6.825
14114TIP3    H242300   1.688   4.425   6.737
14115TIP3   OH242301   5.439   5.094   2.308
14115TIP3    H142302   5.477   5.173   2.269
14115TIP3    H242303   5.401   5.047   2.235
14116TIP3   OH242304   5.462   7.259   0.043
14116TIP3    H142305   5.439   7.290  -0.045
14116TIP3    H242306   5.482   7.338   0.092
14117TIP3   OH242307   0.121   7.240   0.728
14117TIP3    H142308   0.062   7.180   0.774
14117TIP3    H242309   0.208   7.201   0.738
14118TIP3   OH242310   7.510   3.489   2.241
14118TIP3    H142311   7.544   3.551   2.305
14118TIP3    H242312   7.479   3.415   2.294
14119TIP3   OH242313   5.266   1.928   6.068
14119TIP3    H142314   5.338   1.937   6.130
14119TIP3    H242315   5.224   2.014   6.068
14120TIP3   OH242316   8.139   3.182   2.493
14120TIP3    H142317   8.143   3.143   2.405
14120TIP3    H242318   8.089   3.119   2.545
14121TIP3   OH242319   2.346   7.009   1.502
14121TIP3    H142320   2.415   6.965   1.553
14121TIP3    H242321   2.392   7.042   1.425
14122TIP3   OH242322   0.702   2.549   3.941
14122TIP3    H142323   0.735   2.635   3.965
14122TIP3    H242324   0.741   2.489   4.005
14123TIP3   OH242325   0.705   1.349   4.897
14123TIP3    H142326   0.769   1.369   4.965
14123TIP3    H242327   0.740   1.390   4.818
14124TIP3   OH242328   1.492   3.569   4.251
14124TIP3    H142329   1.475   3.610   4.166
14124TIP3    H242330   1.521   3.641   4.307
14125TIP3   OH242331   1.771   5.484   5.268
14125TIP3    H142332   1.833   5.541   5.223
14125TIP3    H242333   1.782   5.506   5.361
14126TIP3   OH242334   4.267   1.666   0.416
14126TIP3    H142335   4.216   1.702   0.344
14126TIP3    H242336   4.204   1.611   0.464
14127TIP3   OH242337   6.336   2.390   2.419
14127TIP3    H142338   6.420   2.346   2.405
14127TIP3    H242339   6.326   2.447   2.343
14128TIP3   OH242340   0.023   2.339   5.602
14128TIP3    H142341   0.040   2.376   5.688
14128TIP3    H242342  -0.028   2.406   5.556
14129TIP3   OH242343   3.663   5.975   5.647
14129TIP3    H142344   3.626   6.042   5.704
14129TIP3    H242345   3.741   6.015   5.610
14130TIP3   OH242346   7.604   1.150   6.001
14130TIP3    H142347   7.512   1.148   5.973
14130TIP3    H242348   7.610   1.226   6.058
14131TIP3   OH242349   6.030   7.132   1.016
14131TIP3    H142350   6.097   7.102   0.954
14131TIP3    H242351   5.958   7.161   0.960
14132TIP3   OH242352   2.243   0.604   5.282
14132TIP3    H142353   2.270   0.652   5.360
14132TIP3    H242354   2.206   0.672   5.225
14133TIP3   OH242355   3.757   5.368   3.702
14133TIP3    H142356   3.712   5.317   3.769
14133TIP3    H242357   3.788   5.446   3.748
14134TIP3   OH242358   4.172   6.254   1.908
14134TIP3    H142359   4.124   6.336   1.896
14134TIP3    H242360   4.259   6.271   1.870
14135TIP3   OH242361   4.778   0.844   0.948
14135TIP3    H142362   4.800   0.837   1.041
14135TIP3    H242363   4.841   0.908   0.913
14136TIP3   OH242364   5.780   1.455   5.897
14136TIP3    H142365   5.793   1.548   5.877
14136TIP3    H242366   5.713   1.426   5.835
14137TIP3   OH242367   1.261   4.299   2.349
14137TIP3    H142368   1.239   4.261   2.264
14137TIP3    H242369   1.355   4.284   2.359
14138TIP3   OH242370   1.443   5.745   3.961
14138TIP3    H142371   1.507   5.680   3.991
14138TIP3    H242372   1.369   5.692   3.930
14139TIP3   OH242373   1.732   0.381   0.850
14139TIP3    H142374   1.731   0.460   0.796
14139TIP3    H242375   1.723   0.412   0.940
14140TIP3   OH242376   4.379   4.545   4.733
14140TIP3    H142377   4.368   4.512   4.822
14140TIP3    H242378   4.388   4.640   4.744
14141TIP3   OH242379   1.549   4.261   3.165
14141TIP3    H142380   1.549   4.256   3.260
14141TIP3    H242381   1.473   4.210   3.137
14142TIP3   OH242382   2.913   4.943   2.258
14142TIP3    H142383   2.926   4.857   2.217
14142TIP3    H242384   3.000   4.967   2.290
14143TIP3   OH242385   6.403   1.920   2.985
14143TIP3    H142386   6.436   2.005   2.958
14143TIP3    H242387   6.481   1.867   2.999
14144TIP3   OH242388   3.019   0.084   2.062
14144TIP3    H142389   2.933   0.078   2.020
14144TIP3    H242390   3.000   0.085   2.156
14145TIP3   OH242391   0.211   1.334   1.803
14145TIP3    H142392   0.148   1.288   1.858
14145TIP3    H242393   0.196   1.427   1.821
14146TIP3   OH242394   7.626   6.934   1.644
14146TIP3    H142395   7.697   6.998   1.638
14146TIP3    H242396   7.588   6.948   1.731
14147TIP3   OH242397   4.209   5.081   2.776
14147TIP3    H142398   4.249   5.085   2.689
14147TIP3    H242399   4.116   5.065   2.760
14148TIP3   OH242400   5.739   2.141   0.482
14148TIP3    H142401   5.816   2.195   0.468
14148TIP3    H242402   5.740   2.120   0.576
14149TIP3   OH242403   8.122   2.063   0.504
14149TIP3    H142404   8.121   1.978   0.460
14149TIP3    H242405   8.111   2.042   0.596
14150TIP3   OH242406   1.101   5.382   6.725
14150TIP3    H142407   1.181   5.432   6.740
14150TIP3    H242408   1.128   5.308   6.672
14151TIP3   OH242409   2.099   3.462   2.325
14151TIP3    H142410   2.045   3.383   2.333
14151TIP3    H242411   2.088   3.506   2.409
14152TIP3   OH242412   1.676   3.419   0.817
14152TIP3    H142413   1.700   3.417   0.724
14152TIP3    H242414   1.624   3.499   0.827
14153TIP3   OH242415   5.195   5.996   2.746
14153TIP3    H142416   5.110   5.952   2.754
14153TIP3    H242417   5.257   5.935   2.786
14154TIP3   OH242418   3.433   3.259   0.867
14154TIP3    H142419   3.385   3.260   0.949
14154TIP3    H242420   3.374   3.298   0.803
14155TIP3   OH242421   6.830   5.146   2.907
14155TIP3    H142422   6.806   5.209   2.839
14155TIP3    H242423   6.923   5.129   2.892
14156TIP3   OH242424   1.178   0.250   0.826
14156TIP3    H142425   1.133   0.331   0.847
14156TIP3    H242426   1.110   0.184   0.823
14157TIP3   OH242427   5.844   7.110   1.679
14157TIP3    H142428   5.845   7.016   1.661
14157TIP3    H242429   5.798   7.149   1.605
14158TIP3   OH242430   7.026   3.187   3.495
14158TIP3    H142431   7.101   3.149   3.542
14158TIP3    H242432   7.047   3.174   3.403
14159TIP3   OH242433   3.396   6.168   6.245
14159TIP3    H142434   3.442   6.251   6.229
14159TIP3    H242435   3.347   6.183   6.326
14160TIP3   OH242436   0.185   5.501   6.216
14160TIP3    H142437   0.145   5.482   6.302
14160TIP3    H242438   0.179   5.596   6.207
14161TIP3   OH242439   4.798   6.361   5.786
14161TIP3    H142440   4.780   6.278   5.743
14161TIP3    H242441   4.723   6.377   5.843
14162TIP3   OH242442   3.913   6.986   3.729
14162TIP3    H142443   3.842   6.940   3.685
14162TIP3    H242444   3.923   6.941   3.813
14163TIP3   OH242445   7.958   4.026   4.965
14163TIP3    H142446   7.886   4.058   5.019
14163TIP3    H242447   7.982   3.942   5.004
14164TIP3   OH242448   5.299   2.829   3.764
14164TIP3    H142449   5.220   2.814   3.817
14164TIP3    H242450   5.350   2.891   3.815
14165TIP3   OH242451   1.688   6.814   3.776
14165TIP3    H142452   1.687   6.906   3.804
14165TIP3    H242453   1.615   6.807   3.715
14166TIP3   OH242454   1.349   1.493   1.809
14166TIP3    H142455   1.376   1.512   1.898
14166TIP3    H242456   1.358   1.577   1.763
14167TIP3   OH242457   6.129   2.962   5.973
14167TIP3    H142458   6.037   2.952   5.949
14167TIP3    H242459   6.175   2.898   5.918
14168TIP3   OH242460   4.225   3.859   5.046
14168TIP3    H142461   4.312   3.898   5.036
14168TIP3    H242462   4.212   3.852   5.140
14169TIP3   OH242463   7.759   7.456   3.335
14169TIP3    H142464   7.694   7.399   3.294
14169TIP3    H242465   7.730   7.544   3.313
14170TIP3   OH242466   2.954   7.627   1.096
14170TIP3    H142467   2.935   7.546   1.048
14170TIP3    H242468   3.003   7.681   1.034
14171TIP3   OH242469   6.859   0.807   1.392
14171TIP3    H142470   6.777   0.813   1.343
14171TIP3    H242471   6.848   0.867   1.465
14172TIP3   OH242472   1.823   1.310   2.915
14172TIP3    H142473   1.874   1.376   2.868
14172TIP3    H242474   1.831   1.231   2.860
14173TIP3   OH242475   0.282   0.606   2.953
14173TIP3    H142476   0.261   0.642   3.039
14173TIP3    H242477   0.337   0.673   2.912
14174TIP3   OH242478   2.095   4.777   6.132
14174TIP3    H142479   2.083   4.684   6.117
14174TIP3    H242480   2.138   4.809   6.053
14175TIP3   OH242481   4.376   0.883   0.579
14175TIP3    H142482   4.414   0.801   0.609
14175TIP3    H242483   4.327   0.861   0.500
14176TIP3   OH242484   3.704   3.825   2.715
14176TIP3    H142485   3.709   3.916   2.745
14176TIP3    H242486   3.681   3.832   2.622
14177TIP3   OH242487   1.156   5.905   0.574
14177TIP3    H142488   1.124   5.826   0.617
14177TIP3    H242489   1.240   5.923   0.616
14178TIP3   OH242490   3.972   2.638   1.085
14178TIP3    H142491   3.955   2.651   1.179
14178TIP3    H242492   4.012   2.719   1.056
14179TIP3   OH242493   0.407   7.661   0.603
14179TIP3    H142494   0.384   7.637   0.513
14179TIP3    H242495   0.440   7.580   0.642
14180TIP3   OH242496   2.883   2.435   3.124
14180TIP3    H142497   2.921   2.350   3.144
14180TIP3    H242498   2.858   2.471   3.209
14181TIP3   OH242499   2.630   5.852   3.478
14181TIP3    H142500   2.704   5.801   3.511
14181TIP3    H242501   2.667   5.907   3.409
14182TIP3   OH242502   0.173   1.550   4.324
14182TIP3    H142503   0.225   1.475   4.353
14182TIP3    H242504   0.083   1.518   4.321
14183TIP3   OH242505   0.420   7.164   2.484
14183TIP3    H142506   0.454   7.079   2.458
14183TIP3    H242507   0.436   7.169   2.578
14184TIP3   OH242508   4.285   3.381   6.110
14184TIP3    H142509   4.343   3.412   6.180
14184TIP3    H242510   4.261   3.292   6.137
14185TIP3   OH242511   0.349   3.649   1.605
14185TIP3    H142512   0.411   3.717   1.632
14185TIP3    H242513   0.295   3.633   1.682
14186TIP3   OH242514   7.115   0.997   6.688
14186TIP3    H142515   7.107   0.997   6.592
14186TIP3    H242516   7.185   1.060   6.706
14187TIP3   OH242517   1.188   7.193   1.490
14187TIP3    H142518   1.141   7.277   1.496
14187TIP3    H242519   1.279   7.215   1.511
14188TIP3   OH242520   3.432   4.301   1.962
14188TIP3    H142521   3.356   4.246   1.981
14188TIP3    H242522   3.507   4.249   1.988
14189TIP3   OH242523   2.797   1.347   2.524
14189TIP3    H142524   2.873   1.362   2.469
14189TIP3    H242525   2.731   1.409   2.491
14190TIP3   OH242526   2.626   0.574   6.119
14190TIP3    H142527   2.611   0.528   6.036
14190TIP3    H242528   2.716   0.553   6.142
14191TIP3   OH242529   4.020   1.314   0.721
14191TIP3    H142530   3.999   1.290   0.811
14191TIP3    H242531   4.113   1.291   0.711
14192TIP3   OH242532   5.102   6.225   1.801
14192TIP3    H142533   5.045   6.209   1.726
14192TIP3    H242534   5.050   6.282   1.858
14193TIP3   OH242535   3.250   4.758   6.304
14193TIP3    H142536   3.219   4.848   6.296
14193TIP3    H242537   3.253   4.742   6.398
14194TIP3   OH242538   0.707   1.448   2.555
14194TIP3    H142539   0.617   1.424   2.577
14194TIP3    H242540   0.707   1.453   2.459
14195TIP3   OH242541   3.925   7.470   5.457
14195TIP3    H142542   3.956   7.391   5.501
14195TIP3    H242543   3.835   7.481   5.490
14196TIP3   OH242544   7.489   1.778   3.188
14196TIP3    H142545   7.453   1.854   3.143
14196TIP3    H242546   7.567   1.810   3.232
14197TIP3   OH242547   6.803   7.772   0.397
14197TIP3    H142548   6.824   7.695   0.345
14197TIP3    H242549   6.732   7.744   0.454
14198TIP3   OH242550   7.466   6.513   4.195
14198TIP3    H142551   7.543   6.465   4.165
14198TIP3    H242552   7.419   6.536   4.115
14199TIP3   OH242553   5.697   0.270   2.765
14199TIP3    H142554   5.646   0.254   2.845
14199TIP3    H242555   5.697   0.186   2.719
14200TIP3   OH242556   0.425   4.036   6.669
14200TIP3    H142557   0.428   4.109   6.607
14200TIP3    H242558   0.490   3.974   6.637
14201TIP3   OH242559   3.198   5.180   0.482
14201TIP3    H142560   3.105   5.180   0.456
14201TIP3    H242561   3.198   5.211   0.573
14202TIP3   OH242562   1.926   1.427   1.366
14202TIP3    H142563   1.903   1.335   1.374
14202TIP3    H242564   1.862   1.473   1.421
14203TIP3   OH242565   6.490   5.445   2.635
14203TIP3    H142566   6.426   5.497   2.684
14203TIP3    H242567   6.449   5.360   2.623
14204TIP3   OH242568   0.534   3.255   0.819
14204TIP3    H142569   0.464   3.266   0.754
14204TIP3    H242570   0.548   3.160   0.822
14205TIP3   OH242571   6.787   2.381   5.182
14205TIP3    H142572   6.874   2.367   5.143
14205TIP3    H242573   6.805   2.414   5.270
14206TIP3   OH242574   5.364   6.151   5.026
14206TIP3    H142575   5.407   6.223   4.980
14206TIP3    H242576   5.396   6.072   4.981
14207TIP3   OH242577   0.117   4.142   5.363
14207TIP3    H142578   0.139   4.115   5.274
14207TIP3    H242579   0.128   4.237   5.363
14208TIP3   OH242580   7.523   4.767   3.385
14208TIP3    H142581   7.524   4.737   3.294
14208TIP3    H242582   7.566   4.853   3.383
14209TIP3   OH242583   7.288   6.679   6.074
14209TIP3    H142584   7.290   6.589   6.041
14209TIP3    H242585   7.254   6.671   6.163
14210TIP3   OH242586   6.358   0.708   4.315
14210TIP3    H142587   6.316   0.677   4.395
14210TIP3    H242588   6.388   0.796   4.336
14211TIP3   OH242589   2.276   2.825   3.632
14211TIP3    H142590   2.313   2.788   3.712
14211TIP3    H242591   2.251   2.748   3.580
14212TIP3   OH242592   8.075   5.689   4.660
14212TIP3    H142593   8.125   5.736   4.728
14212TIP3    H242594   8.112   5.601   4.659
14213TIP3   OH242595   1.200   1.355   4.182
14213TIP3    H142596   1.213   1.301   4.103
14213TIP3    H242597   1.143   1.426   4.153
14214TIP3   OH242598   3.116   7.727   2.336
14214TIP3    H142599   3.197   7.778   2.332
14214TIP3    H242600   3.131   7.664   2.406
14215TIP3   OH242601   7.542   3.405   2.909
14215TIP3    H142602   7.631   3.384   2.938
14215TIP3    H242603   7.553   3.471   2.841
14216TIP3   OH242604   4.684   7.642   0.584
14216TIP3    H142605   4.691   7.549   0.563
14216TIP3    H242606   4.659   7.683   0.501
14217TIP3   OH242607   3.374   0.865   1.782
14217TIP3    H142608   3.299   0.836   1.730
14217TIP3    H242609   3.398   0.950   1.745
14218TIP3   OH242610   5.652   1.723   0.577
14218TIP3    H142611   5.645   1.761   0.665
14218TIP3    H242612   5.717   1.653   0.587
14219TIP3   OH242613   6.833   4.204   2.268
14219TIP3    H142614   6.857   4.164   2.184
14219TIP3    H242615   6.914   4.202   2.319
14220TIP3   OH242616   4.201   5.417   1.462
14220TIP3    H142617   4.130   5.353   1.465
14220TIP3    H242618   4.174   5.485   1.523
14221TIP3   OH242619   2.506   3.251   4.052
14221TIP3    H142620   2.426   3.289   4.015
14221TIP3    H242621   2.519   3.170   4.002
14222TIP3   OH242622   5.219   5.489   0.812
14222TIP3    H142623   5.309   5.521   0.822
14222TIP3    H242624   5.229   5.406   0.765
14223TIP3   OH242625   6.637   6.214   6.744
14223TIP3    H142626   6.570   6.272   6.781
14223TIP3    H242627   6.617   6.127   6.779
14224TIP3   OH242628   0.410   2.312   6.129
14224TIP3    H142629   0.388   2.392   6.081
14224TIP3    H242630   0.428   2.247   6.061
14225TIP3   OH242631   2.486   5.360   6.287
14225TIP3    H142632   2.403   5.333   6.248
14225TIP3    H242633   2.488   5.455   6.275
14226TIP3   OH242634   7.744   6.524   1.967
14226TIP3    H142635   7.653   6.504   1.985
14226TIP3    H242636   7.768   6.591   2.031
14227TIP3   OH242637   4.313   2.621   0.924
14227TIP3    H142638   4.253   2.548   0.930
14227TIP3    H242639   4.279   2.675   0.852
14228TIP3   OH242640   0.792   5.364   3.979
14228TIP3    H142641   0.875   5.375   4.025
14228TIP3    H242642   0.729   5.414   4.031
14229TIP3   OH242643   0.449   6.118   0.468
14229TIP3    H142644   0.510   6.061   0.421
14229TIP3    H242645   0.429   6.189   0.407
14230TIP3   OH242646   3.008   0.778   6.060
14230TIP3    H142647   2.935   0.837   6.042
14230TIP3    H242648   3.007   0.716   5.987
14231TIP3   OH242649   2.966   7.180   5.138
14231TIP3    H142650   2.924   7.262   5.164
14231TIP3    H242651   3.020   7.204   5.062
14232TIP3   OH242652   3.405   3.745   0.211
14232TIP3    H142653   3.415   3.759   0.306
14232TIP3    H242654   3.383   3.652   0.203
14233TIP3   OH242655   2.720   5.899   4.845
14233TIP3    H142656   2.658   5.919   4.916
14233TIP3    H242657   2.738   5.805   4.855
14234TIP3   OH242658   2.534   2.983   2.697
14234TIP3    H142659   2.498   2.928   2.766
14234TIP3    H242660   2.533   2.928   2.618
14235TIP3   OH242661   7.626   0.316   2.708
14235TIP3    H142662   7.713   0.276   2.714
14235TIP3    H242663   7.597   0.325   2.799
14236TIP3   OH242664   0.860   4.027   3.189
14236TIP3    H142665   0.838   4.034   3.096
14236TIP3    H242666   0.955   4.018   3.191
14237TIP3   OH242667   3.298   1.163   6.658
14237TIP3    H142668   3.274   1.078   6.620
14237TIP3    H242669   3.368   1.196   6.601
14238TIP3   OH242670   3.224   1.197   0.262
14238TIP3    H142671   3.280   1.149   0.200
14238TIP3    H242672   3.177   1.128   0.310
14239TIP3   OH242673   5.341   5.906   1.093
14239TIP3    H142674   5.353   6.000   1.087
14239TIP3    H242675   5.350   5.875   1.002
14240TIP3   OH242676   6.926   1.239   4.102
14240TIP3    H142677   6.997   1.257   4.164
14240TIP3    H242678   6.870   1.317   4.107
14241TIP3   OH242679   0.440   5.638   1.248
14241TIP3    H142680   0.373   5.599   1.305
14241TIP3    H242681   0.427   5.596   1.163
14242TIP3   OH242682   7.267   3.259   1.127
14242TIP3    H142683   7.178   3.293   1.142
14242TIP3    H242684   7.256   3.195   1.057
14243TIP3   OH242685   8.220   7.126   5.602
14243TIP3    H142686   8.126   7.138   5.588
14243TIP3    H242687   8.261   7.170   5.527
14244TIP3   OH242688   3.843   6.518   3.445
14244TIP3    H142689   3.848   6.518   3.541
14244TIP3    H242690   3.753   6.491   3.426
14245TIP3   OH242691   4.410   3.254   2.883
14245TIP3    H142692   4.426   3.201   2.962
14245TIP3    H242693   4.333   3.214   2.843
14246TIP3   OH242694   6.350   7.369   6.194
14246TIP3    H142695   6.392   7.430   6.254
14246TIP3    H242696   6.423   7.331   6.144
14247TIP3   OH242697   3.072   5.960   1.306
14247TIP3    H142698   3.025   6.042   1.325
14247TIP3    H242699   3.039   5.932   1.221
14248TIP3   OH242700   7.074   5.147   3.771
14248TIP3    H142701   7.037   5.083   3.833
14248TIP3    H242702   7.047   5.115   3.685
14249TIP3   OH242703   7.038   1.768   3.567
14249TIP3    H142704   6.975   1.700   3.590
14249TIP3    H242705   6.996   1.820   3.499
14250TIP3   OH242706   1.863   5.322   2.895
14250TIP3    H142707   1.926   5.389   2.869
14250TIP3    H242708   1.875   5.251   2.832
14251TIP3   OH242709   0.349   2.592   4.779
14251TIP3    H142710   0.310   2.628   4.859
14251TIP3    H242711   0.443   2.600   4.793
14252TIP3   OH242712   0.546   6.734   1.579
14252TIP3    H142713   0.485   6.806   1.595
14252TIP3    H242714   0.597   6.762   1.503
14253TIP3   OH242715   4.855   5.076   4.917
14253TIP3    H142716   4.909   5.148   4.887
14253TIP3    H242717   4.783   5.072   4.854
14254TIP3   OH242718   1.591   2.955   3.869
14254TIP3    H142719   1.550   2.884   3.818
14254TIP3    H242720   1.655   2.993   3.809
14255TIP3   OH242721   2.620   4.095   0.416
14255TIP3    H142722   2.613   4.190   0.419
14255TIP3    H242723   2.710   4.077   0.445
14256TIP3   OH242724   6.885   1.021   1.580
14256TIP3    H142725   6.933   1.095   1.616
14256TIP3    H242726   6.799   1.024   1.622
14257TIP3   OH242727   4.289   1.317   0.601
14257TIP3    H142728   4.261   1.313   0.510
14257TIP3    H242729   4.369   1.265   0.603
14258TIP3   OH242730   0.157   0.210   6.086
14258TIP3    H142731   0.098   0.265   6.137
14258TIP3    H242732   0.170   0.259   6.005
14259TIP3   OH242733   4.102   2.000   6.341
14259TIP3    H142734   4.186   1.956   6.329
14259TIP3    H242735   4.126   2.088   6.371
14260TIP3   OH242736   2.753   3.484   0.213
14260TIP3    H142737   2.733   3.578   0.211
14260TIP3    H242738   2.693   3.445   0.150
14261TIP3   OH242739   5.186   7.425   4.016
14261TIP3    H142740   5.267   7.461   3.979
14261TIP3    H242741   5.216   7.358   4.077
14262TIP3   OH242742   5.889   4.342   1.340
14262TIP3    H142743   5.844   4.281   1.282
14262TIP3    H242744   5.828   4.416   1.350
14263TIP3   OH242745   2.297   3.893   4.358
14263TIP3    H142746   2.273   3.801   4.343
14263TIP3    H242747   2.386   3.900   4.325
14264TIP3   OH242748   1.709   2.808   6.240
14264TIP3    H142749   1.712   2.786   6.333
14264TIP3    H242750   1.626   2.854   6.228
14265TIP3   OH242751   1.174   4.191   4.566
14265TIP3    H142752   1.121   4.258   4.609
14265TIP3    H242753   1.152   4.110   4.612
14266TIP3   OH242754   5.091   7.119   2.684
14266TIP3    H142755   5.185   7.103   2.674
14266TIP3    H242756   5.078   7.122   2.778
14267TIP3   OH242757   4.068   2.751   0.216
14267TIP3    H142758   4.109   2.732   0.132
14267TIP3    H242759   4.141   2.758   0.277
14268TIP3   OH242760   0.402   0.077   4.171
14268TIP3    H142761   0.355  -0.007   4.175
14268TIP3    H242762   0.445   0.076   4.085
14269TIP3   OH242763   0.216   2.664   3.933
14269TIP3    H142764   0.186   2.573   3.940
14269TIP3    H242765   0.307   2.657   3.905
14270TIP3   OH242766   3.981   5.324   3.107
14270TIP3    H142767   3.961   5.388   3.176
14270TIP3    H242768   3.923   5.349   3.035
14271TIP3   OH242769   6.647   0.987   2.550
14271TIP3    H142770   6.684   0.932   2.618
14271TIP3    H242771   6.703   0.973   2.474
14272TIP3   OH242772   5.942   7.615   1.545
14272TIP3    H142773   6.009   7.673   1.511
14272TIP3    H242774   5.914   7.563   1.470
14273TIP3   OH242775   2.542   4.359   4.077
14273TIP3    H142776   2.488   4.429   4.040
14273TIP3    H242777   2.482   4.311   4.135
14274TIP3   OH242778   2.479   0.754   4.259
14274TIP3    H142779   2.478   0.849   4.248
14274TIP3    H242780   2.493   0.741   4.352
14275TIP3   OH242781   3.364   2.177   6.476
14275TIP3    H142782   3.297   2.110   6.492
14275TIP3    H242783   3.440   2.128   6.446
14276TIP3   OH242784   0.592   7.714   2.045
14276TIP3    H142785   0.569   7.717   1.952
14276TIP3    H242786   0.560   7.797   2.080
14277TIP3   OH242787   0.470   4.826   6.296
14277TIP3    H142788   0.452   4.743   6.251
14277TIP3    H242789   0.526   4.875   6.236
14278TIP3   OH242790   0.127   5.049   4.304
14278TIP3    H142791   0.159   5.070   4.392
14278TIP3    H242792   0.129   4.953   4.300
14279TIP3   OH242793   6.353   4.578   5.492
14279TIP3    H142794   6.272   4.614   5.527
14279TIP3    H242795   6.422   4.616   5.547
14280TIP3   OH242796   5.987   4.906   1.180
14280TIP3    H142797   5.970   4.929   1.272
14280TIP3    H242798   5.901   4.881   1.146
14281TIP3   OH242799   4.405   4.136   1.427
14281TIP3    H142800   4.445   4.150   1.342
14281TIP3    H242801   4.460   4.185   1.488
14282TIP3   OH242802   0.925   6.956   0.458
14282TIP3    H142803   1.020   6.966   0.459
14282TIP3    H242804   0.894   7.019   0.523
14283TIP3   OH242805   7.906   5.113   0.839
14283TIP3    H142806   7.859   5.189   0.806
14283TIP3    H242807   7.965   5.148   0.906
14284TIP3   OH242808   6.137   7.472   2.502
14284TIP3    H142809   6.125   7.385   2.463
14284TIP3    H242810   6.157   7.529   2.428
14285TIP3   OH242811   2.965   0.125   2.339
14285TIP3    H142812   2.885   0.159   2.298
14285TIP3    H242813   2.937   0.096   2.425
14286TIP3   OH242814   5.948   5.376   1.640
14286TIP3    H142815   6.004   5.452   1.625
14286TIP3    H242816   5.881   5.406   1.702
14287TIP3   OH242817   7.149   1.932   5.917
14287TIP3    H142818   7.171   1.886   5.836
14287TIP3    H242819   7.233   1.943   5.962
14288TIP3   OH242820   3.623   1.775   5.657
14288TIP3    H142821   3.655   1.821   5.735
14288TIP3    H242822   3.556   1.833   5.620
14289TIP3   OH242823   7.915   7.414   6.767
14289TIP3    H142824   7.868   7.481   6.817
14289TIP3    H242825   7.950   7.461   6.691
14290TIP3   OH242826   0.441   3.197   1.489
14290TIP3    H142827   0.383   3.270   1.470
14290TIP3    H242828   0.399   3.122   1.445
14291TIP3   OH242829   2.755   2.853   4.156
14291TIP3    H142830   2.780   2.909   4.230
14291TIP3    H242831   2.688   2.794   4.191
14292TIP3   OH242832   5.461   1.813   4.378
14292TIP3    H142833   5.448   1.800   4.472
14292TIP3    H242834   5.389   1.765   4.337
14293TIP3   OH242835   4.083   3.191   1.793
14293TIP3    H142836   4.016   3.138   1.836
14293TIP3    H242837   4.158   3.132   1.784
14294TIP3   OH242838   2.431   2.167   4.547
14294TIP3    H142839   2.379   2.191   4.624
14294TIP3    H242840   2.474   2.249   4.521
14295TIP3   OH242841   5.069   6.664   6.349
14295TIP3    H142842   5.147   6.703   6.389
14295TIP3    H242843   5.075   6.687   6.257
14296TIP3   OH242844   3.989   0.280   3.953
14296TIP3    H142845   4.050   0.324   4.013
14296TIP3    H242846   3.932   0.230   4.011
14297TIP3   OH242847   6.929   1.746   4.835
14297TIP3    H142848   6.858   1.806   4.810
14297TIP3    H242849   6.947   1.696   4.755
14298TIP3   OH242850   5.070   7.731   2.456
14298TIP3    H142851   5.072   7.709   2.549
14298TIP3    H242852   5.148   7.688   2.419
14299TIP3   OH242853   7.553   3.065   3.183
14299TIP3    H142854   7.508   3.032   3.261
14299TIP3    H242855   7.608   3.136   3.217
14300TIP3   OH242856   6.129   6.689   4.284
14300TIP3    H142857   6.204   6.658   4.334
14300TIP3    H242858   6.130   6.784   4.297
14301TIP3   OH242859   7.236   2.186   6.174
14301TIP3    H142860   7.246   2.098   6.209
14301TIP3    H242861   7.300   2.239   6.222
14302TIP3   OH242862   7.567   3.295   1.252
14302TIP3    H142863   7.621   3.316   1.176
14302TIP3    H242864   7.479   3.284   1.216
14303TIP3   OH242865   7.691   0.527   1.302
14303TIP3    H142866   7.660   0.496   1.387
14303TIP3    H242867   7.628   0.594   1.276
14304TIP3   OH242868   6.844   7.481   3.309
14304TIP3    H142869   6.887   7.546   3.253
14304TIP3    H242870   6.876   7.397   3.276
14305TIP3   OH242871   6.524   3.851   1.509
14305TIP3    H142872   6.494   3.807   1.430
14305TIP3    H242873   6.447   3.858   1.564
14306TIP3   OH242874   6.613   3.008   1.330
14306TIP3    H142875   6.602   3.103   1.332
14306TIP3    H242876   6.688   2.991   1.387
14307TIP3   OH242877   1.521   0.974   3.617
14307TIP3    H142878   1.429   0.959   3.640
14307TIP3    H242879   1.523   1.062   3.580
14308TIP3   OH242880   7.794   7.664   5.597
14308TIP3    H142881   7.764   7.742   5.551
14308TIP3    H242882   7.773   7.681   5.689
14309TIP3   OH242883   6.689   3.798   1.969
14309TIP3    H142884   6.776   3.826   1.941
14309TIP3    H242885   6.629   3.861   1.929
14310TIP3   OH242886   4.130   2.159   4.095
14310TIP3    H142887   4.106   2.079   4.143
14310TIP3    H242888   4.181   2.210   4.157
14311TIP3   OH242889   6.636   3.201   6.098
14311TIP3    H142890   6.548   3.205   6.136
14311TIP3    H242891   6.622   3.213   6.004
14312TIP3   OH242892   4.583   4.876   0.730
14312TIP3    H142893   4.537   4.932   0.792
14312TIP3    H242894   4.644   4.825   0.784
14313TIP3   OH242895   4.925   7.547   0.764
14313TIP3    H142896   4.875   7.600   0.703
14313TIP3    H242897   4.892   7.458   0.750
14314TIP3   OH242898   1.575   1.074   6.151
14314TIP3    H142899   1.577   0.996   6.206
14314TIP3    H242900   1.546   1.042   6.065
14315TIP3   OH242901   7.937   6.878   5.481
14315TIP3    H142902   7.866   6.923   5.435
14315TIP3    H242903   7.909   6.787   5.485
14316TIP3   OH242904   3.072   0.043  -0.008
14316TIP3    H142905   2.979   0.053  -0.029
14316TIP3    H242906   3.074  -0.015   0.068
14317TIP3   OH242907   5.833   3.070   5.525
14317TIP3    H142908   5.794   3.086   5.611
14317TIP3    H242909   5.786   2.994   5.491
14318TIP3   OH242910   2.355   6.085   0.595
14318TIP3    H142911   2.437   6.126   0.567
14318TIP3    H242912   2.330   6.030   0.521
14319TIP3   OH242913   0.379   6.038   4.979
14319TIP3    H142914   0.408   5.964   5.032
14319TIP3    H242915   0.444   6.044   4.909
14320TIP3   OH242916   5.260   4.488   6.361
14320TIP3    H142917   5.321   4.555   6.391
14320TIP3    H242918   5.283   4.474   6.269
14321TIP3   OH242919   2.302   6.076   5.515
14321TIP3    H142920   2.344   6.017   5.452
14321TIP3    H242921   2.356   6.156   5.512
14322TIP3   OH242922   0.227   3.969   2.758
14322TIP3    H142923   0.159   3.903   2.750
14322TIP3    H242924   0.215   4.006   2.846
14323TIP3   OH242925   5.029   4.679   4.197
14323TIP3    H142926   4.943   4.692   4.237
14323TIP3    H242927   5.090   4.679   4.271
14324TIP3   OH242928   7.641   4.435   3.138
14324TIP3    H142929   7.735   4.441   3.125
14324TIP3    H242930   7.614   4.359   3.087
14325TIP3   OH242931   0.668   7.480   5.019
14325TIP3    H142932   0.740   7.474   4.957
14325TIP3    H242933   0.614   7.552   4.987
14326TIP3   OH242934   1.652   4.101   1.800
14326TIP3    H142935   1.679   4.060   1.882
14326TIP3    H242936   1.734   4.116   1.753
14327TIP3   OH242937   1.428   3.094   0.138
14327TIP3    H142938   1.441   3.172   0.084
14327TIP3    H242939   1.437   3.021   0.078
14328TIP3   OH242940   0.030   7.792   6.490
14328TIP3    H142941   0.022   7.718   6.431
14328TIP3    H242942   0.124   7.812   6.491
14329TIP3   OH242943   3.116   4.768   4.603
14329TIP3    H142944   3.166   4.810   4.533
14329TIP3    H242945   3.166   4.688   4.622
14330TIP3   OH242946   2.770   5.032   5.542
14330TIP3    H142947   2.791   4.954   5.491
14330TIP3    H242948   2.832   5.031   5.615
14331TIP3   OH242949   2.247   2.495   1.511
14331TIP3    H142950   2.214   2.489   1.601
14331TIP3    H242951   2.232   2.407   1.475
14332TIP3   OH242952   0.859   0.586   2.570
14332TIP3    H142953   0.887   0.663   2.618
14332TIP3    H242954   0.773   0.609   2.536
14333TIP3   OH242955   0.882   6.736   3.192
14333TIP3    H142956   0.953   6.671   3.192
14333TIP3    H242957   0.843   6.728   3.279
14334TIP3   OH242958   5.474   2.282   5.860
14334TIP3    H142959   5.492   2.196   5.897
14334TIP3    H242960   5.517   2.281   5.774
14335TIP3   OH242961   6.663   6.887   1.343
14335TIP3    H142962   6.741   6.905   1.290
14335TIP3    H242963   6.633   6.973   1.371
14336TIP3   OH242964   8.162   4.062   5.862
14336TIP3    H142965   8.241   4.033   5.816
14336TIP3    H242966   8.191   4.074   5.953
14337TIP3   OH242967   7.195   0.211   4.413
14337TIP3    H142968   7.197   0.221   4.318
14337TIP3    H242969   7.231   0.293   4.447
14338TIP3   OH242970   5.384   7.356   6.563
14338TIP3    H142971   5.464   7.387   6.605
14338TIP3    H242972   5.398   7.371   6.470
14339TIP3   OH242973   6.009   7.708   0.718
14339TIP3    H142974   5.976   7.659   0.793
14339TIP3    H242975   6.103   7.691   0.717
14340TIP3   OH242976   5.021   1.923   0.548
14340TIP3    H142977   4.995   1.848   0.494
14340TIP3    H242978   5.116   1.915   0.557
14341TIP3   OH242979   7.107   5.813   1.633
14341TIP3    H142980   7.013   5.808   1.652
14341TIP3    H242981   7.111   5.831   1.539
14342TIP3   OH242982   2.041   3.942   2.452
14342TIP3    H142983   1.949   3.920   2.467
14342TIP3    H242984   2.048   3.950   2.357
14343TIP3   OH242985   2.167   4.147   0.981
14343TIP3    H142986   2.231   4.162   1.050
14343TIP3    H242987   2.083   4.167   1.021
14344TIP3   OH242988   5.271   4.335   0.851
14344TIP3    H142989   5.313   4.334   0.937
14344TIP3    H242990   5.302   4.416   0.810
14345TIP3   OH242991   0.191   2.429   1.655
14345TIP3    H142992   0.259   2.458   1.716
14345TIP3    H242993   0.118   2.403   1.711
14346TIP3   OH242994   7.370   0.002   0.400
14346TIP3    H142995   7.450   0.047   0.373
14346TIP3    H242996   7.308   0.019   0.328
14347TIP3   OH242997   5.586   5.335   2.304
14347TIP3    H142998   5.596   5.310   2.396
14347TIP3    H242999   5.563   5.428   2.307
14348TIP3   OH243000   0.156   2.446   0.362
14348TIP3    H143001   0.136   2.515   0.299
14348TIP3    H243002   0.250   2.457   0.380
14349TIP3   OH243003   6.959   4.049   5.070
14349TIP3    H143004   7.027   4.116   5.076
14349TIP3    H243005   6.992   3.988   5.004
14350TIP3   OH243006   1.749   6.639   5.925
14350TIP3    H143007   1.691   6.567   5.951
14350TIP3    H243008   1.828   6.596   5.894
14351TIP3   OH243009   8.198   0.812   3.519
14351TIP3    H143010   8.289   0.833   3.497
14351TIP3    H243011   8.152   0.816   3.435
14352TIP3   OH243012   3.533   6.239   1.300
14352TIP3    H143013   3.591   6.296   1.351
14352TIP3    H243014   3.445   6.259   1.331
14353TIP3   OH243015   4.924   0.832   6.394
14353TIP3    H143016   4.898   0.742   6.416
14353TIP3    H243017   4.849   0.868   6.348
14354TIP3   OH243018   7.623   4.868   2.797
14354TIP3    H143019   7.613   4.794   2.856
14354TIP3    H243020   7.566   4.936   2.834
14355TIP3   OH243021   3.874   5.060   5.253
14355TIP3    H143022   3.791   5.016   5.276
14355TIP3    H243023   3.897   5.110   5.332
14356TIP3   OH243024   5.496   6.271   5.818
14356TIP3    H143025   5.484   6.273   5.913
14356TIP3    H243026   5.457   6.352   5.786
14357TIP3   OH243027   3.526   1.425   6.694
14357TIP3    H143028   3.559   1.348   6.740
14357TIP3    H243029   3.435   1.404   6.673
14358TIP3   OH243030   3.799   0.660   4.525
14358TIP3    H143031   3.828   0.586   4.578
14358TIP3    H243032   3.878   0.694   4.484
14359TIP3   OH243033   0.246   0.841   1.607
14359TIP3    H143034   0.183   0.774   1.581
14359TIP3    H243035   0.272   0.816   1.696
14360TIP3   OH243036   4.325   4.004   5.863
14360TIP3    H143037   4.409   4.050   5.859
14360TIP3    H243038   4.330   3.939   5.793
14361TIP3   OH243039   2.994   2.164   0.432
14361TIP3    H143040   3.077   2.123   0.457
14361TIP3    H243041   2.938   2.092   0.404
14362TIP3   OH243042   7.950   0.023   1.309
14362TIP3    H143043   8.012   0.092   1.282
14362TIP3    H243044   7.998  -0.025   1.377
14363TIP3   OH243045   4.254   2.660   5.870
14363TIP3    H143046   4.343   2.623   5.868
14363TIP3    H243047   4.197   2.585   5.881
14364TIP3   OH243048   6.401   5.468   5.305
14364TIP3    H143049   6.395   5.430   5.217
14364TIP3    H243050   6.409   5.393   5.363
14365TIP3   OH243051   3.964   3.681   3.711
14365TIP3    H143052   3.872   3.675   3.734
14365TIP3    H243053   3.982   3.603   3.659
14366TIP3   OH243054   7.767   4.720   4.933
14366TIP3    H143055   7.841   4.779   4.922
14366TIP3    H243056   7.705   4.769   4.987
14367TIP3   OH243057   3.359   3.204   2.687
14367TIP3    H143058   3.316   3.269   2.744
14367TIP3    H243059   3.287   3.165   2.637
14368TIP3   OH243060   2.673   6.283   0.975
14368TIP3    H143061   2.748   6.318   1.022
14368TIP3    H243062   2.598   6.334   1.006
14369TIP3   OH243063   2.091   3.999   1.639
14369TIP3    H143064   2.027   3.934   1.610
14369TIP3    H243065   2.117   3.969   1.726
14370TIP3   OH243066   5.470   3.937   0.160
14370TIP3    H143067   5.422   3.866   0.116
14370TIP3    H243068   5.533   3.966   0.094
14371TIP3   OH243069   4.599   7.286   4.154
14371TIP3    H143070   4.678   7.264   4.203
14371TIP3    H243071   4.604   7.231   4.075
14372TIP3   OH243072   7.131   6.581   4.250
14372TIP3    H143073   7.188   6.570   4.327
14372TIP3    H243074   7.192   6.583   4.176
14373TIP3   OH243075   4.208   7.265   6.782
14373TIP3    H143076   4.229   7.350   6.744
14373TIP3    H243077   4.222   7.203   6.711
14374TIP3   OH243078   2.602   5.214   3.231
14374TIP3    H143079   2.518   5.246   3.200
14374TIP3    H243080   2.595   5.216   3.326
14375TIP3   OH243081   2.213   4.964   4.276
14375TIP3    H143082   2.122   4.987   4.261
14375TIP3    H243083   2.211   4.870   4.295
14376TIP3   OH243084   0.525   0.242   1.458
14376TIP3    H143085   0.475   0.254   1.377
14376TIP3    H243086   0.593   0.178   1.435
14377TIP3   OH243087   1.167   7.483   5.717
14377TIP3    H143088   1.105   7.555   5.717
14377TIP3    H243089   1.252   7.524   5.736
14378TIP3   OH243090   4.770   0.793   3.433
14378TIP3    H143091   4.787   0.833   3.348
14378TIP3    H243092   4.765   0.866   3.494
14379TIP3   OH243093   5.892   3.092   1.726
14379TIP3    H143094   5.927   3.173   1.762
14379TIP3    H243095   5.959   3.026   1.746
14380TIP3   OH243096   3.755   0.809   4.792
14380TIP3    H143097   3.726   0.749   4.723
14380TIP3    H243098   3.849   0.791   4.801
14381TIP3   OH243099   5.517   0.376   1.476
14381TIP3    H143100   5.431   0.337   1.465
14381TIP3    H243101   5.505   0.440   1.546
14382TIP3   OH243102   4.154   6.456   2.782
14382TIP3    H143103   4.174   6.419   2.696
14382TIP3    H243104   4.066   6.423   2.802
14383TIP3   OH243105   4.947   4.435   2.852
14383TIP3    H143106   5.004   4.504   2.817
14383TIP3    H243107   4.889   4.413   2.779
14384TIP3   OH243108   0.950   4.458   1.211
14384TIP3    H143109   1.003   4.529   1.246
14384TIP3    H243110   1.011   4.404   1.161
14385TIP3   OH243111   1.374   5.395   6.591
14385TIP3    H143112   1.303   5.409   6.529
14385TIP3    H243113   1.417   5.480   6.599
14386TIP3   OH243114   0.209   3.517   5.503
14386TIP3    H143115   0.243   3.536   5.591
14386TIP3    H243116   0.232   3.425   5.488
14387TIP3   OH243117   8.125   6.742   0.196
14387TIP3    H143118   8.037   6.776   0.183
14387TIP3    H243119   8.163   6.797   0.264
14388TIP3   OH243120   1.678   7.383   2.894
14388TIP3    H143121   1.753   7.357   2.948
14388TIP3    H243122   1.709   7.371   2.804
14389TIP3   OH243123   6.076   0.651   1.325
14389TIP3    H143124   6.061   0.561   1.353
14389TIP3    H243125   6.166   0.651   1.291
14390TIP3   OH243126   1.690   5.581   4.302
14390TIP3    H143127   1.679   5.540   4.388
14390TIP3    H243128   1.639   5.525   4.243
14391TIP3   OH243129   7.169   5.883   3.538
14391TIP3    H143130   7.126   5.928   3.611
14391TIP3    H243131   7.166   5.790   3.562
14392TIP3   OH243132   2.442   5.423   0.930
14392TIP3    H143133   2.483   5.509   0.925
14392TIP3    H243134   2.508   5.363   0.896
14393TIP3   OH243135   0.629   5.607   2.948
14393TIP3    H143136   0.619   5.622   2.854
14393TIP3    H243137   0.550   5.559   2.973
14394TIP3   OH243138   3.341   4.554   5.701
14394TIP3    H143139   3.299   4.598   5.627
14394TIP3    H243140   3.417   4.608   5.721
14395TIP3   OH243141   4.410   4.370   4.087
14395TIP3    H143142   4.404   4.434   4.016
14395TIP3    H243143   4.424   4.287   4.044
14396TIP3   OH243144   3.372   5.675   6.588
14396TIP3    H143145   3.350   5.766   6.571
14396TIP3    H243146   3.296   5.640   6.635
14397TIP3   OH243147   3.051   6.039   6.642
14397TIP3    H143148   3.016   6.094   6.712
14397TIP3    H243149   3.055   5.951   6.679
14398TIP3   OH243150   3.310   4.411   1.191
14398TIP3    H143151   3.389   4.440   1.239
14398TIP3    H243152   3.344   4.368   1.112
14399TIP3   OH243153   7.598   4.633   1.615
14399TIP3    H143154   7.509   4.646   1.647
14399TIP3    H243155   7.649   4.704   1.654
14400TIP3   OH243156   6.779   0.015   0.639
14400TIP3    H143157   6.688   0.005   0.608
14400TIP3    H243158   6.796   0.109   0.632
14401TIP3   OH243159   3.475   7.190   2.571
14401TIP3    H143160   3.464   7.107   2.523
14401TIP3    H243161   3.459   7.167   2.663
14402TIP3   OH243162   7.144   0.356   0.562
14402TIP3    H143163   7.191   0.338   0.481
14402TIP3    H243164   7.198   0.419   0.608
14403TIP3   OH243165   1.717   1.601   3.496
14403TIP3    H143166   1.800   1.638   3.465
14403TIP3    H243167   1.667   1.584   3.416
14404TIP3   OH243168   6.927   7.594   5.413
14404TIP3    H143169   6.840   7.585   5.375
14404TIP3    H243170   6.920   7.552   5.499
14405TIP3   OH243171  -0.006   5.319   2.344
14405TIP3    H143172   0.055   5.251   2.374
14405TIP3    H243173   0.050   5.383   2.300
14406TIP3   OH243174   0.471   7.091   0.291
14406TIP3    H143175   0.542   7.028   0.284
14406TIP3    H243176   0.396   7.039   0.321
14407TIP3   OH243177   4.526   4.655   6.074
14407TIP3    H143178   4.517   4.711   5.997
14407TIP3    H243179   4.593   4.698   6.127
14408TIP3   OH243180   5.310   6.236   0.036
14408TIP3    H143181   5.342   6.317  -0.004
14408TIP3    H243182   5.284   6.263   0.125
14409TIP3   OH243183   6.981   3.524   2.580
14409TIP3    H143184   6.968   3.491   2.491
14409TIP3    H243185   6.902   3.498   2.627
14410TIP3   OH243186   3.769   4.671   4.329
14410TIP3    H143187   3.850   4.716   4.353
14410TIP3    H243188   3.776   4.585   4.369
14411TIP3   OH243189   1.286   0.996   1.466
14411TIP3    H143190   1.313   0.904   1.462
14411TIP3    H243191   1.207   1.001   1.414
14412TIP3   OH243192   4.513   0.475   0.452
14412TIP3    H143193   4.448   0.514   0.510
14412TIP3    H243194   4.580   0.440   0.510
14413TIP3   OH243195   6.941   6.242   1.439
14413TIP3    H143196   6.967   6.231   1.531
14413TIP3    H243197   7.017   6.284   1.398
14414TIP3   OH243198   2.562   7.614   2.187
14414TIP3    H143199   2.521   7.682   2.132
14414TIP3    H243200   2.580   7.659   2.269
14415TIP3   OH243201   4.847   3.555   0.598
14415TIP3    H143202   4.838   3.461   0.579
14415TIP3    H243203   4.872   3.559   0.690
14416TIP3   OH243204   7.270   7.162   5.533
14416TIP3    H143205   7.252   7.097   5.601
14416TIP3    H243206   7.196   7.155   5.472
14417TIP3   OH243207   1.386   5.153   1.368
14417TIP3    H143208   1.470   5.176   1.408
14417TIP3    H243209   1.327   5.136   1.442
14418TIP3   OH243210   4.588   7.416   2.279
14418TIP3    H143211   4.567   7.436   2.188
14418TIP3    H243212   4.535   7.339   2.300
14419TIP3   OH243213   3.697   1.054   2.219
14419TIP3    H143214   3.660   1.106   2.290
14419TIP3    H243215   3.645   0.973   2.219
14420TIP3   OH243216   0.550   0.532   5.857
14420TIP3    H143217   0.577   0.566   5.942
14420TIP3    H243218   0.550   0.437   5.868
14421TIP3   OH243219   4.612   6.154   5.935
14421TIP3    H143220   4.581   6.104   5.859
14421TIP3    H243221   4.610   6.091   6.008
14422TIP3   OH243222   4.650   0.875   2.415
14422TIP3    H143223   4.694   0.848   2.334
14422TIP3    H243224   4.626   0.966   2.400
14423TIP3   OH243225   0.866   3.842   4.093
14423TIP3    H143226   0.946   3.864   4.045
14423TIP3    H243227   0.897   3.807   4.177
14424TIP3   OH243228   5.410   3.981   5.327
14424TIP3    H143229   5.365   3.916   5.381
14424TIP3    H243230   5.423   4.056   5.386
14425TIP3   OH243231   1.264   1.224   1.789
14425TIP3    H143232   1.221   1.201   1.871
14425TIP3    H243233   1.290   1.315   1.799
14426TIP3   OH243234   4.153   2.243   6.460
14426TIP3    H143235   4.237   2.288   6.451
14426TIP3    H243236   4.108   2.291   6.530
14427TIP3   OH243237   7.637   2.603   3.278
14427TIP3    H143238   7.560   2.581   3.225
14427TIP3    H243239   7.699   2.641   3.215
14428TIP3   OH243240   7.894   6.665   5.848
14428TIP3    H143241   7.978   6.648   5.804
14428TIP3    H243242   7.918   6.716   5.926
14429TIP3   OH243243   1.481   6.621   3.166
14429TIP3    H143244   1.576   6.636   3.172
14429TIP3    H243245   1.445   6.708   3.149
14430TIP3   OH243246   2.279   0.727   3.599
14430TIP3    H143247   2.309   0.637   3.583
14430TIP3    H243248   2.266   0.732   3.693
14431TIP3   OH243249   0.580   4.800   6.543
14431TIP3    H143250   0.622   4.715   6.558
14431TIP3    H243251   0.543   4.794   6.455
14432TIP3   OH243252   2.951   7.222   0.573
14432TIP3    H143253   2.956   7.130   0.545
14432TIP3    H243254   2.972   7.272   0.494
14433TIP3   OH243255   5.621   0.244   3.643
14433TIP3    H143256   5.540   0.290   3.665
14433TIP3    H243257   5.645   0.200   3.725
14434TIP3   OH243258   3.578   7.046   2.892
14434TIP3    H143259   3.609   6.958   2.872
14434TIP3    H243260   3.594   7.057   2.986
14435TIP3   OH243261   3.167   1.238   6.089
14435TIP3    H143262   3.209   1.154   6.104
14435TIP3    H243263   3.237   1.296   6.061
14436TIP3   OH243264   2.051   2.015   4.179
14436TIP3    H143265   2.088   1.937   4.221
14436TIP3    H243266   2.071   2.086   4.240
14437TIP3   OH243267   8.063   7.583   4.282
14437TIP3    H143268   8.120   7.650   4.319
14437TIP3    H243269   8.108   7.554   4.203
14438TIP3   OH243270   5.666   1.294   6.372
14438TIP3    H143271   5.624   1.370   6.332
14438TIP3    H243272   5.640   1.296   6.464
14439TIP3   OH243273   6.603   7.818   3.152
14439TIP3    H143274   6.522   7.853   3.116
14439TIP3    H243275   6.639   7.764   3.081
14440TIP3   OH243276   6.793   0.994   5.273
14440TIP3    H143277   6.784   0.938   5.196
14440TIP3    H243278   6.887   1.006   5.284
14441TIP3   OH243279   5.425   4.167   6.345
14441TIP3    H143280   5.454   4.194   6.432
14441TIP3    H243281   5.373   4.088   6.360
14442TIP3   OH243282   4.494   6.392   5.889
14442TIP3    H143283   4.463   6.395   5.799
14442TIP3    H243284   4.524   6.302   5.901
14443TIP3   OH243285   5.273   0.866   2.333
14443TIP3    H143286   5.181   0.882   2.354
14443TIP3    H243287   5.312   0.953   2.330
14444TIP3   OH243288   8.240   3.250   1.376
14444TIP3    H143289   8.159   3.269   1.425
14444TIP3    H243290   8.215   3.263   1.284
14445TIP3   OH243291   4.710   2.172   5.634
14445TIP3    H143292   4.704   2.228   5.712
14445TIP3    H243293   4.804   2.156   5.623
14446TIP3   OH243294   0.123   1.831   4.175
14446TIP3    H143295   0.028   1.833   4.179
14446TIP3    H243296   0.150   1.795   4.259
14447TIP3   OH243297   8.311   7.034   4.472
14447TIP3    H143298   8.344   7.086   4.399
14447TIP3    H243299   8.247   6.975   4.432
14448TIP3   OH243300   0.916   7.696   1.442
14448TIP3    H143301   0.891   7.634   1.373
14448TIP3    H243302   0.850   7.765   1.436
14449TIP3   OH243303   3.198   0.659   3.198
14449TIP3    H143304   3.249   0.700   3.127
14449TIP3    H243305   3.264   0.632   3.262
14450TIP3   OH243306   7.860   5.384   6.246
14450TIP3    H143307   7.885   5.392   6.154
14450TIP3    H243308   7.939   5.354   6.291
14451TIP3   OH243309   2.651   4.858   4.194
14451TIP3    H143310   2.703   4.925   4.238
14451TIP3    H243311   2.621   4.900   4.114
14452TIP3   OH243312   0.138   4.257   5.700
14452TIP3    H143313   0.053   4.259   5.656
14452TIP3    H243314   0.131   4.323   5.769
14453TIP3   OH243315   0.880   3.777   4.349
14453TIP3    H143316   0.798   3.797   4.394
14453TIP3    H243317   0.919   3.706   4.400
14454TIP3   OH243318   1.892   3.597   0.300
14454TIP3    H143319   1.805   3.584   0.262
14454TIP3    H243320   1.899   3.692   0.311
14455TIP3   OH243321   2.208   6.808   1.220
14455TIP3    H143322   2.177   6.856   1.297
14455TIP3    H243323   2.182   6.864   1.146
14456TIP3   OH243324   0.088   5.453   0.794
14456TIP3    H143325   0.002   5.491   0.773
14456TIP3    H243326   0.127   5.516   0.855
14457TIP3   OH243327   3.733   2.077   3.069
14457TIP3    H143328   3.703   2.142   3.133
14457TIP3    H243329   3.828   2.087   3.067
14458TIP3   OH243330   4.348   6.134   2.698
14458TIP3    H143331   4.305   6.182   2.627
14458TIP3    H243332   4.297   6.155   2.776
14459TIP3   OH243333   7.143   5.816   2.807
14459TIP3    H143334   7.191   5.814   2.889
14459TIP3    H243335   7.181   5.889   2.758
14460TIP3   OH243336   0.792   4.085   2.927
14460TIP3    H143337   0.762   4.171   2.898
14460TIP3    H243338   0.884   4.081   2.900
14461TIP3   OH243339   6.063   3.277   4.792
14461TIP3    H143340   6.112   3.202   4.758
14461TIP3    H243341   6.114   3.353   4.765
14462TIP3   OH243342   4.326   7.088   1.087
14462TIP3    H143343   4.358   7.178   1.095
14462TIP3    H243344   4.248   7.095   1.032
14463TIP3   OH243345   3.191   4.374   6.466
14463TIP3    H143346   3.161   4.425   6.391
14463TIP3    H243347   3.235   4.437   6.522
14464TIP3   OH243348   5.049   7.389   0.094
14464TIP3    H143349   4.972   7.435   0.127
14464TIP3    H243350   5.039   7.390  -0.001
14465TIP3   OH243351   1.156   3.360   0.145
14465TIP3    H143352   1.175   3.449   0.176
14465TIP3    H243353   1.241   3.326   0.116
14466TIP3   OH243354  -0.005   2.191   4.156
14466TIP3    H143355   0.003   2.236   4.240
14466TIP3    H243356   0.085   2.169   4.132
14467TIP3   OH243357   5.591   3.553   1.891
14467TIP3    H143358   5.623   3.467   1.920
14467TIP3    H243359   5.543   3.587   1.967
14468TIP3   OH243360   0.704   0.221   3.823
14468TIP3    H143361   0.636   0.156   3.835
14468TIP3    H243362   0.698   0.246   3.731
14469TIP3   OH243363   1.887   2.782   1.080
14469TIP3    H143364   1.933   2.861   1.050
14469TIP3    H243365   1.800   2.789   1.041
14470TIP3   OH243366   7.338   4.263   5.784
14470TIP3    H143367   7.388   4.214   5.718
14470TIP3    H243368   7.366   4.354   5.771
14471TIP3   OH243369   3.708   0.491   0.144
14471TIP3    H143370   3.795   0.451   0.141
14471TIP3    H243371   3.714   0.555   0.215
14472TIP3   OH243372   6.295   1.510   6.359
14472TIP3    H143373   6.245   1.445   6.310
14472TIP3    H243374   6.365   1.537   6.300
14473TIP3   OH243375   6.549   4.091   2.472
14473TIP3    H143376   6.582   4.180   2.486
14473TIP3    H243377   6.618   4.034   2.505
14474TIP3   OH243378   4.030   5.475   4.044
14474TIP3    H143379   4.122   5.469   4.019
14474TIP3    H243380   4.033   5.495   4.138
14475TIP3   OH243381   1.989   2.610   4.195
14475TIP3    H143382   1.949   2.692   4.165
14475TIP3    H243383   1.956   2.544   4.134
14476TIP3   OH243384   0.578   0.995   6.290
14476TIP3    H143385   0.634   0.993   6.212
14476TIP3    H243386   0.597   0.912   6.335
14477TIP3   OH243387   0.346   0.827   6.134
14477TIP3    H143388   0.306   0.831   6.047
14477TIP3    H243389   0.344   0.918   6.165
14478TIP3   OH243390   3.657   6.310   4.299
14478TIP3    H143391   3.590   6.253   4.263
14478TIP3    H243392   3.625   6.333   4.386
14479TIP3   OH243393   0.615   4.449   2.466
14479TIP3    H143394   0.693   4.505   2.469
14479TIP3    H243395   0.553   4.497   2.411
14480TIP3   OH243396   6.540   1.788   1.262
14480TIP3    H143397   6.459   1.787   1.212
14480TIP3    H243398   6.560   1.881   1.272
14481TIP3   OH243399   0.710   4.677   4.523
14481TIP3    H143400   0.735   4.622   4.597
14481TIP3    H243401   0.671   4.755   4.563
14482TIP3   OH243402   8.118   1.460   3.647
14482TIP3    H143403   8.047   1.502   3.697
14482TIP3    H243404   8.162   1.404   3.711
14483TIP3   OH243405   3.291   6.965   5.546
14483TIP3    H143406   3.329   7.010   5.471
14483TIP3    H243407   3.250   6.887   5.508
14484TIP3   OH243408   3.456   5.574   5.917
14484TIP3    H143409   3.472   5.669   5.913
14484TIP3    H243410   3.491   5.541   5.834
14485TIP3   OH243411   1.290   0.554   5.414
14485TIP3    H143412   1.236   0.485   5.454
14485TIP3    H243413   1.227   0.610   5.369
14486TIP3   OH243414   0.879   0.331   4.011
14486TIP3    H143415   0.953   0.271   4.016
14486TIP3    H243416   0.816   0.287   3.954
14487TIP3   OH243417   1.772   4.095   4.755
14487TIP3    H143418   1.717   4.167   4.787
14487TIP3    H243419   1.754   4.022   4.815
14488TIP3   OH243420   4.371   4.366   2.674
14488TIP3    H143421   4.427   4.339   2.748
14488TIP3    H243422   4.412   4.446   2.642
14489TIP3   OH243423   1.523   2.650   0.953
14489TIP3    H143424   1.459   2.660   0.881
14489TIP3    H243425   1.476   2.682   1.030
14490TIP3   OH243426   0.787   4.699   4.802
14490TIP3    H143427   0.829   4.670   4.883
14490TIP3    H243428   0.699   4.726   4.827
14491TIP3   OH243429   6.093   7.152   5.421
14491TIP3    H143430   6.183   7.149   5.387
14491TIP3    H243431   6.097   7.100   5.501
14492TIP3   OH243432   0.234   1.855   6.586
14492TIP3    H143433   0.149   1.894   6.605
14492TIP3    H243434   0.276   1.918   6.527
14493TIP3   OH243435   5.525   1.796   5.399
14493TIP3    H143436   5.495   1.884   5.377
14493TIP3    H243437   5.619   1.798   5.381
14494TIP3   OH243438   8.325   4.621   2.623
14494TIP3    H143439   8.346   4.686   2.690
14494TIP3    H243440   8.230   4.625   2.615
14495TIP3   OH243441   5.743   3.565   5.667
14495TIP3    H143442   5.791   3.488   5.637
14495TIP3    H243443   5.758   3.631   5.600
14496TIP3   OH243444   1.042   5.523   5.328
14496TIP3    H143445   1.005   5.464   5.262
14496TIP3    H243446   1.053   5.606   5.282
14497TIP3   OH243447   0.055   4.529   2.969
14497TIP3    H143448   0.112   4.598   2.936
14497TIP3    H243449   0.110   4.451   2.969
14498TIP3   OH243450   6.529   1.155   2.170
14498TIP3    H143451   6.440   1.166   2.203
14498TIP3    H243452   6.584   1.204   2.231
14499TIP3   OH243453   2.912   2.391   3.735
14499TIP3    H143454   2.859   2.391   3.655
14499TIP3    H243455   2.880   2.316   3.785
14500TIP3   OH243456   1.069   2.930   5.325
14500TIP3    H143457   1.010   2.889   5.388
14500TIP3    H243458   1.047   3.023   5.329
14501TIP3   OH243459   5.670   2.440   6.143
14501TIP3    H143460   5.633   2.362   6.185
14501TIP3    H243461   5.610   2.461   6.072
14502TIP3   OH243462   1.640   6.330   1.433
14502TIP3    H143463   1.544   6.336   1.440
14502TIP3    H243464   1.659   6.361   1.345
14503TIP3   OH243465   1.127   1.793   3.950
14503TIP3    H143466   1.056   1.838   3.905
14503TIP3    H243467   1.153   1.853   4.019
14504TIP3   OH243468   6.292   5.100   0.926
14504TIP3    H143469   6.329   5.085   1.013
14504TIP3    H243470   6.368   5.096   0.867
14505TIP3   OH243471   4.882   1.600   5.878
14505TIP3    H143472   4.791   1.629   5.871
14505TIP3    H243473   4.934   1.679   5.869
14506TIP3   OH243474   5.829   2.661   6.739
14506TIP3    H143475   5.901   2.711   6.778
14506TIP3    H243476   5.827   2.688   6.648
14507TIP3   OH243477   3.756   4.554   0.166
14507TIP3    H143478   3.768   4.470   0.209
14507TIP3    H243479   3.820   4.612   0.209
14508TIP3   OH243480   3.298   1.820   5.197
14508TIP3    H143481   3.269   1.756   5.261
14508TIP3    H243482   3.340   1.889   5.249
14509TIP3   OH243483   7.769   4.011   4.529
14509TIP3    H143484   7.695   4.034   4.473
14509TIP3    H243485   7.846   4.037   4.479
14510TIP3   OH243486   5.689   4.035   5.825
14510TIP3    H143487   5.762   4.045   5.886
14510TIP3    H243488   5.725   3.984   5.752
14511TIP3   OH243489   2.350   3.652   3.579
14511TIP3    H143490   2.416   3.585   3.595
14511TIP3    H243491   2.398   3.735   3.584
14512TIP3   OH243492   1.715   1.185   1.796
14512TIP3    H143493   1.712   1.280   1.784
14512TIP3    H243494   1.804   1.167   1.828
14513TIP3   OH243495   4.902   4.609   3.155
14513TIP3    H143496   4.997   4.611   3.160
14513TIP3    H243497   4.875   4.553   3.228
14514TIP3   OH243498   4.109   7.158   1.752
14514TIP3    H143499   4.050   7.102   1.703
14514TIP3    H243500   4.062   7.177   1.833
14515TIP3   OH243501   6.276   0.874   3.908
14515TIP3    H143502   6.357   0.896   3.864
14515TIP3    H243503   6.241   0.799   3.860
14516TIP3   OH243504   4.207   5.118   4.240
14516TIP3    H143505   4.157   5.194   4.271
14516TIP3    H243506   4.227   5.069   4.320
14517TIP3   OH243507   3.088   0.459   4.531
14517TIP3    H143508   3.034   0.536   4.517
14517TIP3    H243509   3.062   0.427   4.618
14518TIP3   OH243510   1.246   5.090   5.822
14518TIP3    H143511   1.199   5.166   5.788
14518TIP3    H243512   1.178   5.025   5.838
14519TIP3   OH243513   2.866   2.503   1.641
14519TIP3    H143514   2.772   2.504   1.660
14519TIP3    H243515   2.875   2.441   1.568
14520TIP3   OH243516   3.075   0.603   4.982
14520TIP3    H143517   3.154   0.554   5.007
14520TIP3    H243518   3.037   0.630   5.066
14521TIP3   OH243519   7.385   2.002   3.090
14521TIP3    H143520   7.440   1.989   3.013
14521TIP3    H243521   7.375   2.097   3.096
14522TIP3   OH243522   3.294   3.141   5.477
14522TIP3    H143523   3.359   3.170   5.541
14522TIP3    H243524   3.230   3.213   5.475
14523TIP3   OH243525   0.391   1.411   6.554
14523TIP3    H143526   0.474   1.424   6.509
14523TIP3    H243527   0.325   1.450   6.496
14524TIP3   OH243528   4.130   3.665   0.143
14524TIP3    H143529   4.146   3.758   0.124
14524TIP3    H243530   4.175   3.649   0.225
14525TIP3   OH243531   1.026   6.371   1.992
14525TIP3    H143532   1.088   6.305   1.964
14525TIP3    H243533   1.054   6.395   2.081
14526TIP3   OH243534   4.728   3.644   5.481
14526TIP3    H143535   4.774   3.724   5.505
14526TIP3    H243536   4.642   3.653   5.521
14527TIP3   OH243537   3.516   4.941   2.421
14527TIP3    H143538   3.466   4.861   2.439
14527TIP3    H243539   3.601   4.911   2.392
14528TIP3   OH243540   0.248   4.855   3.457
14528TIP3    H143541   0.267   4.907   3.379
14528TIP3    H243542   0.319   4.876   3.517
14529TIP3   OH243543   0.877   0.114   0.544
14529TIP3    H143544   0.868   0.043   0.480
14529TIP3    H243545   0.841   0.191   0.499
14530TIP3   OH243546   6.983   5.110   5.092
14530TIP3    H143547   6.969   5.042   5.159
14530TIP3    H243548   7.064   5.084   5.048
14531TIP3   OH243549   0.941   3.725   1.499
14531TIP3    H143550   0.893   3.643   1.507
14531TIP3    H243551   0.919   3.773   1.580
14532TIP3   OH243552   0.495   2.918   1.658
14532TIP3    H143553   0.416   2.868   1.638
14532TIP3    H243554   0.463   2.994   1.707
14533TIP3   OH243555   3.047   5.689   0.314
14533TIP3    H143556   3.019   5.760   0.255
14533TIP3    H243557   3.082   5.735   0.390
14534TIP3   OH243558   5.292   2.113   5.119
14534TIP3    H143559   5.249   2.144   5.039
14534TIP3    H243560   5.276   2.019   5.120
14535TIP3   OH243561   2.110   6.932   0.211
14535TIP3    H143562   2.201   6.928   0.241
14535TIP3    H243563   2.115   6.976   0.126
14536TIP3   OH243564   2.081   2.794   2.976
14536TIP3    H143565   2.157   2.842   3.011
14536TIP3    H243566   2.007   2.854   2.991
14537TIP3   OH243567   6.343   0.438   2.865
14537TIP3    H143568   6.289   0.499   2.915
14537TIP3    H243569   6.392   0.390   2.931
14538TIP3   OH243570   0.733   1.750   1.000
14538TIP3    H143571   0.653   1.745   0.948
14538TIP3    H243572   0.757   1.658   1.014
14539TIP3   OH243573   4.495   1.144   0.559
14539TIP3    H143574   4.468   1.053   0.549
14539TIP3    H243575   4.512   1.174   0.470
14540TIP3   OH243576   4.209   6.489   0.898
14540TIP3    H143577   4.281   6.427   0.910
14540TIP3    H243578   4.252   6.572   0.876
14541TIP3   OH243579   6.696   4.595   5.463
14541TIP3    H143580   6.760   4.624   5.398
14541TIP3    H243581   6.734   4.515   5.500
14542TIP3   OH243582   0.865   1.752   0.663
14542TIP3    H143583   0.858   1.824   0.725
14542TIP3    H243584   0.959   1.743   0.647
14543TIP3   OH243585   2.525   7.794   4.991
14543TIP3    H143586   2.540   7.886   5.012
14543TIP3    H243587   2.575   7.745   5.057
14544TIP3   OH243588   4.477   5.712   0.891
14544TIP3    H143589   4.461   5.618   0.890
14544TIP3    H243590   4.534   5.727   0.815
14545TIP3   OH243591   2.131   7.320   6.127
14545TIP3    H143592   2.060   7.257   6.112
14545TIP3    H243593   2.124   7.380   6.053
14546TIP3   OH243594   2.184   1.800   2.816
14546TIP3    H143595   2.188   1.753   2.900
14546TIP3    H243596   2.255   1.863   2.820
14547TIP3   OH243597   4.457   3.839   3.428
14547TIP3    H143598   4.369   3.839   3.391
14547TIP3    H243599   4.486   3.748   3.421
14548TIP3   OH243600   5.423   2.020   2.783
14548TIP3    H143601   5.511   2.058   2.786
14548TIP3    H243602   5.400   2.019   2.690
14549TIP3   OH243603   3.885   5.404   3.408
14549TIP3    H143604   3.814   5.350   3.374
14549TIP3    H243605   3.927   5.350   3.475
14550TIP3   OH243606   6.052   1.591   0.218
14550TIP3    H143607   5.982   1.531   0.242
14550TIP3    H243608   6.132   1.550   0.250
14551TIP3   OH243609   4.804   3.865   3.771
14551TIP3    H143610   4.773   3.851   3.681
14551TIP3    H243611   4.724   3.879   3.822
14552TIP3   OH243612   5.955   4.496   5.621
14552TIP3    H143613   5.933   4.411   5.585
14552TIP3    H243614   5.910   4.499   5.706
14553TIP3   OH243615   5.869   0.494   0.849
14553TIP3    H143616   5.886   0.507   0.756
14553TIP3    H243617   5.902   0.407   0.868
14554TIP3   OH243618   2.783   4.680   5.485
14554TIP3    H143619   2.862   4.625   5.478
14554TIP3    H243620   2.774   4.718   5.398
14555TIP3   OH243621   5.179   4.557   3.992
14555TIP3    H143622   5.125   4.498   3.938
14555TIP3    H243623   5.116   4.599   4.051
14556TIP3   OH243624   6.352   2.722   0.532
14556TIP3    H143625   6.324   2.789   0.593
14556TIP3    H243626   6.437   2.693   0.566
14557TIP3   OH243627   3.590   7.539   0.807
14557TIP3    H143628   3.614   7.488   0.884
14557TIP3    H243629   3.562   7.475   0.742
14558TIP3   OH243630   6.028   4.845   5.041
14558TIP3    H143631   6.080   4.918   5.008
14558TIP3    H243632   5.952   4.886   5.081
14559TIP3   OH243633   5.955   4.181   0.764
14559TIP3    H143634   6.050   4.182   0.776
14559TIP3    H243635   5.924   4.255   0.816
14560TIP3   OH243636   4.588   5.689   1.576
14560TIP3    H143637   4.607   5.766   1.522
14560TIP3    H243638   4.495   5.696   1.595
14561TIP3   OH243639   2.490   4.575   1.024
14561TIP3    H143640   2.525   4.512   0.961
14561TIP3    H243641   2.465   4.650   0.971
14562TIP3   OH243642   0.184   6.553   1.589
14562TIP3    H143643   0.228   6.592   1.513
14562TIP3    H243644   0.092   6.573   1.577
14563TIP3   OH243645   2.746   0.287   2.986
14563TIP3    H143646   2.680   0.223   3.013
14563TIP3    H243647   2.828   0.254   3.023
14564TIP3   OH243648   8.156   0.237   3.865
14564TIP3    H143649   8.082   0.271   3.814
14564TIP3    H243650   8.185   0.312   3.917
14565TIP3   OH243651   0.014   2.045   1.469
14565TIP3    H143652   0.045   2.009   1.552
14565TIP3    H243653   0.047   1.985   1.402
14566TIP3   OH243654   4.409   2.380   1.333
14566TIP3    H143655   4.478   2.404   1.272
14566TIP3    H243656   4.331   2.425   1.300
14567TIP3   OH243657   4.048   5.577   2.887
14567TIP3    H143658   3.974   5.587   2.947
14567TIP3    H243659   4.018   5.512   2.823
14568TIP3   OH243660   8.038   2.916   1.758
14568TIP3    H143661   7.946   2.893   1.765
14568TIP3    H243662   8.082   2.833   1.736
14569TIP3   OH243663   1.040   7.237   5.795
14569TIP3    H143664   1.071   7.324   5.768
14569TIP3    H243665   0.992   7.253   5.876
14570TIP3   OH243666   1.591   2.091   1.710
14570TIP3    H143667   1.660   2.136   1.758
14570TIP3    H243668   1.526   2.069   1.777
14571TIP3   OH243669   7.459   7.210   5.776
14571TIP3    H143670   7.405   7.214   5.697
14571TIP3    H243671   7.490   7.300   5.788
14572TIP3   OH243672   1.268   7.565   5.053
14572TIP3    H143673   1.336   7.521   5.104
14572TIP3    H243674   1.315   7.629   5.000
14573TIP3   OH243675   0.764   5.619   3.213
14573TIP3    H143676   0.856   5.623   3.189
14573TIP3    H243677   0.717   5.646   3.134
14574TIP3   OH243678   7.389   4.573   0.929
14574TIP3    H143679   7.465   4.626   0.954
14574TIP3    H243680   7.333   4.633   0.879
14575TIP3   OH243681   7.514   3.778   3.051
14575TIP3    H143682   7.465   3.854   3.081
14575TIP3    H243683   7.477   3.757   2.965
14576TIP3   OH243684   3.841   2.566   5.819
14576TIP3    H143685   3.799   2.530   5.898
14576TIP3    H243686   3.916   2.508   5.804
14577TIP3   OH243687   7.473   5.569   6.093
14577TIP3    H143688   7.551   5.614   6.061
14577TIP3    H243689   7.451   5.614   6.175
14578TIP3   OH243690   2.199   7.217   1.351
14578TIP3    H143691   2.123   7.217   1.292
14578TIP3    H243692   2.198   7.130   1.391
14579TIP3   OH243693   3.532   1.024   4.514
14579TIP3    H143694   3.527   0.988   4.602
14579TIP3    H243695   3.618   1.066   4.510
14580TIP3   OH243696   2.427   1.933   2.392
14580TIP3    H143697   2.401   1.850   2.353
14580TIP3    H243698   2.468   1.909   2.475
14581TIP3   OH243699   5.157   6.859   5.520
14581TIP3    H143700   5.195   6.791   5.576
14581TIP3    H243701   5.066   6.866   5.549
14582TIP3   OH243702   4.033   0.264   5.059
14582TIP3    H143703   4.022   0.355   5.030
14582TIP3    H243704   4.078   0.272   5.144
14583TIP3   OH243705   7.130   7.085   6.035
14583TIP3    H143706   7.209   7.037   6.010
14583TIP3    H243707   7.134   7.166   5.985
14584TIP3   OH243708   6.782   0.117   1.955
14584TIP3    H143709   6.877   0.117   1.954
14584TIP3    H243710   6.756   0.081   1.871
14585TIP3   OH243711   5.502   7.069   0.749
14585TIP3    H143712   5.495   6.980   0.783
14585TIP3    H243713   5.412   7.097   0.737
14586TIP3   OH243714   5.004   5.953   0.300
14586TIP3    H143715   4.949   6.031   0.290
14586TIP3    H243716   5.093   5.984   0.284
14587TIP3   OH243717   7.809   0.257   1.222
14587TIP3    H143718   7.864   0.291   1.292
14587TIP3    H243719   7.815   0.162   1.231
14588TIP3   OH243720   0.702   5.818   3.822
14588TIP3    H143721   0.695   5.901   3.868
14588TIP3    H243722   0.773   5.771   3.867
14589TIP3   OH243723   7.121   0.126   6.320
14589TIP3    H143724   7.037   0.138   6.276
14589TIP3    H243725   7.156   0.045   6.282
14590TIP3   OH243726   3.745   6.449   4.098
14590TIP3    H143727   3.722   6.388   4.028
14590TIP3    H243728   3.716   6.406   4.179
14591TIP3   OH243729   3.139   5.419   1.290
14591TIP3    H143730   3.216   5.421   1.233
14591TIP3    H243731   3.159   5.481   1.360
14592TIP3   OH243732   1.600   1.258   1.335
14592TIP3    H143733   1.614   1.350   1.358
14592TIP3    H243734   1.684   1.228   1.302
14593TIP3   OH243735   1.789   6.350   6.609
14593TIP3    H143736   1.841   6.416   6.564
14593TIP3    H243737   1.752   6.395   6.684
14594TIP3   OH243738   0.939   3.201   0.740
14594TIP3    H143739   0.949   3.203   0.836
14594TIP3    H243740   1.028   3.189   0.707
14595TIP3   OH243741   7.250   5.942   4.227
14595TIP3    H143742   7.335   5.901   4.220
14595TIP3    H243743   7.239   5.959   4.321
14596TIP3   OH243744   5.107   5.950   6.198
14596TIP3    H143745   5.067   5.941   6.111
14596TIP3    H243746   5.128   6.043   6.206
14597TIP3   OH243747   6.921   7.369   5.594
14597TIP3    H143748   6.873   7.298   5.636
14597TIP3    H243749   6.983   7.325   5.536
14598TIP3   OH243750   8.210   1.402   2.070
14598TIP3    H143751   8.137   1.448   2.112
14598TIP3    H243752   8.169   1.349   2.002
14599TIP3   OH243753   0.482   4.960   0.110
14599TIP3    H143754   0.516   4.959   0.021
14599TIP3    H243755   0.479   5.053   0.134
14600TIP3   OH243756   7.033   4.935   1.583
14600TIP3    H143757   6.993   5.020   1.606
14600TIP3    H243758   6.964   4.889   1.536
14601TIP3   OH243759   5.697   5.252   0.447
14601TIP3    H143760   5.783   5.211   0.459
14601TIP3    H243761   5.690   5.314   0.520
14602TIP3   OH243762   3.004   4.802   0.154
14602TIP3    H143763   3.012   4.891   0.121
14602TIP3    H243764   3.087   4.786   0.199
14603TIP3   OH243765   6.287   1.382   3.866
14603TIP3    H143766   6.195   1.367   3.843
14603TIP3    H243767   6.298   1.338   3.950
14604TIP3   OH243768   4.892   7.307   6.487
14604TIP3    H143769   4.895   7.290   6.581
14604TIP3    H243770   4.947   7.239   6.449
14605TIP3   OH243771   6.933   2.247   0.708
14605TIP3    H143772   6.956   2.263   0.616
14605TIP3    H243773   6.973   2.162   0.728
14606TIP3   OH243774   2.538   2.869   2.429
14606TIP3    H143775   2.582   2.794   2.389
14606TIP3    H243776   2.517   2.926   2.355
14607TIP3   OH243777   4.645   4.839   3.862
14607TIP3    H143778   4.687   4.758   3.890
14607TIP3    H243779   4.579   4.857   3.929
14608TIP3   OH243780   2.019   0.534   2.710
14608TIP3    H143781   2.077   0.516   2.784
14608TIP3    H243782   1.931   0.528   2.747
14609TIP3   OH243783   2.681  -0.026   0.709
14609TIP3    H143784   2.715  -0.008   0.622
14609TIP3    H243785   2.759  -0.028   0.765
14610TIP3   OH243786   7.300   4.322   1.663
14610TIP3    H143787   7.386   4.327   1.705
14610TIP3    H243788   7.252   4.397   1.699
14611TIP3   OH243789   1.357   0.448   1.094
14611TIP3    H143790   1.401   0.439   1.010
14611TIP3    H243791   1.293   0.518   1.080
14612TIP3   OH243792   5.644   5.746   6.438
14612TIP3    H143793   5.627   5.675   6.499
14612TIP3    H243794   5.693   5.811   6.489
14613TIP3   OH243795   0.634   3.934   1.031
14613TIP3    H143796   0.721   3.920   1.067
14613TIP3    H243797   0.584   3.857   1.058
14614TIP3   OH243798   4.088   6.987   3.252
14614TIP3    H143799   4.126   7.040   3.321
14614TIP3    H243800   4.064   6.904   3.294
14615TIP3   OH243801   5.236   2.698   5.968
14615TIP3    H143802   5.237   2.675   5.875
14615TIP3    H243803   5.287   2.778   5.973
14616TIP3   OH243804   5.623   4.400   5.685
14616TIP3    H143805   5.690   4.433   5.745
14616TIP3    H243806   5.672   4.353   5.617
14617TIP3   OH243807   2.433   2.195   0.672
14617TIP3    H143808   2.418   2.262   0.738
14617TIP3    H243809   2.423   2.112   0.719
14618TIP3   OH243810   5.262   6.265   0.295
14618TIP3    H143811   5.254   6.203   0.368
14618TIP3    H243812   5.291   6.346   0.336
14619TIP3   OH243813   4.154   6.002   1.101
14619TIP3    H143814   4.063   6.029   1.100
14619TIP3    H243815   4.183   6.015   1.191
14620TIP3   OH243816   4.794   4.498   2.546
14620TIP3    H143817   4.776   4.469   2.457
14620TIP3    H243818   4.754   4.430   2.601
14621TIP3   OH243819   7.130   7.351   2.029
14621TIP3    H143820   7.044   7.387   2.051
14621TIP3    H243821   7.192   7.414   2.065
14622TIP3   OH243822   6.723   7.187   4.331
14622TIP3    H143823   6.778   7.263   4.347
14622TIP3    H243824   6.651   7.220   4.278
14623TIP3   OH243825   6.659   4.751   3.710
14623TIP3    H143826   6.577   4.778   3.670
14623TIP3    H243827   6.702   4.696   3.644
14624TIP3   OH243828   4.202   1.109   5.510
14624TIP3    H143829   4.202   1.129   5.603
14624TIP3    H243830   4.189   1.194   5.467
14625TIP3   OH243831   4.172   3.401   2.623
14625TIP3    H143832   4.084   3.418   2.589
14625TIP3    H243833   4.157   3.362   2.709
14626TIP3   OH243834   2.353   1.470   1.842
14626TIP3    H143835   2.410   1.530   1.795
14626TIP3    H243836   2.287   1.444   1.777
14627TIP3   OH243837   2.178   0.015   0.921
14627TIP3    H143838   2.166  -0.055   0.986
14627TIP3    H243839   2.268   0.003   0.890
14628TIP3   OH243840   2.881   1.846   1.623
14628TIP3    H143841   2.793   1.871   1.651
14628TIP3    H243842   2.939   1.890   1.685
14629TIP3   OH243843   5.371   0.037   0.595
14629TIP3    H143844   5.378   0.031   0.690
14629TIP3    H243845   5.415  -0.042   0.562
14630TIP3   OH243846   2.251   2.310   5.977
14630TIP3    H143847   2.337   2.290   6.014
14630TIP3    H243848   2.235   2.238   5.916
14631TIP3   OH243849   6.161   1.020   1.908
14631TIP3    H143850   6.239   1.075   1.920
14631TIP3    H243851   6.088   1.080   1.918
14632TIP3   OH243852   6.024   2.605   4.230
14632TIP3    H143853   6.047   2.587   4.322
14632TIP3    H243854   6.084   2.676   4.205
14633TIP3   OH243855   2.011   7.761   4.030
14633TIP3    H143856   1.922   7.730   4.013
14633TIP3    H243857   2.022   7.835   3.971
14634TIP3   OH243858   5.007   0.737   2.035
14634TIP3    H143859   5.061   0.661   2.054
14634TIP3    H243860   5.057   0.787   1.971
14635TIP3   OH243861   0.889   5.611   2.563
14635TIP3    H143862   0.943   5.689   2.577
14635TIP3    H243863   0.941   5.556   2.504
14636TIP3   OH243864   5.070   1.626   3.049
14636TIP3    H143865   5.114   1.709   3.069
14636TIP3    H243866   4.993   1.651   2.998
14637TIP3   OH243867   8.227   4.152   0.794
14637TIP3    H143868   8.256   4.183   0.880
14637TIP3    H243869   8.276   4.206   0.732
14638TIP3   OH243870   5.261   1.580   4.405
14638TIP3    H143871   5.241   1.494   4.366
14638TIP3    H243872   5.175   1.618   4.424
14639TIP3   OH243873   8.042   0.576   6.295
14639TIP3    H143874   8.042   0.515   6.369
14639TIP3    H243875   7.949   0.589   6.276
14640TIP3   OH243876   1.191   4.324   3.082
14640TIP3    H143877   1.243   4.364   3.012
14640TIP3    H243878   1.100   4.342   3.058
14641TIP3   OH243879   1.921   7.412   4.578
14641TIP3    H143880   1.921   7.322   4.545
14641TIP3    H243881   1.841   7.418   4.631
14642TIP3   OH243882   2.211   6.312   4.718
14642TIP3    H143883   2.160   6.279   4.792
14642TIP3    H243884   2.300   6.282   4.735
14643TIP3   OH243885   3.732   1.447   4.072
14643TIP3    H143886   3.636   1.448   4.070
14643TIP3    H243887   3.756   1.539   4.087
14644TIP3   OH243888   7.766   6.286   6.452
14644TIP3    H143889   7.725   6.332   6.525
14644TIP3    H243890   7.711   6.306   6.376
14645TIP3   OH243891   5.515   4.824   5.952
14645TIP3    H143892   5.552   4.819   5.863
14645TIP3    H243893   5.465   4.744   5.962
14646TIP3   OH243894   3.433   2.123   3.233
14646TIP3    H143895   3.434   2.133   3.329
14646TIP3    H243896   3.458   2.031   3.219
14647TIP3   OH243897   4.929   2.741   6.501
14647TIP3    H143898   4.839   2.766   6.520
14647TIP3    H243899   4.923   2.649   6.476
14648TIP3   OH243900   2.469   6.030   1.563
14648TIP3    H143901   2.393   6.017   1.619
14648TIP3    H243902   2.448   5.983   1.482
14649TIP3   OH243903   1.042   1.045   4.315
14649TIP3    H143904   0.973   1.005   4.262
14649TIP3    H243905   1.041   0.994   4.396
14650TIP3   OH243906   7.422   2.348   4.197
14650TIP3    H143907   7.411   2.364   4.103
14650TIP3    H243908   7.387   2.260   4.210
14651TIP3   OH243909   2.100   7.485   2.382
14651TIP3    H143910   2.004   7.477   2.381
14651TIP3    H243911   2.127   7.455   2.296
14652TIP3   OH243912   2.949   2.520   2.875
14652TIP3    H143913   2.985   2.607   2.892
14652TIP3    H243914   2.942   2.479   2.961
14653TIP3   OH243915   4.145   3.147   5.086
14653TIP3    H143916   4.179   3.081   5.146
14653TIP3    H243917   4.170   3.231   5.125
14654TIP3   OH243918   0.196   2.065   1.162
14654TIP3    H143919   0.210   1.974   1.133
14654TIP3    H243920   0.129   2.099   1.103
14655TIP3   OH243921   6.080   6.340   1.453
14655TIP3    H143922   6.055   6.342   1.361
14655TIP3    H243923   5.999   6.315   1.499
14656TIP3   OH243924   5.529   4.143   4.929
14656TIP3    H143925   5.526   4.151   4.834
14656TIP3    H243926   5.476   4.216   4.961
14657TIP3   OH243927   4.525   2.815   5.098
14657TIP3    H143928   4.486   2.869   5.166
14657TIP3    H243929   4.615   2.845   5.091
14658TIP3   OH243930   2.866   4.575   1.683
14658TIP3    H143931   2.874   4.535   1.596
14658TIP3    H243932   2.792   4.529   1.724
14659TIP3   OH243933   1.359   5.455   2.783
14659TIP3    H143934   1.365   5.545   2.751
14659TIP3    H243935   1.446   5.434   2.816
14660TIP3   OH243936   6.624   6.167   6.317
14660TIP3    H143937   6.579   6.211   6.244
14660TIP3    H243938   6.656   6.085   6.280
14661TIP3   OH243939   4.413   1.496   1.301
14661TIP3    H143940   4.479   1.505   1.232
14661TIP3    H243941   4.443   1.422   1.354
14662TIP3   OH243942   5.729   7.153   2.314
14662TIP3    H143943   5.807   7.102   2.335
14662TIP3    H243944   5.690   7.107   2.240
14663TIP3   OH243945   4.006   4.091   4.877
14663TIP3    H143946   3.926   4.040   4.889
14663TIP3    H243947   4.070   4.029   4.843
14664TIP3   OH243948   0.029   2.960   3.816
14664TIP3    H143949   0.060   2.932   3.902
14664TIP3    H243950  -0.012   3.045   3.832
14665TIP3   OH243951   6.735   4.520   0.530
14665TIP3    H143952   6.806   4.480   0.480
14665TIP3    H243953   6.743   4.481   0.617
14666TIP3   OH243954   0.400   6.534   1.347
14666TIP3    H143955   0.400   6.438   1.351
14666TIP3    H243956   0.491   6.558   1.363
14667TIP3   OH243957   2.043   1.262   1.006
14667TIP3    H143958   2.070   1.241   0.917
14667TIP3    H243959   2.003   1.181   1.039
14668TIP3   OH243960   1.416   3.580   0.522
14668TIP3    H143961   1.374   3.648   0.574
14668TIP3    H243962   1.394   3.498   0.566
14669TIP3   OH243963   5.914   2.624   3.986
14669TIP3    H143964   5.956   2.627   4.072
14669TIP3    H243965   5.893   2.715   3.966
14670TIP3   OH243966   0.376   6.855   0.453
14670TIP3    H143967   0.429   6.931   0.478
14670TIP3    H243968   0.309   6.849   0.520
14671TIP3   OH243969   3.251   4.926   4.985
14671TIP3    H143970   3.168   4.880   4.970
14671TIP3    H243971   3.234   4.983   5.060
14672TIP3   OH243972   4.989   5.357   1.377
14672TIP3    H143973   5.079   5.360   1.407
14672TIP3    H243974   4.937   5.371   1.456
14673TIP3   OH243975   3.240   2.400   3.241
14673TIP3    H143976   3.183   2.325   3.259
14673TIP3    H243977   3.324   2.361   3.218
14674TIP3   OH243978   1.623   7.140   1.117
14674TIP3    H143979   1.547   7.196   1.132
14674TIP3    H243980   1.598   7.055   1.153
14675TIP3   OH243981   1.344   1.174   1.172
14675TIP3    H143982   1.434   1.145   1.188
14675TIP3    H243983   1.290   1.116   1.227
14676TIP3   OH243984   2.560   4.858   4.651
14676TIP3    H143985   2.545   4.786   4.591
14676TIP3    H243986   2.472   4.888   4.675
14677TIP3   OH243987   7.913   7.100   3.271
14677TIP3    H143988   7.949   7.079   3.357
14677TIP3    H243989   7.970   7.170   3.238
14678TIP3   OH243990   2.338   3.239   2.954
14678TIP3    H143991   2.275   3.310   2.951
14678TIP3    H243992   2.424   3.283   2.949
14679TIP3   OH243993   2.544   4.425   6.753
14679TIP3    H143994   2.491   4.500   6.781
14679TIP3    H243995   2.565   4.443   6.662
14680TIP3   OH243996   2.727   0.333   6.556
14680TIP3    H143997   2.707   0.418   6.595
14680TIP3    H243998   2.648   0.281   6.572
14681TIP3   OH243999   2.433   2.570   4.739
14681TIP3    H144000   2.415   2.628   4.814
14681TIP3    H244001   2.470   2.491   4.777
14682TIP3   OH244002   5.067   7.477   2.919
14682TIP3    H144003   5.125   7.403   2.901
14682TIP3    H244004   5.005   7.443   2.983
14683TIP3   OH244005   3.655   4.301   0.264
14683TIP3    H144006   3.697   4.253   0.193
14683TIP3    H244007   3.563   4.272   0.262
14684TIP3   OH244008   5.914   5.215   1.412
14684TIP3    H144009   5.975   5.205   1.339
14684TIP3    H244010   5.954   5.282   1.468
14685TIP3   OH244011   2.591   5.401   1.652
14685TIP3    H144012   2.573   5.313   1.687
14685TIP3    H244013   2.678   5.394   1.612
14686TIP3   OH244014   2.981   2.103   1.031
14686TIP3    H144015   2.948   2.169   1.092
14686TIP3    H244016   2.963   2.139   0.944
14687TIP3   OH244017   6.590   7.793   1.810
14687TIP3    H144018   6.577   7.842   1.728
14687TIP3    H244019   6.667   7.739   1.793
14688TIP3   OH244020   3.516   6.662   5.579
14688TIP3    H144021   3.549   6.594   5.638
14688TIP3    H244022   3.521   6.742   5.630
14689TIP3   OH244023   2.650   0.461   4.953
14689TIP3    H144024   2.680   0.524   5.019
14689TIP3    H244025   2.726   0.404   4.939
14690TIP3   OH244026   4.104   2.392   2.492
14690TIP3    H144027   4.053   2.440   2.428
14690TIP3    H244028   4.040   2.363   2.558
14691TIP3   OH244029   1.603   3.373   1.159
14691TIP3    H144030   1.679   3.420   1.123
14691TIP3    H244031   1.570   3.322   1.085
14692TIP3   OH244032   3.971   5.645   3.372
14692TIP3    H144033   4.036   5.633   3.303
14692TIP3    H244034   3.937   5.557   3.390
14693TIP3   OH244035   4.842   1.784   6.095
14693TIP3    H144036   4.863   1.845   6.166
14693TIP3    H244037   4.778   1.831   6.042
14694TIP3   OH244038   4.302   1.775   1.307
14694TIP3    H144039   4.390   1.800   1.335
14694TIP3    H244040   4.311   1.685   1.276
14695TIP3   OH244041   3.730   0.720   5.793
14695TIP3    H144042   3.751   0.639   5.747
14695TIP3    H244043   3.775   0.711   5.878
14696TIP3   OH244044   7.744   0.137   1.946
14696TIP3    H144045   7.736   0.232   1.952
14696TIP3    H244046   7.683   0.103   2.010
14697TIP3   OH244047   7.616   7.621   6.300
14697TIP3    H144048   7.694   7.643   6.249
14697TIP3    H244049   7.549   7.601   6.235
14698TIP3   OH244050   8.295   1.478   0.467
14698TIP3    H144051   8.234   1.495   0.395
14698TIP3    H244052   8.374   1.525   0.442
14699TIP3   OH244053   7.820   1.471   2.194
14699TIP3    H144054   7.793   1.417   2.120
14699TIP3    H244055   7.739   1.515   2.222
14700TIP3   OH244056   1.244   0.944   5.310
14700TIP3    H144057   1.179   0.873   5.311
14700TIP3    H244058   1.309   0.916   5.246
14701TIP3   OH244059   5.391   0.612   6.234
14701TIP3    H144060   5.351   0.551   6.172
14701TIP3    H244061   5.331   0.685   6.238
14702TIP3   OH244062   7.853   6.801   3.050
14702TIP3    H144063   7.803   6.772   2.973
14702TIP3    H244064   7.825   6.742   3.120
14703TIP3   OH244065   4.630   1.609   4.999
14703TIP3    H144066   4.653   1.532   5.050
14703TIP3    H244067   4.640   1.682   5.060
14704TIP3   OH244068   2.223   2.426   4.118
14704TIP3    H144069   2.128   2.416   4.127
14704TIP3    H244070   2.251   2.459   4.203
14705TIP3   OH244071   7.199   3.402   3.240
14705TIP3    H144072   7.123   3.452   3.210
14705TIP3    H244073   7.172   3.366   3.325
14706TIP3   OH244074   5.925   3.744   5.931
14706TIP3    H144075   5.992   3.712   5.871
14706TIP3    H244076   5.843   3.732   5.883
14707TIP3   OH244077   2.336   0.610   5.839
14707TIP3    H144078   2.431   0.605   5.841
14707TIP3    H244079   2.317   0.686   5.784
14708TIP3   OH244080   0.318   0.891   1.256
14708TIP3    H144081   0.233   0.850   1.237
14708TIP3    H244082   0.357   0.834   1.322
14709TIP3   OH244083   1.277   5.451   3.051
14709TIP3    H144084   1.295   5.464   2.958
14709TIP3    H244085   1.336   5.512   3.096
14710TIP3   OH244086   1.292   0.346   6.035
14710TIP3    H144087   1.355   0.306   6.096
14710TIP3    H244088   1.234   0.274   6.011
14711TIP3   OH244089   8.252   0.386   3.616
14711TIP3    H144090   8.201   0.333   3.676
14711TIP3    H244091   8.192   0.402   3.542
14712TIP3   OH244092   5.495   1.627   2.048
14712TIP3    H144093   5.533   1.709   2.018
14712TIP3    H244094   5.568   1.579   2.087
14713TIP3   OH244095   1.411   5.128   4.473
14713TIP3    H144096   1.433   5.195   4.408
14713TIP3    H244097   1.475   5.059   4.459
14714TIP3   OH244098   3.836   5.212   3.980
14714TIP3    H144099   3.906   5.272   3.955
14714TIP3    H244100   3.870   5.125   3.959
14715TIP3   OH244101   4.630   3.623   2.417
14715TIP3    H144102   4.675   3.606   2.499
14715TIP3    H244103   4.547   3.575   2.425
14716TIP3   OH244104   0.469   2.176   1.384
14716TIP3    H144105   0.554   2.144   1.417
14716TIP3    H244106   0.446   2.246   1.445
14717TIP3   OH244107   2.021   6.936   3.603
14717TIP3    H144108   1.959   6.990   3.553
14717TIP3    H244109   1.970   6.859   3.629
14718TIP3   OH244110   1.157   6.941   6.012
14718TIP3    H144111   1.198   7.026   5.996
14718TIP3    H244112   1.063   6.958   6.004
14719TIP3   OH244113   2.857   2.779   5.391
14719TIP3    H144114   2.853   2.773   5.295
14719TIP3    H244115   2.925   2.844   5.408
14720TIP3   OH244116   3.489   5.781   3.603
14720TIP3    H144117   3.414   5.723   3.610
14720TIP3    H244118   3.563   5.722   3.588
14721TIP3   OH244119   6.565   5.022   0.491
14721TIP3    H144120   6.651   5.064   0.491
14721TIP3    H244121   6.584   4.928   0.487
14722TIP3   OH244122   4.291   3.525   3.222
14722TIP3    H144123   4.236   3.602   3.236
14722TIP3    H244124   4.326   3.505   3.308
14723TIP3   OH244125   7.208   2.468   0.068
14723TIP3    H144126   7.196   2.394   0.127
14723TIP3    H244127   7.225   2.542   0.126
14724TIP3   OH244128   2.696   2.236   0.575
14724TIP3    H144129   2.609   2.232   0.615
14724TIP3    H244130   2.753   2.194   0.639
14725TIP3   OH244131   7.650   7.179   0.094
14725TIP3    H144132   7.641   7.126   0.174
14725TIP3    H244133   7.716   7.245   0.117
14726TIP3   OH244134   1.517   0.870   5.486
14726TIP3    H144135   1.482   0.805   5.548
14726TIP3    H244136   1.600   0.832   5.457
14727TIP3   OH244137   6.915   1.590   4.584
14727TIP3    H144138   6.836   1.558   4.541
14727TIP3    H244139   6.974   1.614   4.513
14728TIP3   OH244140   7.156   3.654   5.687
14728TIP3    H144141   7.100   3.728   5.664
14728TIP3    H244142   7.176   3.612   5.603
14729TIP3   OH244143   6.377   5.695   1.213
14729TIP3    H144144   6.394   5.601   1.208
14729TIP3    H244145   6.390   5.716   1.306
14730TIP3   OH244146   1.216   0.280   4.825
14730TIP3    H144147   1.132   0.325   4.834
14730TIP3    H244148   1.281   0.344   4.852
14731TIP3   OH244149   8.071   3.237   5.205
14731TIP3    H144150   8.111   3.156   5.174
14731TIP3    H244151   8.033   3.214   5.290
14732TIP3   OH244152   6.187   5.716   5.183
14732TIP3    H144153   6.133   5.696   5.259
14732TIP3    H244154   6.155   5.658   5.115
14733TIP3   OH244155   2.774   1.568   2.062
14733TIP3    H144156   2.729   1.495   2.104
14733TIP3    H244157   2.782   1.634   2.130
14734TIP3   OH244158   3.643   4.222   1.248
14734TIP3    H144159   3.553   4.192   1.255
14734TIP3    H244160   3.693   4.162   1.304
14735TIP3   OH244161   7.557   1.463   4.802
14735TIP3    H144162   7.531   1.479   4.893
14735TIP3    H244163   7.645   1.426   4.809
14736TIP3   OH244164   0.420   5.338   2.863
14736TIP3    H144165   0.410   5.426   2.826
14736TIP3    H244166   0.510   5.313   2.841
14737TIP3   OH244167   5.209   4.873   1.358
14737TIP3    H144168   5.270   4.842   1.426
14737TIP3    H244169   5.151   4.798   1.343
14738TIP3   OH244170   5.107   0.351   6.261
14738TIP3    H144171   5.134   0.411   6.192
14738TIP3    H244172   5.173   0.282   6.260
14739TIP3   OH244173   1.426   1.110   4.418
14739TIP3    H144174   1.382   1.027   4.433
14739TIP3    H244175   1.485   1.119   4.493
14740TIP3   OH244176   7.548   0.050   2.539
14740TIP3    H144177   7.567   0.121   2.478
14740TIP3    H244178   7.545  -0.029   2.485
14741TIP3   OH244179   5.963   1.954   4.995
14741TIP3    H144180   6.005   1.938   4.911
14741TIP3    H244181   6.002   1.890   5.054
14742TIP3   OH244182   4.091   7.572   0.624
14742TIP3    H144183   4.004   7.540   0.651
14742TIP3    H244184   4.089   7.665   0.644
14743TIP3   OH244185   6.716   5.041   2.054
14743TIP3    H144186   6.641   5.083   2.012
14743TIP3    H244187   6.710   5.068   2.146
14744TIP3   OH244188   0.500   2.980   6.214
14744TIP3    H144189   0.411   3.012   6.205
14744TIP3    H244190   0.542   3.041   6.275
14745TIP3   OH244191   1.415   0.946   3.257
14745TIP3    H144192   1.366   0.965   3.337
14745TIP3    H244193   1.434   1.032   3.220
14746TIP3   OH244194   1.448   6.159   1.787
14746TIP3    H144195   1.393   6.207   1.725
14746TIP3    H244196   1.473   6.079   1.740
14747TIP3   OH244197   5.824   4.799   6.111
14747TIP3    H144198   5.902   4.853   6.124
14747TIP3    H244199   5.859   4.710   6.099
14748TIP3   OH244200   3.530   2.415   0.588
14748TIP3    H144201   3.597   2.393   0.523
14748TIP3    H244202   3.570   2.486   0.639
14749TIP3   OH244203   5.754   1.833   6.222
14749TIP3    H144204   5.718   1.744   6.224
14749TIP3    H244205   5.769   1.855   6.313
14750TIP3   OH244206   2.970   3.013   3.974
14750TIP3    H144207   3.030   2.948   4.012
14750TIP3    H244208   2.885   2.993   4.014
14751TIP3   OH244209   6.739   7.555   5.987
14751TIP3    H144210   6.679   7.562   5.912
14751TIP3    H244211   6.714   7.473   6.030
14752TIP3   OH244212   6.519   7.533   1.446
14752TIP3    H144213   6.532   7.541   1.541
14752TIP3    H244214   6.597   7.488   1.415
14753TIP3   OH244215   7.560   1.181   1.352
14753TIP3    H144216   7.530   1.091   1.360
14753TIP3    H244217   7.641   1.184   1.404
14754TIP3   OH244218   4.934   2.436   1.076
14754TIP3    H144219   4.963   2.372   1.013
14754TIP3    H244220   4.841   2.417   1.089
14755TIP3   OH244221   4.075   5.843   2.916
14755TIP3    H144222   4.054   5.750   2.910
14755TIP3    H244223   4.162   5.851   2.876
14756TIP3   OH244224   3.292   0.469   4.343
14756TIP3    H144225   3.201   0.448   4.365
14756TIP3    H244226   3.303   0.560   4.372
14757TIP3   OH244227   0.782   7.199   4.285
14757TIP3    H144228   0.724   7.131   4.319
14757TIP3    H244229   0.800   7.173   4.195
14758TIP3   OH244230   0.864   1.560   1.577
14758TIP3    H144231   0.959   1.563   1.588
14758TIP3    H244232   0.830   1.603   1.655
14759TIP3   OH244233   4.898   5.210   3.336
14759TIP3    H144234   4.933   5.168   3.257
14759TIP3    H244235   4.975   5.247   3.379
14760TIP3   OH244236   0.005   4.377   6.173
14760TIP3    H144237  -0.005   4.471   6.156
14760TIP3    H244238   0.084   4.370   6.226
14761TIP3   OH244239   8.004   0.901   6.172
14761TIP3    H144240   8.041   0.876   6.257
14761TIP3    H244241   8.002   0.820   6.122
14762TIP3   OH244242   1.664   1.525   1.676
14762TIP3    H144243   1.623   1.610   1.659
14762TIP3    H244244   1.710   1.537   1.760
14763TIP3   OH244245   1.254   5.671   5.061
14763TIP3    H144246   1.329   5.731   5.062
14763TIP3    H244247   1.289   5.589   5.026
14764TIP3   OH244248   5.030   2.330   1.789
14764TIP3    H144249   4.954   2.365   1.741
14764TIP3    H244250   5.069   2.406   1.831
14765TIP3   OH244251   7.315   2.153   2.770
14765TIP3    H144252   7.407   2.141   2.746
14765TIP3    H244253   7.284   2.066   2.793
14766TIP3   OH244254   8.029   5.929   6.013
14766TIP3    H144255   7.950   5.974   6.043
14766TIP3    H244256   8.012   5.837   6.032
14767TIP3   OH244257   5.459   4.654   3.412
14767TIP3    H144258   5.447   4.559   3.417
14767TIP3    H244259   5.459   4.673   3.319
14768TIP3   OH244260   0.014   6.999   3.299
14768TIP3    H144261  -0.065   6.947   3.318
14768TIP3    H244262   0.080   6.934   3.277
14769TIP3   OH244263   7.631   1.222   1.660
14769TIP3    H144264   7.548   1.177   1.649
14769TIP3    H244265   7.671   1.179   1.737
14770TIP3   OH244266   2.014   3.250   0.923
14770TIP3    H144267   1.962   3.218   0.850
14770TIP3    H244268   2.075   3.178   0.942
14771TIP3   OH244269   3.369   3.788   0.468
14771TIP3    H144270   3.360   3.859   0.531
14771TIP3    H244271   3.375   3.709   0.523
14772TIP3   OH244272   7.632   3.972   1.770
14772TIP3    H144273   7.625   4.011   1.682
14772TIP3    H244274   7.572   4.024   1.824
14773TIP3   OH244275   2.539   6.931   4.660
14773TIP3    H144276   2.485   7.008   4.645
14773TIP3    H244277   2.582   6.947   4.744
14774TIP3   OH244278   5.016   4.149   3.291
14774TIP3    H144279   5.080   4.217   3.270
14774TIP3    H244280   4.932   4.194   3.294
14775TIP3   OH244281   7.392   6.607   2.379
14775TIP3    H144282   7.316   6.664   2.389
14775TIP3    H244283   7.452   6.656   2.322
14776TIP3   OH244284   0.601   0.609   4.789
14776TIP3    H144285   0.654   0.665   4.732
14776TIP3    H244286   0.618   0.643   4.877
14777TIP3   OH244287   4.654   0.743   3.814
14777TIP3    H144288   4.743   0.765   3.786
14777TIP3    H244289   4.622   0.683   3.747
14778TIP3   OH244290   6.259   5.418   1.942
14778TIP3    H144291   6.223   5.330   1.953
14778TIP3    H244292   6.184   5.471   1.915
14779TIP3   OH244293   6.208   1.936   5.187
14779TIP3    H144294   6.287   1.947   5.241
14779TIP3    H244295   6.142   1.991   5.229
14780TIP3   OH244296   1.650   4.631   5.948
14780TIP3    H144297   1.721   4.668   5.896
14780TIP3    H244298   1.593   4.705   5.967
14781TIP3   OH244299   2.664   6.501   5.698
14781TIP3    H144300   2.746   6.545   5.673
14781TIP3    H244301   2.690   6.411   5.718
14782TIP3   OH244302   5.655   6.608   1.308
14782TIP3    H144303   5.605   6.599   1.227
14782TIP3    H244304   5.640   6.525   1.354
14783TIP3   OH244305   0.007   6.091   3.847
14783TIP3    H144306  -0.028   6.019   3.795
14783TIP3    H244307   0.089   6.114   3.805
14784TIP3   OH244308   4.381   4.990   5.674
14784TIP3    H144309   4.408   5.079   5.651
14784TIP3    H244310   4.371   4.946   5.590
14785TIP3   OH244311   4.035   7.410   1.565
14785TIP3    H144312   3.996   7.349   1.626
14785TIP3    H244313   4.116   7.439   1.608
14786TIP3   OH244314   8.177   7.319   4.314
14786TIP3    H144315   8.139   7.406   4.331
14786TIP3    H244316   8.265   7.324   4.352
14787TIP3   OH244317   7.165   6.114   2.968
14787TIP3    H144318   7.073   6.090   2.962
14787TIP3    H244319   7.211   6.030   2.976
14788TIP3   OH244320   7.411   3.637   0.356
14788TIP3    H144321   7.442   3.546   0.357
14788TIP3    H244322   7.372   3.648   0.270
14789TIP3   OH244323   0.715   3.034   0.813
14789TIP3    H144324   0.747   2.954   0.771
14789TIP3    H244325   0.770   3.104   0.778
14790TIP3   OH244326   4.134   4.364   4.916
14790TIP3    H144327   4.104   4.276   4.893
14790TIP3    H244328   4.228   4.353   4.932
14791TIP3   OH244329   2.308   5.430   1.677
14791TIP3    H144330   2.398   5.402   1.693
14791TIP3    H244331   2.254   5.356   1.705
14792TIP3   OH244332  -0.016   4.717   4.879
14792TIP3    H144333   0.062   4.758   4.917
14792TIP3    H244334  -0.040   4.775   4.806
14793TIP3   OH244335   1.658   2.635   2.893
14793TIP3    H144336   1.692   2.723   2.878
14793TIP3    H244337   1.691   2.610   2.979
14794TIP3   OH244338   6.337   4.538   4.192
14794TIP3    H144339   6.394   4.615   4.187
14794TIP3    H244340   6.248   4.573   4.182
14795TIP3   OH244341   1.468   0.597   3.433
14795TIP3    H144342   1.454   0.527   3.497
14795TIP3    H244343   1.416   0.670   3.466
14796TIP3   OH244344   0.904   6.045   3.738
14796TIP3    H144345   0.959   6.005   3.806
14796TIP3    H244346   0.883   5.972   3.680
14797TIP3   OH244347   2.472   0.082   4.414
14797TIP3    H144348   2.525   0.101   4.337
14797TIP3    H244349   2.383   0.074   4.380
14798TIP3   OH244350   1.398   1.556   0.406
14798TIP3    H144351   1.366   1.587   0.321
14798TIP3    H244352   1.465   1.492   0.384
14799TIP3   OH244353   5.596   2.835   0.263
14799TIP3    H144354   5.556   2.772   0.322
14799TIP3    H244355   5.533   2.846   0.192
14800TIP3   OH244356   1.573   4.673   1.909
14800TIP3    H144357   1.569   4.621   1.990
14800TIP3    H244358   1.584   4.608   1.840
14801TIP3   OH244359   0.783   1.218   1.229
14801TIP3    H144360   0.771   1.304   1.189
14801TIP3    H244361   0.727   1.160   1.179
14802TIP3   OH244362   7.779   4.343   1.854
14802TIP3    H144363   7.787   4.284   1.928
14802TIP3    H244364   7.825   4.299   1.782
14803TIP3   OH244365   3.286   6.349   3.823
14803TIP3    H144366   3.337   6.372   3.902
14803TIP3    H244367   3.249   6.432   3.794
14804TIP3   OH244368   5.004   0.602   1.396
14804TIP3    H144369   4.968   0.556   1.321
14804TIP3    H244370   5.092   0.627   1.369
14805TIP3   OH244371   5.485   2.263   6.571
14805TIP3    H144372   5.518   2.353   6.574
14805TIP3    H244373   5.536   2.217   6.638
14806TIP3   OH244374   3.600   4.807   3.047
14806TIP3    H144375   3.567   4.873   2.986
14806TIP3    H244376   3.605   4.853   3.131
14807TIP3   OH244377   1.476   1.129   5.551
14807TIP3    H144378   1.484   1.035   5.538
14807TIP3    H244379   1.448   1.163   5.465
14808TIP3   OH244380   6.844   7.334   6.757
14808TIP3    H144381   6.876   7.409   6.808
14808TIP3    H244382   6.878   7.257   6.802
14809TIP3   OH244383   6.722   2.243   6.344
14809TIP3    H144384   6.799   2.191   6.320
14809TIP3    H244385   6.758   2.329   6.366
14810TIP3   OH244386   7.897   3.421   4.626
14810TIP3    H144387   7.943   3.459   4.700
14810TIP3    H244388   7.848   3.494   4.588
14811TIP3   OH244389   4.849   0.798   4.011
14811TIP3    H144390   4.761   0.762   4.008
14811TIP3    H244391   4.847   0.874   3.953
14812TIP3   OH244392   0.985   2.961   6.145
14812TIP3    H144393   0.952   2.937   6.232
14812TIP3    H244394   1.076   2.932   6.145
14813TIP3   OH244395   7.791   4.629   4.479
14813TIP3    H144396   7.859   4.696   4.476
14813TIP3    H244397   7.833   4.550   4.445
14814TIP3   OH244398   6.865   3.058   2.812
14814TIP3    H144399   6.902   3.145   2.804
14814TIP3    H244400   6.938   2.999   2.795
14815TIP3   OH244401   5.231   1.841   5.156
14815TIP3    H144402   5.174   1.829   5.233
14815TIP3    H244403   5.294   1.769   5.162
14816TIP3   OH244404   2.126   7.356   3.207
14816TIP3    H144405   2.187   7.405   3.262
14816TIP3    H244406   2.127   7.267   3.243
14817TIP3   OH244407   2.673   2.169   0.961
14817TIP3    H144408   2.630   2.085   0.942
14817TIP3    H244409   2.729   2.184   0.885
14818TIP3   OH244410   6.477   1.168   6.236
14818TIP3    H144411   6.560   1.170   6.188
14818TIP3    H244412   6.425   1.239   6.197
14819TIP3   OH244413   4.706   3.074   0.173
14819TIP3    H144414   4.750   3.141   0.120
14819TIP3    H244415   4.682   3.120   0.254
14820TIP3   OH244416   2.481   2.602   1.437
14820TIP3    H144417   2.389   2.578   1.437
14820TIP3    H244418   2.508   2.593   1.528
14821TIP3   OH244419   5.913   3.925   2.806
14821TIP3    H144420   5.875   3.840   2.784
14821TIP3    H244421   5.842   3.973   2.848
14822TIP3   OH244422   1.478   7.648   3.991
14822TIP3    H144423   1.423   7.702   4.047
14822TIP3    H244424   1.463   7.559   4.023
14823TIP3   OH244425   0.931   6.909   3.790
14823TIP3    H144426   1.018   6.932   3.823
14823TIP3    H244427   0.929   6.813   3.794
14824TIP3   OH244428   1.336   1.630   4.613
14824TIP3    H144429   1.267   1.628   4.547
14824TIP3    H244430   1.330   1.544   4.656
14825TIP3   OH244431   5.941   6.753   6.301
14825TIP3    H144432   5.888   6.772   6.224
14825TIP3    H244433   6.004   6.688   6.272
14826TIP3   OH244434   2.121   1.263   0.390
14826TIP3    H144435   2.036   1.218   0.391
14826TIP3    H244436   2.171   1.218   0.321
14827TIP3   OH244437   5.793   3.290   0.844
14827TIP3    H144438   5.870   3.306   0.900
14827TIP3    H244439   5.797   3.197   0.825
14828TIP3   OH244440   6.695   0.945   4.833
14828TIP3    H144441   6.770   0.885   4.827
14828TIP3    H244442   6.684   0.960   4.926
14829TIP3   OH244443   8.191   4.450   3.621
14829TIP3    H144444   8.119   4.399   3.659
14829TIP3    H244445   8.254   4.385   3.592
14830TIP3   OH244446   5.724   1.104   2.120
14830TIP3    H144447   5.734   1.134   2.211
14830TIP3    H244448   5.738   1.182   2.067
14831TIP3   OH244449   6.515   4.649   5.232
14831TIP3    H144450   6.440   4.601   5.197
14831TIP3    H244451   6.522   4.620   5.323
14832TIP3   OH244452   5.747   2.600   1.656
14832TIP3    H144453   5.741   2.668   1.724
14832TIP3    H244454   5.712   2.521   1.698
14833TIP3   OH244455   4.976   4.546   2.162
14833TIP3    H144456   5.050   4.591   2.120
14833TIP3    H244457   4.900   4.598   2.137
14834TIP3   OH244458   8.128   4.936   3.178
14834TIP3    H144459   8.119   4.843   3.158
14834TIP3    H244460   8.040   4.972   3.170
14835TIP3   OH244461   6.181   7.524   1.706
14835TIP3    H144462   6.164   7.435   1.676
14835TIP3    H244463   6.098   7.554   1.741
14836TIP3   OH244464   1.223   5.318   5.456
14836TIP3    H144465   1.315   5.316   5.429
14836TIP3    H244466   1.188   5.396   5.413
14837TIP3   OH244467   5.177   1.667   2.189
14837TIP3    H144468   5.221   1.626   2.115
14837TIP3    H244469   5.199   1.760   2.182
   8.29816   7.82357   6.77542   0.00000   0.00000  -2.76605   0.00000  -2.76605  -3.91179
