Title
29212
    1ASP      N    1   1.625   1.759   3.323  0.5729 -0.5582 -0.3342
    1ASP    HT1    2   1.654   1.857   3.301  1.3378 -0.2220  1.9172
    1ASP    HT2    3   1.609   1.704   3.237  1.2841 -0.0208 -0.8192
    1ASP    HT3    4   1.697   1.721   3.389 -0.6563 -0.8938  0.8612
    1ASP     CA    5   1.493   1.772   3.400  0.0511 -0.5074  0.3117
    1ASP     HA    6   1.450   1.675   3.417  1.8435 -1.0523  2.2035
    1ASP     CB    7   1.521   1.848   3.540  0.4915 -0.7072 -0.7490
    1ASP    HB1    8   1.519   1.958   3.524  1.1012 -0.3298  1.4440
    1ASP    HB2    9   1.617   1.808   3.578 -0.0942 -1.4524  0.0061
    1ASP     CG   10   1.413   1.819   3.643  0.4871  0.4051 -0.3364
    1ASP    OD1   11   1.314   1.743   3.616 -0.5201 -0.3066 -0.5588
    1ASP    OD2   12   1.421   1.870   3.757 -0.2643  0.1908  0.2065
    1ASP      C   13   1.391   1.844   3.315  0.0899  0.1014  0.1459
    1ASP      O   14   1.407   1.837   3.195 -0.2943  0.4565  0.7961
    2GLY      N   15   1.293   1.924   3.370  0.3356  0.7171 -0.4807
    2GLY     HN   16   1.293   1.928   3.470  2.1985 -2.2549 -0.2289
    2GLY     CA   17   1.190   1.995   3.289  0.5836  0.3645  0.2998
    2GLY    HA1   18   1.222   2.008   3.186 -0.3201  1.5247  0.1469
    2GLY    HA2   19   1.170   2.090   3.335 -0.2902  0.5753 -0.4785
    2GLY      C   20   1.060   1.919   3.277  0.0737  0.2049 -0.2950
    2GLY      O   21   1.060   1.799   3.258 -0.0956 -0.7391 -0.3674
    3ASP      N   22   0.952   2.000   3.277  0.4456 -0.0491 -0.3056
    3ASP     HN   23   0.966   2.099   3.286 -0.3932  0.0299  0.3216
    3ASP     CA   24   0.818   1.957   3.256 -0.2737 -0.1075  0.4593
    3ASP     HA   25   0.798   1.880   3.329  3.2511 -1.1044  0.5459
    3ASP     CB   26   0.718   2.074   3.288  0.6315  0.2127 -0.5546
    3ASP    HB1   27   0.742   2.163   3.226  1.0626  2.0214  2.0474
    3ASP    HB2   28   0.737   2.109   3.392 -0.4505 -3.3741  1.0164
    3ASP     CG   29   0.572   2.035   3.277  1.1674 -0.4109  0.3978
    3ASP    OD1   30   0.497   2.111   3.216  0.5090  0.4560 -0.2406
    3ASP    OD2   31   0.526   1.926   3.330  0.1949 -0.0012 -0.4197
    3ASP      C   32   0.793   1.888   3.120  0.6657 -0.3613  0.2065
    3ASP      O   33   0.848   1.930   3.015 -0.0068  0.5807 -0.3604
    4GLY      N   34   0.724   1.773   3.114  1.0193 -0.4308  0.5932
    4GLY     HN   35   0.686   1.743   3.202 -0.9833  0.4924  0.0903
    4GLY     CA   36   0.691   1.704   2.993 -0.4572  0.3341  0.0007
    4GLY    HA1   37   0.672   1.606   3.035  3.9153 -1.6293 -1.9728
    4GLY    HA2   38   0.770   1.719   2.921  0.4652  0.2691  0.9803
    4GLY      C   39   0.569   1.747   2.923 -0.9597  0.0074 -0.0712
    4GLY      O   40   0.511   1.849   2.960 -0.5329 -0.6703 -0.1317
    5PRO      N   41   0.538   1.684   2.816  0.3324  0.1409  0.0854
    5PRO     CD   42   0.612   1.568   2.764  0.5397 -0.4831 -0.0740
    5PRO    HD1   43   0.639   1.494   2.842 -0.5380  0.6193  1.3944
    5PRO    HD2   44   0.708   1.597   2.716  1.1253 -0.8766  0.8195
    5PRO     CA   45   0.443   1.735   2.715  0.2829  0.2339  0.2345
    5PRO     HA   46   0.454   1.841   2.698 -2.6997  0.6133  0.0711
    5PRO     CB   47   0.459   1.641   2.590  0.2595 -1.0232 -0.6337
    5PRO    HB1   48   0.538   1.684   2.524  0.5069 -2.1791 -1.1240
    5PRO    HB2   49   0.367   1.622   2.530  0.0240 -2.9535  0.2731
    5PRO     CG   50   0.525   1.514   2.648 -0.2838 -0.3945 -0.4210
    5PRO    HG1   51   0.456   1.434   2.683  0.7790 -0.9392  0.5237
    5PRO    HG2   52   0.584   1.466   2.567 -1.2812 -4.0807  0.8330
    5PRO      C   53   0.303   1.728   2.769  0.1221  0.1213  0.3593
    5PRO      O   54   0.232   1.824   2.752 -0.0226  0.5598 -0.3852
    6GLY      N   55   0.255   1.617   2.828 -0.2637  0.3082 -0.2891
    6GLY     HN   56   0.307   1.532   2.827  2.4662  1.8487  0.2082
    6GLY     CA   57   0.118   1.610   2.890 -0.0938  0.2617  0.4797
    6GLY    HA1   58   0.124   1.520   2.950 -0.9304 -0.4330 -0.4447
    6GLY    HA2   59   0.048   1.602   2.808  1.1133 -2.5986 -0.4301
    6GLY      C   60   0.080   1.714   2.989  0.1072  0.1174  0.7270
    6GLY      O   61   0.159   1.792   3.031  0.0298  0.4839 -0.0835
    7ASP      N   62  -0.055   1.728   3.016  0.3030 -0.2256 -0.3479
    7ASP     HN   63  -0.124   1.668   2.976  0.6675 -3.8115  3.6567
    7ASP     CA   64  -0.125   1.806   3.119 -0.0582 -0.0040 -0.5917
    7ASP     HA   65  -0.077   1.903   3.121  0.2037 -0.0856  2.4998
    7ASP     CB   66  -0.271   1.807   3.077 -0.5517 -0.1751 -0.4987
    7ASP    HB1   67  -0.342   1.834   3.158 -0.0788  1.7567 -0.6841
    7ASP    HB2   68  -0.289   1.701   3.047 -0.9350 -0.7073  1.4142
    7ASP     CG   69  -0.292   1.898   2.963 -0.1712 -0.0495 -0.6842
    7ASP    OD1   70  -0.414   1.895   2.923 -0.4456  0.3273  0.0729
    7ASP    OD2   71  -0.208   1.980   2.930 -0.5345  0.5461  0.3725
    7ASP      C   72  -0.104   1.748   3.261  0.1338  0.3958 -0.0497
    7ASP      O   73  -0.072   1.629   3.267 -0.0413  0.5779  0.4378
    8PRO      N   74  -0.117   1.822   3.369 -0.7303  0.3614 -0.1299
    8PRO     CD   75  -0.146   1.967   3.370 -0.1512  0.1866 -0.1529
    8PRO    HD1   76  -0.250   1.974   3.332 -0.3600 -2.6600 -0.3107
    8PRO    HD2   77  -0.065   2.022   3.318  2.0400 -0.5084  2.3116
    8PRO     CA   78  -0.122   1.768   3.505 -0.3729 -0.2942 -0.1088
    8PRO     HA   79  -0.016   1.765   3.527 -0.2695  0.0464 -0.5341
    8PRO     CB   80  -0.183   1.878   3.588  0.4890  0.0714 -0.5175
    8PRO    HB1   81  -0.153   1.875   3.695  1.9765  1.9772 -0.8273
    8PRO    HB2   82  -0.294   1.871   3.588  0.3709  1.1027  2.0276
    8PRO     CG   83  -0.138   2.009   3.519  0.5814  0.6295 -0.0060
    8PRO    HG1   84  -0.201   2.098   3.542  0.3865 -0.1155  2.5852
    8PRO    HG2   85  -0.033   2.033   3.543  0.5082  0.9736 -0.0201
    8PRO      C   86  -0.176   1.629   3.533  0.1159  0.4065 -0.4176
    8PRO      O   87  -0.293   1.606   3.514 -0.8950  0.2949  0.3850
    9GLY      N   88  -0.095   1.543   3.595 -0.1806  0.0322  0.0954
    9GLY     HN   89  -0.001   1.575   3.599 -0.1487 -0.1227  2.9981
    9GLY     CA   90  -0.136   1.413   3.664 -0.2585  1.0119 -0.7515
    9GLY    HA1   91  -0.047   1.374   3.711 -0.7303 -0.9868 -1.4519
    9GLY    HA2   92  -0.177   1.344   3.592  1.2989  1.1237 -1.7903
    9GLY      C   93  -0.234   1.439   3.776 -0.0330 -0.5700 -0.4161
    9GLY      O   94  -0.233   1.539   3.853  0.1319  0.0153 -0.2949
   10ASP      N   95  -0.321   1.340   3.795 -0.6438 -0.4425  0.0795
   10ASP     HN   96  -0.315   1.265   3.730  2.9858  1.3614 -1.9950
   10ASP     CA   97  -0.422   1.338   3.902 -0.8092 -0.2673 -0.0152
   10ASP     HA   98  -0.434   1.438   3.941 -0.4870  0.2373 -1.1714
   10ASP     CB   99  -0.555   1.292   3.840 -0.1610 -0.1895  0.0946
   10ASP    HB1  100  -0.627   1.290   3.925  0.6490  0.4527  0.8162
   10ASP    HB2  101  -0.558   1.192   3.792 -1.7031  0.3057 -0.9356
   10ASP     CG  102  -0.607   1.394   3.736 -0.2579 -0.5989  0.7334
   10ASP    OD1  103  -0.675   1.363   3.634  0.3660  0.3128 -0.1224
   10ASP    OD2  104  -0.589   1.514   3.767 -0.3579 -0.2205  0.0411
   10ASP      C  105  -0.387   1.254   4.019 -0.7761  0.2582  0.1106
   10ASP      O  106  -0.436   1.266   4.127 -0.0763 -0.6608  0.1964
   11GLY      N  107  -0.281   1.169   3.996  0.6643 -0.5694 -0.4932
   11GLY     HN  108  -0.230   1.186   3.912  1.0169 -0.8006 -0.3229
   11GLY     CA  109  -0.231   1.077   4.105  0.0523  0.0778 -0.7918
   11GLY    HA1  110  -0.199   0.985   4.058 -1.4353  0.1094 -1.9443
   11GLY    HA2  111  -0.311   1.053   4.174  1.2667 -2.2658 -0.0641
   11GLY      C  112  -0.110   1.124   4.196  0.3078  0.2142  1.0792
   11GLY    OT1  113  -0.013   1.045   4.208  0.3257  0.0579  0.1501
   11GLY    OT2  114  -0.111   1.238   4.248  0.2208  0.9736  0.0167
   12LIT    LIT  115   3.099   3.050   5.813  0.0196  0.4524  0.3737
   13LIT    LIT  116   1.918   5.121   2.321  0.1474 -0.0119  0.6280
   14LIT    LIT  117   0.101   4.903   3.797  0.8550  0.5714 -0.6771
   15LIT    LIT  118   5.145   6.523   1.895  1.1403  0.6280  0.7486
   16LIT    LIT  119   0.069   1.185   4.299  0.4903  0.0008  0.2945
   17LIT    LIT  120   0.232   5.827   5.561 -0.2793 -0.7746  0.0487
   18LIT    LIT  121   3.840   0.978   5.509  0.5125 -0.7822 -0.1818
   19LIT    LIT  122   4.805   4.515   5.701 -0.9653 -1.0963 -0.6441
   20LIT    LIT  123   3.779   5.875   0.414 -0.3394 -0.1013  0.6672
   21LIT    LIT  124   2.972   3.516   1.677 -0.8115 -0.3077 -0.0118
   22LIT    LIT  125   3.443   1.540   0.234  0.6996 -0.2798  0.4250
   23LIT    LIT  126   6.429   6.311   0.761 -0.7854 -0.2143  0.1075
   24LIT    LIT  127   6.353   5.779   2.508  0.3423 -0.4224 -1.0476
   25LIT    LIT  128   1.093   2.078   2.491  0.3493 -0.0457  0.3011
   26LIT    LIT  129   6.520   1.547   3.570  0.3260  0.2398 -1.4143
   27LIT    LIT  130   0.025   4.043   5.683  0.3390 -0.7072  1.0629
   28LIT    LIT  131   2.809   0.371   3.974  0.1641 -0.2355  0.6520
   29LIT    LIT  132   5.174   6.669   2.883  1.3286 -0.3763 -0.0299
   30LIT    LIT  133   0.518   2.472   5.265  0.0959  0.7659 -0.3295
   31LIT    LIT  134   4.247   1.441   2.471  0.2138 -1.1088 -0.3632
   32LIT    LIT  135   1.026   0.331   3.394  0.9718 -0.4811  0.5425
   33LIT    LIT  136   4.878   1.671   1.519 -0.1224 -0.2113  0.8120
   34LIT    LIT  137   3.591   0.513   5.327 -0.0171  0.5293  0.3937
   35LIT    LIT  138   0.160   4.203   1.883  0.2759  0.4969 -0.7447
   36LIT    LIT  139   6.538   1.999   4.870 -0.0883 -1.0849 -1.0348
   37LIT    LIT  140   7.061   3.098   2.365  0.3444 -0.8465 -0.4779
   38LIT    LIT  141   2.706   4.834   0.305 -0.7781  0.5049  0.3763
   39LIT    LIT  142   1.241   1.833   3.774 -0.1410  0.6642 -0.0147
   40LIT    LIT  143   2.015   2.127   5.515 -0.2024  0.5312  0.4265
   41LIT    LIT  144   0.269   2.996   1.722  0.3320 -0.3093  0.2158
   42LIT    LIT  145   0.357   1.978   3.306  0.1908  0.8336  0.0611
   43CLA    CLA  146   5.082   0.517   3.788  0.1426  0.0016  0.0487
   44CLA    CLA  147   4.325   5.223   3.366 -0.4679 -0.0308  0.0933
   45CLA    CLA  148   4.660   2.166   1.719 -0.0417 -0.2212 -0.1622
   46CLA    CLA  149   5.336   1.197   2.839  0.1055  0.0112 -0.0845
   47CLA    CLA  150   0.142   2.987   0.329 -0.0343 -0.1597 -0.2168
   48CLA    CLA  151   0.192   4.626   4.968  0.0501 -0.2987  0.0892
   49CLA    CLA  152   5.604   6.315   3.779 -0.5226  0.2318  0.1866
   50CLA    CLA  153   1.754   3.678   2.122 -0.1270  0.0182  0.2773
   51CLA    CLA  154   2.174   1.107   0.438  0.1207  0.0998 -0.3795
   52CLA    CLA  155   0.752   1.648   5.414 -0.1136  0.0814  0.2857
   53CLA    CLA  156   4.863   4.989   0.305 -0.3267 -0.3446 -0.0306
   54CLA    CLA  157   4.401   6.237   0.352  0.0149 -0.3350 -0.3506
   55CLA    CLA  158   3.560   2.464   5.594 -0.0839 -0.0898 -0.0934
   56CLA    CLA  159   1.782   4.651   2.997  0.0186 -0.0927  0.3050
   57CLA    CLA  160   2.980   0.320   3.073 -0.1361 -0.5682  0.0272
   58CLA    CLA  161   3.966   0.418   0.338  0.4866 -0.2274 -0.2212
   59CLA    CLA  162   6.310   4.539   4.317 -0.2897  0.1556  0.3053
   60CLA    CLA  163   3.589   6.403   4.850 -0.0950  0.0180  0.1798
   61CLA    CLA  164   1.680   4.970   3.373 -0.1218 -0.1353 -0.3629
   62CLA    CLA  165   5.483   3.465   4.842  0.0464  0.0414  0.2886
   63CLA    CLA  166   5.934   5.728   2.307  0.4000  0.1335 -0.1059
   64CLA    CLA  167   1.185   5.303   5.368 -0.0317  0.0456  0.3546
   65CLA    CLA  168   0.910   1.920   0.961 -0.0195  0.4396 -0.1676
   66CLA    CLA  169   3.945   1.459   3.992 -0.6664 -0.1933 -0.2053
   67CLA    CLA  170   0.835   2.857   5.575 -0.3353  0.1333  0.2650
   68CLA    CLA  171   5.260   5.995   0.208 -0.4435  0.1304  0.0650
   69CLA    CLA  172   6.498   0.533   5.148  0.0554 -0.2227 -0.1068
   70TIP3   OH2  173   5.351   3.613   4.601  0.1225  0.2704  0.3723
   70TIP3    H1  174   5.390   3.572   4.679  0.3376  2.0402  1.2385
   70TIP3    H2  175   5.257   3.600   4.613 -0.2411  3.8872  3.0836
   71TIP3   OH2  176   4.424   0.484   5.562 -0.6991 -0.3083  0.0055
   71TIP3    H1  177   4.487   0.413   5.574 -1.0716 -0.4100  1.4915
   71TIP3    H2  178   4.352   0.444   5.512 -0.9813 -1.0441  0.9691
   72TIP3   OH2  179   4.640   3.070   3.858  0.3877  0.3097  0.3486
   72TIP3    H1  180   4.586   2.991   3.866 -0.8694  0.7256 -2.7170
   72TIP3    H2  181   4.706   3.047   3.792  0.5886  1.5106  0.1161
   73TIP3   OH2  182   1.196   2.640   1.209  0.3603  0.7297  0.4146
   73TIP3    H1  183   1.264   2.675   1.153  0.8795  0.5278  0.9112
   73TIP3    H2  184   1.168   2.559   1.166 -0.6957  1.6080 -0.6240
   74TIP3   OH2  185   0.956   4.147   5.690  0.0057 -0.3180  0.2819
   74TIP3    H1  186   1.009   4.087   5.638 -2.5952 -1.4536 -1.3144
   74TIP3    H2  187   0.983   4.132   5.780  0.6795 -2.6368 -0.2332
   75TIP3   OH2  188   6.418   4.813   3.709 -0.1434  0.3035  0.2976
   75TIP3    H1  189   6.380   4.780   3.791  0.9889  1.8225  1.4859
   75TIP3    H2  190   6.345   4.810   3.647 -1.1624 -0.4445  1.4701
   76TIP3   OH2  191   6.617   2.326   4.576  0.0943 -0.2789  0.0987
   76TIP3    H1  192   6.538   2.372   4.605 -0.5345 -1.8431  1.0089
   76TIP3    H2  193   6.586   2.237   4.556  1.5073 -0.7201 -0.1907
   77TIP3   OH2  194   4.347   1.918   4.601 -0.0210 -0.5388  0.0195
   77TIP3    H1  195   4.363   1.883   4.689 -2.6024 -1.7086  0.1020
   77TIP3    H2  196   4.317   2.007   4.615  0.0573 -0.5529  0.2837
   78TIP3   OH2  197   5.816   2.355   2.117  0.5710  0.2363  0.8471
   78TIP3    H1  198   5.773   2.323   2.037  0.0434 -1.0901  1.6347
   78TIP3    H2  199   5.910   2.345   2.099  0.4378 -0.8618  0.7049
   79TIP3   OH2  200   6.496   3.756   5.044 -0.4326 -0.2943 -0.1359
   79TIP3    H1  201   6.404   3.751   5.070 -0.5129  0.2752 -0.2952
   79TIP3    H2  202   6.496   3.726   4.953 -0.4322 -0.4474 -0.0868
   80TIP3   OH2  203   2.990   0.658   4.047 -0.1689  0.1961  0.2655
   80TIP3    H1  204   3.015   0.575   4.088  1.1835  0.2226 -0.4424
   80TIP3    H2  205   3.062   0.717   4.069  0.2032  0.4198 -1.4723
   81TIP3   OH2  206   1.409   6.340   2.513  0.3358 -0.4447 -0.5729
   81TIP3    H1  207   1.364   6.287   2.579  1.7657 -1.0602 -0.0492
   81TIP3    H2  208   1.377   6.305   2.430 -2.2059  0.9561 -0.2882
   82TIP3   OH2  209   2.380   1.838   2.436 -0.3702 -0.0857  0.2605
   82TIP3    H1  210   2.292   1.830   2.399 -0.1424 -0.6251 -0.1699
   82TIP3    H2  211   2.407   1.748   2.454  0.0007  0.0935  0.6264
   83TIP3   OH2  212   1.810   2.572   5.567 -0.0050 -0.2537 -0.5552
   83TIP3    H1  213   1.895   2.614   5.575  0.3223 -1.1643  1.5848
   83TIP3    H2  214   1.747   2.642   5.579  0.3821  0.5035 -2.5778
   84TIP3   OH2  215   4.554   6.502   1.815 -0.1538 -0.0948  0.1274
   84TIP3    H1  216   4.491   6.560   1.773 -0.0039  0.0844  0.1516
   84TIP3    H2  217   4.621   6.560   1.850 -0.0741 -0.2728  0.2700
   85TIP3   OH2  218   6.981   5.878   0.364  0.1234  0.1509  0.4427
   85TIP3    H1  219   6.904   5.891   0.308  0.1684 -0.7413  0.1627
   85TIP3    H2  220   6.987   5.959   0.415  0.6229  1.4151 -1.4988
   86TIP3   OH2  221   4.290   4.599   4.980 -0.0919 -0.9893  0.2771
   86TIP3    H1  222   4.238   4.654   5.039  1.1574  0.6202 -0.0447
   86TIP3    H2  223   4.232   4.527   4.958 -2.0594  0.5027  0.2434
   87TIP3   OH2  224   6.140   2.827   4.333 -0.3872 -0.9144  0.1228
   87TIP3    H1  225   6.200   2.794   4.400  0.4364  0.1237 -0.0746
   87TIP3    H2  226   6.153   2.768   4.259  0.5708 -0.5867  0.0128
   88TIP3   OH2  227   3.924   1.563   2.746 -0.3589 -0.3084  0.3057
   88TIP3    H1  228   3.860   1.615   2.796  0.9626  0.8401  0.8874
   88TIP3    H2  229   3.953   1.495   2.807  1.3082  1.1378  1.2439
   89TIP3   OH2  230   4.458   0.126   4.975 -0.3486 -0.8358 -0.3991
   89TIP3    H1  231   4.404   0.199   4.944  0.4606  0.3298  0.7890
   89TIP3    H2  232   4.445   0.126   5.070  1.0414 -1.0712 -0.1899
   90TIP3   OH2  233   7.055   1.892   4.526 -0.1284  0.0773 -0.2526
   90TIP3    H1  234   7.150   1.890   4.512  0.0684  0.1387  0.9829
   90TIP3    H2  235   7.020   1.929   4.445  1.0631  1.9336  0.0046
   91TIP3   OH2  236   1.295   4.684   2.283  0.2349  0.1287 -0.4713
   91TIP3    H1  237   1.249   4.659   2.203  0.5619  0.8007 -0.8809
   91TIP3    H2  238   1.388   4.681   2.260  0.3495 -0.0728  0.0047
   92TIP3   OH2  239   2.767   3.181   1.518  0.4519 -0.1558  0.0282
   92TIP3    H1  240   2.817   3.250   1.476  0.3768  0.2048  0.5269
   92TIP3    H2  241   2.689   3.224   1.551  1.1229 -0.1367  1.7047
   93TIP3   OH2  242   6.739   2.035   3.815  0.0946  0.0406 -0.6715
   93TIP3    H1  243   6.719   1.943   3.830 -2.7016  0.9257  2.3005
   93TIP3    H2  244   6.710   2.079   3.895  1.8220  3.4771 -1.7318
   94TIP3   OH2  245   0.064   0.529   5.825  0.3605 -0.1467  0.1620
   94TIP3    H1  246   0.071   0.616   5.864 -0.5065 -0.7975  1.8851
   94TIP3    H2  247  -0.008   0.537   5.761  2.6389  1.2622 -2.4443
   95TIP3   OH2  248   7.093   2.835   5.206 -0.2975  0.6279 -0.5922
   95TIP3    H1  249   7.083   2.741   5.189  0.3910  0.5039 -0.3452
   95TIP3    H2  250   7.040   2.851   5.284 -0.6814  0.5134 -0.8268
   96TIP3   OH2  251   4.495   2.119   1.057  0.0850 -0.6504 -0.6099
   96TIP3    H1  252   4.583   2.154   1.041  0.4504 -0.8087  0.9059
   96TIP3    H2  253   4.474   2.070   0.978  2.4227 -2.7447 -0.0500
   97TIP3   OH2  254   4.867   1.956   3.455  0.1105 -0.2845 -0.0569
   97TIP3    H1  255   4.883   2.050   3.466  1.5205 -0.6648  1.5207
   97TIP3    H2  256   4.898   1.917   3.536 -1.4982 -2.0261 -0.2104
   98TIP3   OH2  257   3.447   6.724   1.065 -0.6291  0.8407 -0.4827
   98TIP3    H1  258   3.404   6.639   1.073  0.7081  0.1829  0.0094
   98TIP3    H2  259   3.445   6.743   0.971 -0.6253  0.0879 -0.6432
   99TIP3   OH2  260   2.620   5.339   2.617  0.3350  0.2468  0.0195
   99TIP3    H1  261   2.544   5.385   2.652  0.1408  0.0795 -0.1763
   99TIP3    H2  262   2.597   5.321   2.526  0.6291  0.2350 -0.0527
  100TIP3   OH2  263   4.909   5.043   0.839  0.3964  0.4146  0.0091
  100TIP3    H1  264   4.966   5.088   0.776 -0.1570  2.6187  1.0259
  100TIP3    H2  265   4.821   5.075   0.819  0.0073 -0.0809  0.8853
  101TIP3   OH2  266   1.210   2.626   5.816 -0.1452  0.2886  0.4002
  101TIP3    H1  267   1.215   2.713   5.778 -1.2332 -0.0366 -0.5531
  101TIP3    H2  268   1.283   2.622   5.878  0.5613  1.4870 -0.3191
  102TIP3   OH2  269   0.542   3.018   1.301 -0.4570  0.0622  0.6685
  102TIP3    H1  270   0.458   3.060   1.281  0.4994  1.9672  0.4560
  102TIP3    H2  271   0.596   3.033   1.224 -0.1870 -2.0682  0.3609
  103TIP3   OH2  272   6.095   0.399   5.759  0.1557 -0.3925  0.0022
  103TIP3    H1  273   6.175   0.417   5.709 -0.9575  0.1790 -1.6745
  103TIP3    H2  274   6.063   0.315   5.725 -0.4752 -0.1362 -0.0588
  104TIP3   OH2  275   4.020   5.728   0.767  0.0008  0.0849  0.1536
  104TIP3    H1  276   4.068   5.720   0.850  0.7091 -2.5943 -0.4226
  104TIP3    H2  277   4.088   5.719   0.700 -0.8404  0.1918 -0.7215
  105TIP3   OH2  278   0.741   2.891   3.320 -0.0906  0.7911 -0.1786
  105TIP3    H1  279   0.695   2.840   3.253  0.9873 -2.0730  1.1201
  105TIP3    H2  280   0.691   2.876   3.400  1.4135  0.0550  0.6512
  106TIP3   OH2  281   6.887   5.224   1.937  0.8245 -0.6474  0.7459
  106TIP3    H1  282   6.825   5.160   1.901  0.9233 -0.5504  0.3960
  106TIP3    H2  283   6.833   5.290   1.978  0.5043  0.9906 -2.0565
  107TIP3   OH2  284   3.795   2.913   4.344  0.5547 -0.7518 -0.2684
  107TIP3    H1  285   3.831   2.981   4.400 -2.4456  0.0135  0.9590
  107TIP3    H2  286   3.728   2.870   4.398  2.0077 -4.4887 -1.1080
  108TIP3   OH2  287   3.794   6.530   0.101 -0.4097 -0.0591 -0.2929
  108TIP3    H1  288   3.859   6.568   0.159 -0.4287  1.7351 -1.3575
  108TIP3    H2  289   3.717   6.517   0.156 -0.0571  0.4823  0.3379
  109TIP3   OH2  290   3.844   1.483   0.029  0.0970 -0.2690  0.3583
  109TIP3    H1  291   3.841   1.444  -0.059 -1.5732  1.5760 -0.4801
  109TIP3    H2  292   3.928   1.529   0.031 -0.5129  1.0370 -0.9905
  110TIP3   OH2  293   1.272   1.056   5.684 -0.1439  0.0954  0.1582
  110TIP3    H1  294   1.260   1.073   5.777  0.4722 -3.0085  0.8896
  110TIP3    H2  295   1.184   1.032   5.653  0.0953 -1.4167  0.5800
  111TIP3   OH2  296   4.632   6.316   5.378  0.6586 -0.5853  0.5159
  111TIP3    H1  297   4.598   6.278   5.297 -0.6517  0.3564  0.5982
  111TIP3    H2  298   4.712   6.361   5.352 -0.8514  1.5071 -0.7037
  112TIP3   OH2  299   1.151   6.514   1.213  0.5641  1.0555 -0.0057
  112TIP3    H1  300   1.109   6.544   1.294  1.1935  2.3756 -0.1533
  112TIP3    H2  301   1.079   6.487   1.157  0.0749  0.8733  0.6916
  113TIP3   OH2  302   1.221   3.448   3.946 -0.1982  0.0607 -0.8320
  113TIP3    H1  303   1.207   3.416   4.035  1.6058  0.0357 -0.5191
  113TIP3    H2  304   1.309   3.419   3.923  0.5749  2.6663 -1.4697
  114TIP3   OH2  305   1.244   0.086   2.484  0.7410 -0.0547 -0.8543
  114TIP3    H1  306   1.287   0.031   2.550 -0.3751  0.1013  0.0540
  114TIP3    H2  307   1.250   0.036   2.403  3.0850  0.2180 -0.9030
  115TIP3   OH2  308   6.601   4.594   3.204 -0.4038 -0.2029  0.5600
  115TIP3    H1  309   6.653   4.526   3.247 -0.0125  1.3548  2.7236
  115TIP3    H2  310   6.654   4.620   3.128  0.6046 -0.6434  1.0901
  116TIP3   OH2  311   1.617   0.839   3.661 -0.2072 -0.2486 -0.2004
  116TIP3    H1  312   1.636   0.879   3.746  3.1615  0.9750 -1.3310
  116TIP3    H2  313   1.693   0.783   3.644 -0.8484 -0.5331 -2.3680
  117TIP3   OH2  314   3.833   6.500   1.384 -0.0184 -0.3354 -0.1355
  117TIP3    H1  315   3.901   6.567   1.377 -1.7125  1.4043 -0.8729
  117TIP3    H2  316   3.759   6.536   1.335 -1.2835 -2.4168  0.1318
  118TIP3   OH2  317   4.428   6.789   3.812  0.7485  0.2421 -0.1875
  118TIP3    H1  318   4.473   6.820   3.733  0.9223  0.5890  0.0496
  118TIP3    H2  319   4.396   6.702   3.788 -0.2561  0.8256 -1.0503
  119TIP3   OH2  320   3.549   3.277   1.191  0.1076 -0.4338  0.0866
  119TIP3    H1  321   3.580   3.367   1.182  1.8772 -1.0736 -0.7616
  119TIP3    H2  322   3.456   3.280   1.168  0.5330  0.9048 -1.5871
  120TIP3   OH2  323   0.880   2.385   4.089  0.1449 -0.1007 -0.0282
  120TIP3    H1  324   0.795   2.343   4.097 -0.6004  1.4090  0.2640
  120TIP3    H2  325   0.943   2.319   4.120 -0.7205 -1.8361 -1.7474
  121TIP3   OH2  326   3.855   4.588   1.872 -0.5034  0.3025 -0.2974
  121TIP3    H1  327   3.824   4.503   1.902 -0.1683 -0.2976 -1.5912
  121TIP3    H2  328   3.777   4.631   1.836 -0.7394  0.6938  0.6530
  122TIP3   OH2  329   1.523   6.254   5.357 -0.2297 -0.1849 -0.2326
  122TIP3    H1  330   1.569   6.282   5.436 -0.1221  0.6955 -0.6031
  122TIP3    H2  331   1.445   6.209   5.389 -0.8384  1.2566  0.3751
  123TIP3   OH2  332   5.208   5.271   3.299  0.1429  0.2045 -0.1250
  123TIP3    H1  333   5.144   5.302   3.363  1.2096  0.1206  0.9999
  123TIP3    H2  334   5.279   5.334   3.303  0.8181 -0.5353 -0.2547
  124TIP3   OH2  335   2.601   0.868   1.980  0.2136 -0.1093  0.0256
  124TIP3    H1  336   2.524   0.829   2.021  0.5504 -0.1204  0.6660
  124TIP3    H2  337   2.673   0.848   2.041  0.2589  2.2321  0.8167
  125TIP3   OH2  338   3.074   5.923   2.219 -0.1891 -0.1430  0.2885
  125TIP3    H1  339   3.037   6.005   2.252 -0.7411 -0.3341  0.1599
  125TIP3    H2  340   3.169   5.932   2.232 -0.4114 -0.5348  2.6858
  126TIP3   OH2  341   1.574   1.139   3.670  0.0144 -0.4915 -0.3212
  126TIP3    H1  342   1.664   1.128   3.703  0.1445  2.0254  0.3193
  126TIP3    H2  343   1.583   1.132   3.575  0.9119 -0.2128 -0.2669
  127TIP3   OH2  344   0.758   0.209   4.386  0.2550  0.5631 -0.2806
  127TIP3    H1  345   0.825   0.250   4.442 -0.8289  2.0377 -0.0001
  127TIP3    H2  346   0.676   0.249   4.414 -1.0710 -2.4963  0.6378
  128TIP3   OH2  347   2.572   4.589   3.703 -0.3669  0.2843  0.3795
  128TIP3    H1  348   2.512   4.654   3.665 -0.7432 -0.8948 -1.1503
  128TIP3    H2  349   2.525   4.555   3.779 -0.6037  1.0779  0.5948
  129TIP3   OH2  350   5.908   4.164   3.237 -0.2086  0.1713  0.1146
  129TIP3    H1  351   5.870   4.094   3.290 -0.3605 -1.5325 -2.0835
  129TIP3    H2  352   5.883   4.142   3.147  2.1653  1.4679 -0.9580
  130TIP3   OH2  353   3.664   5.127   5.462 -0.3533  0.1775  0.1686
  130TIP3    H1  354   3.699   5.091   5.380  1.0737  1.5602  0.1024
  130TIP3    H2  355   3.625   5.052   5.507  1.2823 -1.1695 -0.5421
  131TIP3   OH2  356   3.004   1.449   1.963 -0.2378  0.5207 -0.1578
  131TIP3    H1  357   3.068   1.394   2.008 -1.5726 -0.9066  0.0884
  131TIP3    H2  358   2.999   1.528   2.016  0.1196 -0.0379  0.7392
  132TIP3   OH2  359   6.841   3.615   4.630 -0.5439  0.1584 -0.5853
  132TIP3    H1  360   6.875   3.628   4.542 -0.1181  0.2337 -0.4124
  132TIP3    H2  361   6.902   3.553   4.671 -0.0562  1.0143  0.0321
  133TIP3   OH2  362   3.011   2.209   5.853 -0.2494 -0.0939  0.1391
  133TIP3    H1  363   2.916   2.207   5.841 -0.3774 -0.6309  1.1176
  133TIP3    H2  364   3.046   2.188   5.766 -1.0204  0.1840 -0.2544
  134TIP3   OH2  365   3.392   1.618   0.832  0.6397  0.5678 -0.1844
  134TIP3    H1  366   3.408   1.534   0.790  0.4261 -0.0869  1.0192
  134TIP3    H2  367   3.402   1.601   0.925 -0.1423  1.7135  0.1309
  135TIP3   OH2  368   3.659   4.312   2.273 -0.2539 -0.1669 -0.7851
  135TIP3    H1  369   3.566   4.331   2.267 -0.3886 -0.4774  0.1472
  135TIP3    H2  370   3.679   4.320   2.367  0.3363 -1.5131 -0.7739
  136TIP3   OH2  371   3.550   3.890   3.844  0.3339  0.1624 -0.5238
  136TIP3    H1  372   3.489   3.964   3.835  0.8768  0.6569 -0.2241
  136TIP3    H2  373   3.494   3.813   3.854 -0.2443  0.5065 -1.0504
  137TIP3   OH2  374   0.647   0.979   3.414  0.0418  0.0644 -0.5552
  137TIP3    H1  375   0.649   1.072   3.393 -0.3772 -0.1115 -1.3970
  137TIP3    H2  376   0.689   0.973   3.500 -1.5192  1.2285  0.3381
  138TIP3   OH2  377   1.800   1.181   5.488 -0.0033  0.6114 -0.2081
  138TIP3    H1  378   1.751   1.245   5.540  1.0818  0.9946  0.3829
  138TIP3    H2  379   1.847   1.129   5.553 -1.8205 -1.6669 -0.5955
  139TIP3   OH2  380   2.695   0.138   4.307 -0.6481 -0.2832  0.2118
  139TIP3    H1  381   2.753   0.163   4.378 -0.6795 -2.4256  1.0696
  139TIP3    H2  382   2.754   0.115   4.235 -0.6033  1.3088 -0.3081
  140TIP3   OH2  383   3.426   2.777   0.109  0.5630  0.3030  0.3906
  140TIP3    H1  384   3.425   2.870   0.133 -1.9905  0.5354 -0.3046
  140TIP3    H2  385   3.413   2.777   0.014 -2.0522 -0.7139  0.6630
  141TIP3   OH2  386   0.992   5.877   1.319 -0.1757  0.2438 -0.2800
  141TIP3    H1  387   1.019   5.810   1.255 -2.8470 -0.3843 -0.8832
  141TIP3    H2  388   0.903   5.852   1.343 -0.1980  1.9977  1.7108
  142TIP3   OH2  389   6.293   6.403   5.595 -0.3806  0.1644 -0.1367
  142TIP3    H1  390   6.374   6.452   5.583  0.3319 -1.5113 -3.1090
  142TIP3    H2  391   6.298   6.370   5.685  1.4815  1.3371  0.2467
  143TIP3   OH2  392   5.755   4.339   2.951  0.1172 -0.4560  0.1043
  143TIP3    H1  393   5.694   4.375   3.015  0.8624 -0.6386  0.9425
  143TIP3    H2  394   5.747   4.397   2.875 -1.6846 -0.9607 -0.1393
  144TIP3   OH2  395   2.196   0.386   2.754  0.4812  0.8877 -0.3549
  144TIP3    H1  396   2.250   0.365   2.830 -0.2434  0.6243  0.1025
  144TIP3    H2  397   2.195   0.482   2.750  0.1219  0.9162  0.2732
  145TIP3   OH2  398   5.452   5.976   5.811  0.4951 -0.1886  0.5148
  145TIP3    H1  399   5.399   5.900   5.788 -0.6558  0.4803  0.8919
  145TIP3    H2  400   5.449   6.033   5.734  1.3697 -0.5207  0.2261
  146TIP3   OH2  401   3.169   2.875   0.339 -0.1697 -0.5613  0.2128
  146TIP3    H1  402   3.170   2.925   0.420 -0.6155 -1.1535  0.5936
  146TIP3    H2  403   3.228   2.923   0.280  1.1461 -0.8061  1.2865
  147TIP3   OH2  404   0.936   4.341   2.206  0.0895  0.5533  0.2986
  147TIP3    H1  405   0.982   4.367   2.286 -0.1265 -0.6272  0.8332
  147TIP3    H2  406   0.852   4.308   2.237  0.8594 -2.0469 -0.1722
  148TIP3   OH2  407   2.041   0.314   0.318 -0.1814  0.2597 -0.0312
  148TIP3    H1  408   2.057   0.221   0.331  1.8218  0.3295 -1.4536
  148TIP3    H2  409   1.969   0.335   0.377 -1.1389 -2.3073 -0.1703
  149TIP3   OH2  410   6.687   4.767   4.398  0.4208  0.1483  0.4240
  149TIP3    H1  411   6.633   4.747   4.322 -0.9329 -2.6906  1.9458
  149TIP3    H2  412   6.668   4.859   4.418  0.5270  0.8545 -2.3312
  150TIP3   OH2  413   5.017   4.331   0.667  0.0056 -0.5092 -0.0887
  150TIP3    H1  414   5.100   4.298   0.701  1.3965  2.0403 -0.7943
  150TIP3    H2  415   4.967   4.355   0.745  1.2916  0.9649  0.3232
  151TIP3   OH2  416   3.622   5.582   1.588  0.3133 -0.2424 -0.1610
  151TIP3    H1  417   3.591   5.546   1.505  1.5311 -1.3174 -0.1801
  151TIP3    H2  418   3.688   5.647   1.564  0.8208 -0.7071 -0.0398
  152TIP3   OH2  419   7.243   2.874   4.800 -0.4726  0.5710 -0.0840
  152TIP3    H1  420   7.179   2.882   4.870  0.2706 -3.4583  1.3431
  152TIP3    H2  421   7.196   2.832   4.729  0.0918 -0.7642  0.2990
  153TIP3   OH2  422   5.152   5.075   2.316 -0.1062  0.0672  0.3134
  153TIP3    H1  423   5.224   5.076   2.379  0.9046  0.2654 -0.8215
  153TIP3    H2  424   5.107   4.992   2.333  1.3189 -0.7939  0.0128
  154TIP3   OH2  425   4.495   1.583   3.583 -0.0814 -0.1259  0.2519
  154TIP3    H1  426   4.461   1.500   3.548  0.4399 -0.2373 -0.0056
  154TIP3    H2  427   4.419   1.625   3.623 -0.0057 -1.6202  2.1366
  155TIP3   OH2  428   4.979   1.648   3.491 -0.2444  0.0379 -0.4297
  155TIP3    H1  429   5.071   1.667   3.472  0.7437 -1.0511  2.7632
  155TIP3    H2  430   4.952   1.717   3.551 -0.0469 -2.0778  2.2432
  156TIP3   OH2  431   6.949   6.813   4.413  0.1581 -0.0699 -0.1747
  156TIP3    H1  432   6.867   6.775   4.381  0.9803 -1.3103 -0.9267
  156TIP3    H2  433   6.970   6.760   4.490 -0.2491  0.9134  0.6272
  157TIP3   OH2  434   1.195   2.423   3.760  0.2470  0.1743 -0.0523
  157TIP3    H1  435   1.123   2.478   3.791  0.1408 -0.8116  1.6057
  157TIP3    H2  436   1.270   2.482   3.755 -0.0194  0.6390  1.0297
  158TIP3   OH2  437   1.182   5.816   5.724 -0.1700  0.0651  0.2605
  158TIP3    H1  438   1.257   5.859   5.765  0.7297 -1.3658  0.1619
  158TIP3    H2  439   1.107   5.871   5.749  0.8783  1.5160  0.3661
  159TIP3   OH2  440   7.087   0.113   4.149  0.1068 -0.0044 -0.0946
  159TIP3    H1  441   7.026   0.176   4.187 -0.9124 -1.0188  0.0144
  159TIP3    H2  442   7.089   0.040   4.211  3.0587  0.8373  0.9512
  160TIP3   OH2  443   3.940   4.857   2.531 -0.3120  0.4357  0.1218
  160TIP3    H1  444   3.844   4.863   2.538 -0.4096 -1.1409  0.4702
  160TIP3    H2  445   3.957   4.862   2.437 -0.6825  1.1411  0.0777
  161TIP3   OH2  446   5.597   5.442   1.970  0.2591  0.1195  0.1935
  161TIP3    H1  447   5.571   5.351   1.954 -0.0906  0.3627 -0.7001
  161TIP3    H2  448   5.649   5.438   2.050  4.0288 -1.5992 -2.0592
  162TIP3   OH2  449   5.233   2.461   1.911  0.1545 -0.5625 -0.4985
  162TIP3    H1  450   5.223   2.372   1.878  1.0297 -1.3158  1.1600
  162TIP3    H2  451   5.326   2.480   1.900  0.1219 -0.1653 -0.1068
  163TIP3   OH2  452   0.544   0.069   0.170 -0.1227 -0.1458  0.2005
  163TIP3    H1  453   0.616   0.027   0.217 -0.1684  1.0630  1.3889
  163TIP3    H2  454   0.588   0.126   0.106 -0.0602 -0.5756 -0.1531
  164TIP3   OH2  455   6.756   2.400   2.499  0.9140  0.3362 -0.2057
  164TIP3    H1  456   6.790   2.447   2.576 -1.5558  0.3925  0.9231
  164TIP3    H2  457   6.725   2.317   2.533 -0.2238  0.3646 -1.1247
  165TIP3   OH2  458   1.998   1.868   1.315 -0.4879  0.3020  0.2726
  165TIP3    H1  459   1.955   1.842   1.396 -1.4798 -0.6526 -0.5370
  165TIP3    H2  460   1.966   1.957   1.298 -2.2506 -0.4090 -0.3496
  166TIP3   OH2  461   4.312   3.721   4.617 -0.7732 -0.0162  0.0180
  166TIP3    H1  462   4.371   3.725   4.692 -0.9499 -3.5693  0.5214
  166TIP3    H2  463   4.224   3.727   4.656 -0.8926  2.3554 -0.4444
  167TIP3   OH2  464   4.883   3.211   1.583 -0.3145 -0.0696 -0.0686
  167TIP3    H1  465   4.978   3.216   1.586 -0.3731  1.3927  0.2659
  167TIP3    H2  466   4.853   3.283   1.638 -1.6353 -1.5162  1.1999
  168TIP3   OH2  467   1.928   4.109   1.244  0.1876  0.0220  0.4513
  168TIP3    H1  468   1.845   4.067   1.221 -0.2446  1.0913  0.0088
  168TIP3    H2  469   1.993   4.039   1.235 -0.1757 -0.0469 -2.5588
  169TIP3   OH2  470   1.887   0.851   3.303 -0.0437 -0.1756 -0.4061
  169TIP3    H1  471   1.862   0.783   3.367  3.1712 -1.8831 -0.7190
  169TIP3    H2  472   1.833   0.833   3.226  0.5829 -2.3527 -0.4115
  170TIP3   OH2  473   5.845   4.341   5.700 -0.2109 -0.3850  0.1770
  170TIP3    H1  474   5.769   4.398   5.712  2.0261  2.7436  0.8263
  170TIP3    H2  475   5.854   4.295   5.784 -0.9574 -0.2405  0.3452
  171TIP3   OH2  476   3.869   6.145   3.536 -0.4544 -0.2610 -0.0872
  171TIP3    H1  477   3.963   6.127   3.541 -0.6230 -0.9879  0.6672
  171TIP3    H2  478   3.863   6.227   3.487  0.4570 -1.1028 -1.6957
  172TIP3   OH2  479   5.299   5.861   3.122  0.0254 -0.0495 -0.2251
  172TIP3    H1  480   5.251   5.941   3.102  0.6162  0.4181  0.1720
  172TIP3    H2  481   5.234   5.803   3.161 -0.4210  0.2086 -0.5688
  173TIP3   OH2  482   1.006   1.002   5.628  0.3413 -0.4187 -0.1469
  173TIP3    H1  483   0.919   1.039   5.643 -0.2988 -1.4677 -1.1104
  173TIP3    H2  484   1.027   0.956   5.710 -0.8540 -1.7210 -0.5208
  174TIP3   OH2  485   0.620   3.467   3.360 -0.1682 -0.2698  0.1396
  174TIP3    H1  486   0.658   3.510   3.436 -0.8794  0.4026  0.1183
  174TIP3    H2  487   0.643   3.374   3.371  2.6862  0.2655 -0.5956
  175TIP3   OH2  488   4.432   5.557   4.611  0.1219  0.4990 -0.4090
  175TIP3    H1  489   4.365   5.603   4.661  0.2986  1.3737 -0.9521
  175TIP3    H2  490   4.513   5.569   4.661 -0.2830 -1.5659  0.8790
  176TIP3   OH2  491   7.191   4.618   3.749 -0.1027 -0.0587  0.6843
  176TIP3    H1  492   7.155   4.617   3.661 -1.0139  0.5222  1.0397
  176TIP3    H2  493   7.121   4.584   3.805  0.8918 -1.6246  1.0483
  177TIP3   OH2  494   0.819   6.425   5.664  0.2096 -0.1609  0.1880
  177TIP3    H1  495   0.764   6.365   5.614  0.3568 -0.7262  0.6897
  177TIP3    H2  496   0.799   6.405   5.756  0.1438  0.6691  0.3648
  178TIP3   OH2  497   1.125   4.466   1.155  0.1990 -0.2859 -0.1952
  178TIP3    H1  498   1.112   4.555   1.122  0.0034 -0.4148 -0.4759
  178TIP3    H2  499   1.086   4.467   1.242 -0.1538 -0.1967 -0.3480
  179TIP3   OH2  500   4.938   6.207   4.383  0.5704 -0.7433 -0.0341
  179TIP3    H1  501   4.971   6.196   4.473  0.0355  1.0307  0.4261
  179TIP3    H2  502   4.858   6.257   4.393 -0.0185 -1.3509 -1.4641
  180TIP3   OH2  503   3.509   2.006   4.581  0.3651  0.0257 -0.0166
  180TIP3    H1  504   3.542   2.009   4.491 -1.4064  0.4517 -0.7040
  180TIP3    H2  505   3.570   2.061   4.630 -0.1794  2.1672 -1.5492
  181TIP3   OH2  506   3.672   0.097   5.352  0.2886 -0.5877 -0.2258
  181TIP3    H1  507   3.588   0.124   5.314 -0.7837 -1.3999  1.4917
  181TIP3    H2  508   3.652   0.020   5.404  2.1969 -1.0478 -0.1042
  182TIP3   OH2  509   4.893   1.948   2.812  0.4991  0.2374 -0.2114
  182TIP3    H1  510   4.814   1.920   2.859  0.2008  1.8893  0.3157
  182TIP3    H2  511   4.901   1.885   2.740  0.0306 -1.3399  1.0644
  183TIP3   OH2  512   6.327   3.184   3.140 -0.8950  0.8582  0.6875
  183TIP3    H1  513   6.260   3.243   3.173 -0.5414  0.6888  1.7503
  183TIP3    H2  514   6.391   3.178   3.211  1.8600  3.3587 -1.3497
  184TIP3   OH2  515   1.570   0.375   2.690 -0.4218 -0.3013 -0.2431
  184TIP3    H1  516   1.533   0.462   2.704 -0.3695 -0.2418 -0.4705
  184TIP3    H2  517   1.545   0.326   2.768 -1.0049 -0.2734 -0.4055
  185TIP3   OH2  518   5.739   2.927   5.168 -0.0719 -0.1133  0.5101
  185TIP3    H1  519   5.690   2.932   5.250 -0.3874 -2.6083  0.5619
  185TIP3    H2  520   5.673   2.906   5.101  0.5906 -1.4790  0.2408
  186TIP3   OH2  521   1.183   1.073   2.123  0.6799 -0.4541  0.1953
  186TIP3    H1  522   1.119   1.110   2.062  1.3222  0.1334 -0.1254
  186TIP3    H2  523   1.183   1.133   2.197 -0.2677 -1.2866  0.9125
  187TIP3   OH2  524   0.991   0.755   1.461 -0.0654  0.3565  0.3078
  187TIP3    H1  525   0.986   0.848   1.483 -0.3572  0.3225  0.3876
  187TIP3    H2  526   0.938   0.746   1.382 -1.3049 -0.0039  1.1500
  188TIP3   OH2  527   4.184   1.469   5.648  0.1363 -0.1347 -0.1353
  188TIP3    H1  528   4.116   1.473   5.716  1.3315 -0.2178  1.1030
  188TIP3    H2  529   4.250   1.411   5.684  1.0856  0.3049 -1.1289
  189TIP3   OH2  530   2.929   0.024   4.151 -0.6670 -0.5244  0.5268
  189TIP3    H1  531   2.980   0.053   4.227 -0.1863  0.7874 -0.2633
  189TIP3    H2  532   2.950  -0.069   4.142 -1.3266 -0.9076  2.4336
  190TIP3   OH2  533   0.467   5.787   3.324 -0.0526  0.1269  0.1461
  190TIP3    H1  534   0.556   5.803   3.293 -0.6058 -0.9526 -2.3154
  190TIP3    H2  535   0.439   5.870   3.363  2.1179  0.3663  1.3535
  191TIP3   OH2  536   6.935   4.214   3.752 -0.1184  0.3736  0.6077
  191TIP3    H1  537   6.865   4.187   3.812  0.3547  0.8649  1.4013
  191TIP3    H2  538   6.976   4.132   3.724 -0.0797  0.1498  1.2952
  192TIP3   OH2  539   1.528   6.426   4.939  0.0406 -0.2028  0.1100
  192TIP3    H1  540   1.467   6.437   5.012 -0.6440 -1.3551 -0.2569
  192TIP3    H2  541   1.531   6.331   4.925  3.0988 -0.3431  1.0929
  193TIP3   OH2  542   3.469   0.104   4.864 -0.0069 -0.3665 -0.2539
  193TIP3    H1  543   3.508   0.022   4.834 -0.3668 -0.6263 -0.0243
  193TIP3    H2  544   3.539   0.169   4.855 -0.1866 -0.3574 -1.9539
  194TIP3   OH2  545   6.619   0.405   4.046  0.0318 -0.1728  0.0121
  194TIP3    H1  546   6.675   0.330   4.064 -1.5349 -0.9848  1.8644
  194TIP3    H2  547   6.579   0.386   3.961  0.6762 -0.7482 -0.1696
  195TIP3   OH2  548   7.053   5.871   1.243  0.0941  0.0528  0.8059
  195TIP3    H1  549   7.092   5.956   1.222  0.3204 -0.3047 -0.3055
  195TIP3    H2  550   7.088   5.849   1.328  2.8766 -0.5523 -0.3885
  196TIP3   OH2  551   6.491   1.484   5.049 -0.1361  0.2419  0.0093
  196TIP3    H1  552   6.427   1.417   5.023 -0.8991  0.7934  0.4213
  196TIP3    H2  553   6.442   1.566   5.042  0.8000  0.7661 -0.5164
  197TIP3   OH2  554   2.213   2.826   3.229  0.4330 -0.2504  0.9811
  197TIP3    H1  555   2.198   2.912   3.190 -0.9243 -0.2452  1.4484
  197TIP3    H2  556   2.126   2.794   3.250  0.9703 -1.4086  1.5421
  198TIP3   OH2  557   7.154   0.645   4.789 -0.0061  0.1202  0.1446
  198TIP3    H1  558   7.172   0.607   4.875 -1.5927  0.8524  0.8179
  198TIP3    H2  559   7.062   0.626   4.773  0.4548 -0.7398 -1.7931
  199TIP3   OH2  560   2.479   0.602   2.819  0.0766  0.2827  0.4041
  199TIP3    H1  561   2.499   0.561   2.904 -0.1528 -1.0771 -0.1707
  199TIP3    H2  562   2.389   0.632   2.828  0.2730  0.7453  0.8645
  200TIP3   OH2  563   0.358   2.381   4.104 -0.0103 -0.2081  0.0283
  200TIP3    H1  564   0.401   2.457   4.142  1.0041 -0.0716 -1.3168
  200TIP3    H2  565   0.264   2.395   4.121 -0.0929  2.4286 -1.9907
  201TIP3   OH2  566   6.859   2.402   3.521  0.0735 -0.2072 -0.1661
  201TIP3    H1  567   6.794   2.333   3.535 -1.3100  1.0647 -0.0310
  201TIP3    H2  568   6.839   2.436   3.434 -0.0362  0.7896  0.2359
  202TIP3   OH2  569   2.167   1.866   0.043 -0.1155 -0.0201  0.3274
  202TIP3    H1  570   2.109   1.818  -0.015 -0.2630 -1.7801  1.8449
  202TIP3    H2  571   2.130   1.955   0.046 -0.8849 -0.2652 -1.1506
  203TIP3   OH2  572   4.302   2.403   5.464  0.1489 -0.4422  0.4368
  203TIP3    H1  573   4.318   2.346   5.389 -0.0423 -2.6763  1.9896
  203TIP3    H2  574   4.208   2.397   5.480 -0.4059  2.5223 -0.9358
  204TIP3   OH2  575   7.184   3.234   4.549 -0.5781  0.3961  0.0423
  204TIP3    H1  576   7.166   3.156   4.497  2.7933 -0.5290  0.0492
  204TIP3    H2  577   7.140   3.218   4.632 -0.3026 -1.3548 -0.1076
  205TIP3   OH2  578   5.525   3.588   2.003  0.0652 -0.3754  0.0941
  205TIP3    H1  579   5.436   3.620   2.019  0.4161 -0.1259  1.6875
  205TIP3    H2  580   5.515   3.494   1.991 -0.6171 -0.1325 -1.7016
  206TIP3   OH2  581   6.176   1.586   4.796  0.4615 -0.1001  0.1460
  206TIP3    H1  582   6.229   1.506   4.792 -0.1565 -0.4682 -1.0095
  206TIP3    H2  583   6.094   1.562   4.754 -0.2949  0.7341  1.1076
  207TIP3   OH2  584   4.619   5.653   4.940  0.0689  0.9722  0.6861
  207TIP3    H1  585   4.622   5.558   4.944 -3.7349  0.4918 -2.0439
  207TIP3    H2  586   4.575   5.680   5.020 -0.0067  0.3025  0.8714
  208TIP3   OH2  587   3.516   5.931   1.320  0.1313  0.1957  0.1000
  208TIP3    H1  588   3.603   5.892   1.309 -0.0813 -1.8295  3.8533
  208TIP3    H2  589   3.531   6.006   1.377 -0.4620  0.6617 -0.3492
  209TIP3   OH2  590   2.587   6.281   5.164  0.1714  0.0935  0.5945
  209TIP3    H1  591   2.629   6.281   5.250 -0.6909  3.5730  1.1829
  209TIP3    H2  592   2.642   6.339   5.111 -0.1810 -0.7401 -0.7080
  210TIP3   OH2  593   6.753   6.541   0.718  0.3397 -0.3303 -0.2346
  210TIP3    H1  594   6.694   6.615   0.703  0.3330 -0.5960 -1.5864
  210TIP3    H2  595   6.799   6.564   0.799  1.0895  1.6424 -1.1636
  211TIP3   OH2  596   3.574   2.818   1.760 -0.2512 -0.5186 -0.5742
  211TIP3    H1  597   3.622   2.802   1.841  0.6891  0.6245 -0.8820
  211TIP3    H2  598   3.587   2.739   1.708  2.0119  0.0543 -0.9784
  212TIP3   OH2  599   3.976   6.139   4.441 -0.2324  0.1604  0.1310
  212TIP3    H1  600   3.942   6.186   4.518  0.8472  0.9830  0.1371
  212TIP3    H2  601   4.046   6.195   4.408 -0.6363 -0.2112 -1.4417
  213TIP3   OH2  602   1.786   3.343   5.560 -0.0801  0.3259  0.5737
  213TIP3    H1  603   1.745   3.257   5.572  0.1415  0.2565  0.8380
  213TIP3    H2  604   1.715   3.405   5.572 -0.3668  0.1619 -0.1844
  214TIP3   OH2  605   3.319   2.279   0.479  0.2462 -0.1818 -0.0416
  214TIP3    H1  606   3.314   2.355   0.537  0.4707 -0.2527  0.0737
  214TIP3    H2  607   3.247   2.223   0.506 -0.4026  0.3437 -0.6440
  215TIP3   OH2  608   3.475   4.306   4.167 -0.1603  0.0919  0.3076
  215TIP3    H1  609   3.549   4.290   4.225 -0.0571  0.7193  0.3525
  215TIP3    H2  610   3.509   4.287   4.079 -0.3178 -0.8544  0.4459
  216TIP3   OH2  611   0.162   1.056   4.749  0.0662 -0.4012  0.0999
  216TIP3    H1  612   0.113   1.101   4.680  0.1350  0.1267  0.3938
  216TIP3    H2  613   0.196   0.977   4.706  3.2556  1.6857 -1.5552
  217TIP3   OH2  614   1.075   6.689   4.399  0.1584  0.1997 -0.1047
  217TIP3    H1  615   1.105   6.755   4.336  0.3074  1.4836  1.2540
  217TIP3    H2  616   1.038   6.620   4.345 -0.8610  1.8079 -1.5730
  218TIP3   OH2  617   1.627   2.594   0.854  0.3020  0.2863  0.5079
  218TIP3    H1  618   1.662   2.674   0.895 -0.7305  0.5419  0.9196
  218TIP3    H2  619   1.703   2.553   0.814  0.6609  2.1396 -0.8529
  219TIP3   OH2  620   0.222   6.674   4.243 -0.1160 -0.1009 -0.5908
  219TIP3    H1  621   0.249   6.764   4.261 -0.0917 -0.5632  2.1156
  219TIP3    H2  622   0.283   6.620   4.293 -0.3433 -1.6394 -1.8861
  220TIP3   OH2  623   0.532   3.797   0.297  0.0459  0.1271  0.5546
  220TIP3    H1  624   0.496   3.843   0.221 -0.4509  2.2378  1.9483
  220TIP3    H2  625   0.599   3.739   0.261  1.8480  3.0883 -1.3166
  221TIP3   OH2  626   1.202   2.813   2.375  0.5575 -0.3604  0.0256
  221TIP3    H1  627   1.148   2.868   2.432 -0.5832  0.3354 -1.6714
  221TIP3    H2  628   1.245   2.752   2.436 -0.7582  0.2072  1.6047
  222TIP3   OH2  629   1.174   5.257   1.625  0.0454 -0.4889  0.3556
  222TIP3    H1  630   1.108   5.302   1.571  1.8915  0.0027 -1.6456
  222TIP3    H2  631   1.154   5.164   1.616 -0.3378 -0.3478 -0.3121
  223TIP3   OH2  632   6.145   5.262   2.127  0.5775 -0.2450 -0.2351
  223TIP3    H1  633   6.209   5.193   2.146  0.7088  0.2534  1.1784
  223TIP3    H2  634   6.166   5.333   2.187 -0.2042  0.6357 -0.9670
  224TIP3   OH2  635   0.991   4.398   5.173  0.1371  0.0028  0.6342
  224TIP3    H1  636   1.045   4.469   5.206  1.8804 -1.5999  1.3872
  224TIP3    H2  637   0.960   4.353   5.252 -0.3747 -0.4904  0.1590
  225TIP3   OH2  638   4.467   6.731   0.791 -0.1463 -0.0043 -0.6756
  225TIP3    H1  639   4.517   6.776   0.859  0.4800  1.5596 -2.1060
  225TIP3    H2  640   4.433   6.653   0.834  1.2787  0.2796  1.0753
  226TIP3   OH2  641   0.703   1.742   0.485 -0.0366  0.3415  0.9036
  226TIP3    H1  642   0.780   1.685   0.484  0.6091  1.1497 -1.1940
  226TIP3    H2  643   0.720   1.805   0.555  0.0430 -0.9540  2.0880
  227TIP3   OH2  644   5.539   5.602   1.668  0.1578 -0.5796  0.0079
  227TIP3    H1  645   5.567   5.693   1.660 -0.1990 -0.4514  0.2300
  227TIP3    H2  646   5.452   5.606   1.708 -0.0061 -1.0016 -0.2965
  228TIP3   OH2  647   4.300   3.226   1.190 -0.8583 -0.2699  0.4655
  228TIP3    H1  648   4.360   3.209   1.117 -0.1694  2.0046  0.4224
  228TIP3    H2  649   4.283   3.140   1.227  1.6420 -1.1293 -0.1558
  229TIP3   OH2  650   6.783   1.737   0.306  0.1591  0.3891  0.1174
  229TIP3    H1  651   6.860   1.681   0.296 -0.5023 -0.3553 -1.0043
  229TIP3    H2  652   6.780   1.789   0.226 -0.2482  0.7449  0.3567
  230TIP3   OH2  653   2.611   4.497   2.272 -0.1460 -0.2667 -0.3282
  230TIP3    H1  654   2.670   4.488   2.197  0.2893  0.5468 -0.1030
  230TIP3    H2  655   2.641   4.577   2.316 -0.1346 -0.9545  0.9476
  231TIP3   OH2  656   4.688   5.518   1.600 -0.5453 -0.1958 -0.3636
  231TIP3    H1  657   4.636   5.542   1.524 -0.0194 -0.2182 -0.7343
  231TIP3    H2  658   4.752   5.455   1.566 -0.6131 -0.5700  0.1913
  232TIP3   OH2  659   4.556   6.003   3.450  0.2330 -0.4334 -0.0110
  232TIP3    H1  660   4.580   5.911   3.450  1.0027 -0.2377  0.3087
  232TIP3    H2  661   4.548   6.026   3.542 -0.3598 -0.2811 -0.0967
  233TIP3   OH2  662   6.407   3.841   1.499 -0.0685  0.1289  0.6275
  233TIP3    H1  663   6.368   3.814   1.416 -0.9158 -0.3855  1.1737
  233TIP3    H2  664   6.333   3.873   1.551  0.3439 -0.1356  1.4060
  234TIP3   OH2  665   0.477   4.837   2.880 -0.1109  0.4060  0.3336
  234TIP3    H1  666   0.515   4.836   2.792 -3.3405  1.0448 -1.1935
  234TIP3    H2  667   0.499   4.751   2.916 -0.2783 -0.6102 -1.8349
  235TIP3   OH2  668   0.905   1.075   5.135  0.2637 -0.2625  0.1117
  235TIP3    H1  669   0.907   1.134   5.060 -0.6941 -0.3920 -0.0291
  235TIP3    H2  670   0.964   1.115   5.199 -0.1204  0.6822 -0.1062
  236TIP3   OH2  671   0.131   2.142   0.338 -0.3257 -0.2706  0.4330
  236TIP3    H1  672   0.087   2.227   0.335 -0.1919 -0.1936  0.6550
  236TIP3    H2  673   0.095   2.098   0.415 -2.2223 -1.4181 -1.0375
  237TIP3   OH2  674   6.556   2.196   4.852  0.2743  0.3735 -0.7187
  237TIP3    H1  675   6.630   2.213   4.794  0.9013  0.3417  0.0591
  237TIP3    H2  676   6.540   2.280   4.896  1.6820 -0.2896  1.1883
  238TIP3   OH2  677   6.041   6.549   2.571  0.3462 -0.4114  0.0299
  238TIP3    H1  678   6.070   6.552   2.480 -0.3411 -2.9684 -0.3421
  238TIP3    H2  679   5.962   6.602   2.573 -0.0091 -0.8771 -1.0420
  239TIP3   OH2  680   1.437   6.027   1.047  0.0503  0.2172  0.1304
  239TIP3    H1  681   1.364   5.966   1.052  0.8896 -0.7456  1.1739
  239TIP3    H2  682   1.437   6.072   1.131 -0.6915  1.8576 -0.7092
  240TIP3   OH2  683   6.568   5.560   4.929  0.2382 -0.1430  0.6445
  240TIP3    H1  684   6.477   5.560   4.899  0.6728 -2.5234 -0.9641
  240TIP3    H2  685   6.607   5.637   4.887 -0.5592 -0.2604 -0.3620
  241TIP3   OH2  686   3.417   5.500   3.265  0.1300 -0.2000  0.4461
  241TIP3    H1  687   3.414   5.535   3.354 -0.4039  0.5719  0.1364
  241TIP3    H2  688   3.506   5.465   3.256  0.1587 -0.3788  1.3080
  242TIP3   OH2  689   4.096   1.262   1.555  0.2358 -0.1207  0.7392
  242TIP3    H1  690   4.064   1.245   1.644  1.6064 -2.3817  0.8839
  242TIP3    H2  691   4.111   1.356   1.552 -0.3629  0.0782  2.7143
  243TIP3   OH2  692   6.258   1.275   1.061  0.9382 -0.0911  1.0618
  243TIP3    H1  693   6.223   1.196   1.102  0.7346 -0.2015  0.6837
  243TIP3    H2  694   6.353   1.264   1.064  0.9372  0.0801  1.8409
  244TIP3   OH2  695   1.501   6.651   1.466 -0.4689  0.5269 -0.0662
  244TIP3    H1  696   1.435   6.585   1.447 -1.6072  1.4109  0.6934
  244TIP3    H2  697   1.581   6.601   1.483 -0.4792 -0.5095 -2.5620
  245TIP3   OH2  698   3.484   4.437   0.828  0.0451  0.2939 -0.1893
  245TIP3    H1  699   3.575   4.434   0.857 -0.0737  2.3261  0.5692
  245TIP3    H2  700   3.444   4.358   0.864  1.3783 -0.3884 -0.1436
  246TIP3   OH2  701   2.068   0.378   1.820 -0.4273 -0.0120 -0.5267
  246TIP3    H1  702   2.119   0.296   1.819 -1.9982 -1.0376 -0.4865
  246TIP3    H2  703   1.980   0.351   1.847 -1.0673  1.6665 -0.8074
  247TIP3   OH2  704   3.861   3.050   4.573 -0.6707 -0.5021  0.6565
  247TIP3    H1  705   3.916   3.087   4.643  0.2536  0.2460 -0.4257
  247TIP3    H2  706   3.771   3.066   4.603 -0.3132  1.7955  0.7148
  248TIP3   OH2  707   3.001   0.979   0.169 -0.0563  0.2057 -0.1781
  248TIP3    H1  708   3.087   1.018   0.184  0.0425  0.5684 -1.5567
  248TIP3    H2  709   3.019   0.902   0.115 -0.3984 -0.9944  1.3344
  249TIP3   OH2  710   4.626   4.066   2.245  0.4882  0.2771 -0.5420
  249TIP3    H1  711   4.677   4.071   2.164  4.5815  0.2186  1.7497
  249TIP3    H2  712   4.629   3.974   2.270  0.5867  0.5375  0.4273
  250TIP3   OH2  713   0.844   4.259   1.216  0.2374  0.4684 -0.2909
  250TIP3    H1  714   0.898   4.291   1.144  0.1658  0.7518 -0.2177
  250TIP3    H2  715   0.765   4.313   1.213  0.0289  0.1676 -0.2923
  251TIP3   OH2  716   4.812   6.145   1.352 -0.2965  0.0450 -0.3135
  251TIP3    H1  717   4.835   6.083   1.421 -0.6821 -0.4212 -0.5969
  251TIP3    H2  718   4.718   6.131   1.336 -0.4457  0.8658 -0.2194
  252TIP3   OH2  719   1.720   5.010   3.069 -0.4845 -0.3521  0.0180
  252TIP3    H1  720   1.713   4.984   3.160 -0.0110  1.3368  0.5792
  252TIP3    H2  721   1.742   4.930   3.022 -1.1208 -1.3188  1.3200
  253TIP3   OH2  722   7.004   0.613   1.386  0.2068 -0.3735  0.1007
  253TIP3    H1  723   6.974   0.630   1.297 -0.1578 -2.6653 -0.2648
  253TIP3    H2  724   7.089   0.659   1.392 -0.0836  0.3718 -1.1618
  254TIP3   OH2  725   7.162   2.685   1.669  0.0404 -0.2123  0.0896
  254TIP3    H1  726   7.206   2.707   1.588  0.3436  1.7280  0.7367
  254TIP3    H2  727   7.160   2.589   1.670  1.9781 -0.3173 -1.1584
  255TIP3   OH2  728   6.736   5.872   3.828 -0.0198  0.2937 -0.8216
  255TIP3    H1  729   6.770   5.927   3.899 -2.5407 -2.1895  2.6749
  255TIP3    H2  730   6.663   5.923   3.792 -0.0734  0.7486 -0.1001
  256TIP3   OH2  731   0.626   4.570   2.148 -0.0963 -0.0481  0.0231
  256TIP3    H1  732   0.595   4.480   2.147  0.0063 -0.1483 -2.4550
  256TIP3    H2  733   0.552   4.621   2.181 -2.2735 -0.5414 -3.4860
  257TIP3   OH2  734   6.095   5.954   2.163  0.3941  0.3015  0.3478
  257TIP3    H1  735   6.066   5.885   2.222  2.4375 -0.9011  0.0257
  257TIP3    H2  736   6.141   5.908   2.093 -1.3192  1.7374 -1.8380
  258TIP3   OH2  737   4.885   2.810   2.383  0.0863  0.3346  0.0495
  258TIP3    H1  738   4.953   2.809   2.315  0.3268  0.5200  0.2858
  258TIP3    H2  739   4.899   2.893   2.429 -1.4631  1.2879 -1.0869
  259TIP3   OH2  740   2.567   5.845   5.573  0.4449  0.5846  0.2253
  259TIP3    H1  741   2.551   5.802   5.489  1.0650  0.0362  0.3779
  259TIP3    H2  742   2.591   5.774   5.632  2.4414  1.1965  0.2415
  260TIP3   OH2  743   5.655   6.411   5.492 -0.5863  0.4765  0.4217
  260TIP3    H1  744   5.607   6.378   5.568 -1.1160  0.3200  0.0277
  260TIP3    H2  745   5.587   6.426   5.426 -0.1411  0.6837  0.0063
  261TIP3   OH2  746   0.060   1.326   4.765  0.2550 -0.1926 -0.0088
  261TIP3    H1  747   0.142   1.281   4.784  0.4132 -0.7105 -1.7406
  261TIP3    H2  748   0.083   1.391   4.698 -0.6980 -0.1567 -0.3113
  262TIP3   OH2  749   5.292   3.986   3.021  0.0516  0.1613 -0.3273
  262TIP3    H1  750   5.293   3.972   3.115  0.1436 -1.3638 -0.5309
  262TIP3    H2  751   5.289   4.081   3.011 -1.7925  0.3305  1.2127
  263TIP3   OH2  752   6.219   3.483   2.477  0.0122  0.0406  0.0280
  263TIP3    H1  753   6.311   3.483   2.502 -0.2727  1.5937  1.2926
  263TIP3    H2  754   6.199   3.575   2.458 -1.2855 -0.2562 -0.1676
  264TIP3   OH2  755   4.632   1.337   0.307 -0.3558  0.0650  0.0943
  264TIP3    H1  756   4.597   1.379   0.386 -0.6491  3.0190 -1.4767
  264TIP3    H2  757   4.724   1.363   0.305 -0.1798 -0.5597 -0.2159
  265TIP3   OH2  758   0.418   3.956   5.006 -0.2722  0.1831 -0.4193
  265TIP3    H1  759   0.509   3.981   4.993 -0.6274  0.6104 -2.5785
  265TIP3    H2  760   0.406   3.953   5.101  1.8996  0.3747 -0.1047
  266TIP3   OH2  761   2.758   4.243   0.615 -0.3264 -0.3002  0.7120
  266TIP3    H1  762   2.673   4.277   0.589 -0.0975 -0.0156  0.3116
  266TIP3    H2  763   2.795   4.207   0.534  0.1559  0.0670  0.7635
  267TIP3   OH2  764   0.605   2.853   1.527  0.0023 -0.3371 -0.2443
  267TIP3    H1  765   0.696   2.882   1.534  0.3087 -0.9833 -1.3032
  267TIP3    H2  766   0.572   2.896   1.448 -0.6262 -0.1088  0.1292
  268TIP3   OH2  767   2.559   3.798   2.519 -0.1985 -0.3034 -0.2122
  268TIP3    H1  768   2.578   3.885   2.485  0.7759 -1.1855 -2.0266
  268TIP3    H2  769   2.487   3.812   2.581 -0.2380  1.7432 -0.6621
  269TIP3   OH2  770   7.031   1.196   2.611 -0.1473  0.5223  0.2791
  269TIP3    H1  771   6.961   1.178   2.673 -2.7026 -2.2242 -2.9633
  269TIP3    H2  772   7.109   1.156   2.649 -0.9342  1.2597  2.7989
  270TIP3   OH2  773   4.924   6.329   1.618 -0.2975  0.4611 -0.2015
  270TIP3    H1  774   4.870   6.333   1.697 -0.6175 -0.1920 -0.3799
  270TIP3    H2  775   4.926   6.236   1.595  2.3107  0.1774  0.7787
  271TIP3   OH2  776   1.194   6.316   2.994  0.4722  0.5577 -0.3741
  271TIP3    H1  777   1.266   6.280   3.047 -0.0557 -0.7512 -0.5132
  271TIP3    H2  778   1.230   6.397   2.958  2.3677 -0.6757 -1.4513
  272TIP3   OH2  779   5.616   0.726   3.958  0.2661 -0.2184  0.0312
  272TIP3    H1  780   5.691   0.785   3.949  1.2919 -1.2759  1.2077
  272TIP3    H2  781   5.633   0.656   3.894 -1.0715  0.8151 -1.5417
  273TIP3   OH2  782   6.357   0.612   3.363  0.1819  0.4476  0.1673
  273TIP3    H1  783   6.329   0.646   3.449 -2.0989 -2.5595  0.7608
  273TIP3    H2  784   6.289   0.643   3.303  0.8363  1.0998 -0.2407
  274TIP3   OH2  785   3.683   3.744   3.669 -0.5795 -0.0444  0.3064
  274TIP3    H1  786   3.633   3.801   3.727 -4.7437 -0.9111 -2.0132
  274TIP3    H2  787   3.683   3.659   3.712  1.2444  0.4598  1.4326
  275TIP3   OH2  788   1.598   6.576   4.094 -0.2331  0.5343 -0.2660
  275TIP3    H1  789   1.660   6.595   4.023 -0.3113  1.9487  0.0115
  275TIP3    H2  790   1.652   6.536   4.162  0.1031  0.4323 -0.5882
  276TIP3   OH2  791   2.481   0.304   2.102 -0.6908 -0.2242 -0.0054
  276TIP3    H1  792   2.543   0.358   2.054 -0.7448 -2.0704 -2.3286
  276TIP3    H2  793   2.407   0.362   2.119  0.0804  0.9726 -0.5698
  277TIP3   OH2  794   5.270   5.746   5.749  0.0088  0.2401 -0.3575
  277TIP3    H1  795   5.221   5.782   5.676  0.9361 -1.6820 -2.0176
  277TIP3    H2  796   5.265   5.652   5.738 -1.1133 -0.2389  2.9910
  278TIP3   OH2  797   4.767   2.620   2.137  0.2356  1.0808 -0.0317
  278TIP3    H1  798   4.770   2.657   2.225 -0.8269 -0.5580  0.7502
  278TIP3    H2  799   4.852   2.577   2.126  0.3507  1.2480  0.2043
  279TIP3   OH2  800   5.562   1.588   0.966  0.0799  0.7262  0.0220
  279TIP3    H1  801   5.537   1.679   0.949  0.8514  0.6001 -2.0369
  279TIP3    H2  802   5.557   1.545   0.881 -1.5267 -1.5329  1.1518
  280TIP3   OH2  803   0.439   3.578   3.177  0.2961 -0.4394 -0.0146
  280TIP3    H1  804   0.352   3.538   3.182  0.0656  0.2102  1.4380
  280TIP3    H2  805   0.494   3.524   3.234  0.2568  0.5726  1.0155
  281TIP3   OH2  806   1.902   0.442   0.553 -0.2791 -0.1823 -0.1683
  281TIP3    H1  807   1.855   0.437   0.635  0.2306  2.0408  0.3353
  281TIP3    H2  808   1.852   0.504   0.500 -0.4605 -1.3859 -1.4653
  282TIP3   OH2  809   6.879   4.327   1.345 -0.0366  0.0630  0.5787
  282TIP3    H1  810   6.791   4.364   1.342  0.8788  2.3583 -1.0216
  282TIP3    H2  811   6.872   4.245   1.296 -1.6812 -0.9301  2.3534
  283TIP3   OH2  812   7.037   0.782   1.788  0.7976 -0.1959  0.0942
  283TIP3    H1  813   7.107   0.823   1.737  0.7019  0.9405  0.8407
  283TIP3    H2  814   7.062   0.690   1.794  1.7307  0.0144 -0.4624
  284TIP3   OH2  815   4.313   3.524   5.446  0.2393 -0.0029  0.7850
  284TIP3    H1  816   4.392   3.521   5.393  0.3841  1.1324  0.9154
  284TIP3    H2  817   4.344   3.541   5.535 -0.1208 -0.0626  0.9235
  285TIP3   OH2  818   2.776   3.203   1.099 -0.4827 -0.2658  0.3089
  285TIP3    H1  819   2.855   3.165   1.138 -1.2691 -1.3146  0.9129
  285TIP3    H2  820   2.754   3.277   1.156  0.2070  0.2101 -0.0239
  286TIP3   OH2  821   5.326   2.981   4.510  0.1152 -0.4936 -0.0006
  286TIP3    H1  822   5.287   2.935   4.584 -0.6274  0.0171 -0.0517
  286TIP3    H2  823   5.280   3.065   4.509  1.1661  0.0859 -0.1417
  287TIP3   OH2  824   2.364   6.451   5.177  0.1974  0.5016 -0.5805
  287TIP3    H1  825   2.300   6.400   5.227 -1.6465 -0.1544 -3.3852
  287TIP3    H2  826   2.429   6.387   5.150  0.8416  0.7375  0.3456
  288TIP3   OH2  827   0.067   4.362   0.410 -0.1095  0.1437  0.1217
  288TIP3    H1  828   0.120   4.345   0.332  0.6621  0.8195  0.4782
  288TIP3    H2  829   0.010   4.286   0.418  3.0176 -2.2618  1.5758
  289TIP3   OH2  830   5.275   1.054   0.597 -0.0325  0.1810  0.2033
  289TIP3    H1  831   5.243   1.089   0.514 -0.3548  0.2402  0.3528
  289TIP3    H2  832   5.348   0.997   0.572 -1.3662 -1.3809 -0.3293
  290TIP3   OH2  833   6.680   1.574   1.192 -0.3551  0.0248 -0.3007
  290TIP3    H1  834   6.587   1.591   1.204 -0.9511 -1.4899 -2.2782
  290TIP3    H2  835   6.693   1.486   1.228  0.3353  0.2359 -0.0068
  291TIP3   OH2  836   5.779   1.122   5.336  0.0207  0.0214  0.0191
  291TIP3    H1  837   5.742   1.146   5.251  1.9712  0.3491 -0.7841
  291TIP3    H2  838   5.844   1.055   5.316  0.9821  0.5779  1.1498
  292TIP3   OH2  839   3.304   0.868   5.061  0.2611  0.0788 -0.3651
  292TIP3    H1  840   3.364   0.911   5.122  1.3092 -0.9740 -0.6312
  292TIP3    H2  841   3.260   0.941   5.016  1.6348  0.8845 -0.4623
  293TIP3   OH2  842   3.176   0.351   5.018 -0.1827 -0.0793  0.1460
  293TIP3    H1  843   3.230   0.276   5.043  2.0059  1.2473 -0.3473
  293TIP3    H2  844   3.216   0.384   4.937 -1.7853  0.9441 -0.2657
  294TIP3   OH2  845   6.339   0.044   0.976  0.8282  0.6624  0.1496
  294TIP3    H1  846   6.369   0.047   1.067 -1.7723  0.0798  1.1363
  294TIP3    H2  847   6.347  -0.048   0.951  2.4390  0.9735 -0.6071
  295TIP3   OH2  848   3.255   1.914   2.989  0.4205  0.0006 -0.4673
  295TIP3    H1  849   3.186   1.946   2.930 -0.7804 -2.0743 -0.2920
  295TIP3    H2  850   3.234   1.955   3.073 -1.3124 -1.3704 -0.1546
  296TIP3   OH2  851   4.516   2.022   3.085 -0.6036  0.0722  0.4703
  296TIP3    H1  852   4.565   2.066   3.154  0.1175 -1.4699  0.9696
  296TIP3    H2  853   4.581   1.971   3.037 -1.1302  0.9032 -1.2172
  297TIP3   OH2  854   3.672   2.919   3.966 -0.5379 -0.3076 -0.1781
  297TIP3    H1  855   3.670   2.852   3.897 -0.9902  0.3772 -0.8384
  297TIP3    H2  856   3.652   2.871   4.046  0.1631 -1.1488 -0.4881
  298TIP3   OH2  857   6.205   0.857   0.771 -0.3736  0.2008 -0.2759
  298TIP3    H1  858   6.215   0.950   0.790 -1.9639  0.7359 -1.8665
  298TIP3    H2  859   6.287   0.832   0.727 -0.2431  1.0153 -0.4977
  299TIP3   OH2  860   6.159   6.332   4.878  0.2486  0.2911 -0.1044
  299TIP3    H1  861   6.171   6.422   4.909  0.4234  0.2410 -0.0267
  299TIP3    H2  862   6.191   6.277   4.950 -0.9314  0.1428  0.3378
  300TIP3   OH2  863   0.286   5.901   2.375  0.7383  0.0757  0.2354
  300TIP3    H1  864   0.271   5.820   2.327 -1.4131 -0.7637  2.1522
  300TIP3    H2  865   0.211   5.957   2.352  0.3532  0.1408  1.5737
  301TIP3   OH2  866   1.971   6.577   0.861  0.5305 -0.2220 -0.0750
  301TIP3    H1  867   2.056   6.603   0.824  0.2259 -0.4001 -0.8983
  301TIP3    H2  868   1.910   6.645   0.832  0.0183 -1.0766 -1.0529
  302TIP3   OH2  869   2.454   2.340   2.731 -0.4034  0.0384  0.0365
  302TIP3    H1  870   2.477   2.303   2.816 -1.3534 -0.2423  0.1811
  302TIP3    H2  871   2.438   2.264   2.675 -2.9410  0.1522  0.4900
  303TIP3   OH2  872   1.669   5.449   3.686 -0.0203 -0.3630  0.4012
  303TIP3    H1  873   1.698   5.458   3.777  1.6286 -0.8984 -0.0358
  303TIP3    H2  874   1.687   5.358   3.663  0.8698  0.0829 -0.8445
  304TIP3   OH2  875   6.582   4.546   1.557  0.2243 -0.2196 -0.7138
  304TIP3    H1  876   6.494   4.581   1.544 -0.0087 -0.0843  0.9856
  304TIP3    H2  877   6.584   4.466   1.504  0.5257  1.8323 -4.0654
  305TIP3   OH2  878   4.475   5.120   5.450 -0.6506  0.5023  0.2174
  305TIP3    H1  879   4.488   5.208   5.486 -0.2617  0.1713  0.9039
  305TIP3    H2  880   4.542   5.112   5.382 -1.4860  1.1867 -0.7100
  306TIP3   OH2  881   0.351   6.538   0.497 -0.1919  0.0117  0.6757
  306TIP3    H1  882   0.333   6.576   0.583 -0.4718 -0.9761  1.0653
  306TIP3    H2  883   0.285   6.577   0.440  1.0582  2.0290  0.4846
  307TIP3   OH2  884   0.533   5.198   2.811 -0.3297  0.2010 -0.1150
  307TIP3    H1  885   0.614   5.219   2.764 -1.6249  0.8208 -2.2392
  307TIP3    H2  886   0.531   5.258   2.885  0.9727  0.4050 -0.2235
  308TIP3   OH2  887   5.156   6.629   5.835  0.2635 -0.4139 -0.2968
  308TIP3    H1  888   5.206   6.631   5.916  0.3710 -2.2273 -0.2927
  308TIP3    H2  889   5.184   6.549   5.791 -0.1588  0.2816 -1.9010
  309TIP3   OH2  890   4.611   3.318   3.239 -0.0425 -0.3619 -0.4157
  309TIP3    H1  891   4.623   3.412   3.227  0.8398 -0.3286  0.5723
  309TIP3    H2  892   4.571   3.309   3.326  0.7295 -0.9272 -0.1006
  310TIP3   OH2  893   5.018   3.580   4.070  0.4142 -0.2679 -0.4833
  310TIP3    H1  894   5.068   3.610   4.146  0.8834 -1.4109 -0.3230
  310TIP3    H2  895   4.926   3.593   4.096  0.5903  1.1628 -0.5009
  311TIP3   OH2  896   6.575   6.586   0.155 -0.0489  0.0621  0.0175
  311TIP3    H1  897   6.576   6.518   0.223  0.1926 -0.8036 -0.8263
  311TIP3    H2  898   6.586   6.538   0.073  0.5938  1.1772 -0.5698
  312TIP3   OH2  899   1.212   1.094   3.541 -0.3023  0.2363 -0.2853
  312TIP3    H1  900   1.121   1.078   3.564 -0.0180 -1.3999 -0.1805
  312TIP3    H2  901   1.226   1.046   3.459  0.5580  0.1343 -0.0965
  313TIP3   OH2  902   2.526   0.200   4.730  0.4327 -0.0562  0.1604
  313TIP3    H1  903   2.539   0.262   4.802  1.0167 -0.0195  0.0258
  313TIP3    H2  904   2.604   0.209   4.676 -0.0650  0.0000 -0.5487
  314TIP3   OH2  905   4.480   6.220   0.985  0.0826 -0.2488  0.1637
  314TIP3    H1  906   4.534   6.234   0.907 -0.2949  2.4761  0.2907
  314TIP3    H2  907   4.542   6.223   1.058  0.0972  0.1647  0.1373
  315TIP3   OH2  908   1.366   3.585   2.611  0.3011 -0.5534  0.1305
  315TIP3    H1  909   1.383   3.547   2.698 -0.2116  0.2892  0.6176
  315TIP3    H2  910   1.320   3.515   2.564  2.7255 -1.9316 -0.3486
  316TIP3   OH2  911   7.005   5.204   3.679  0.0339 -0.6143 -0.0908
  316TIP3    H1  912   6.931   5.175   3.733  0.4174 -0.2674  0.6335
  316TIP3    H2  913   7.013   5.298   3.698  0.1655 -0.4821 -0.7686
  317TIP3   OH2  914   1.146   4.136   3.461 -0.3832  0.2820 -0.2835
  317TIP3    H1  915   1.056   4.132   3.429 -0.7077 -0.7140  0.7002
  317TIP3    H2  916   1.185   4.209   3.414 -2.3620  2.2137  0.9378
  318TIP3   OH2  917   1.656   2.128   3.621 -0.0916 -0.0183  0.2965
  318TIP3    H1  918   1.591   2.172   3.567 -0.1490 -1.3799 -0.8207
  318TIP3    H2  919   1.620   2.131   3.709 -2.2113 -1.5577 -0.4131
  319TIP3   OH2  920   2.124   5.062   0.751 -0.2842  0.3449  0.2763
  319TIP3    H1  921   2.103   4.979   0.706 -0.6299  0.2256  0.6541
  319TIP3    H2  922   2.040   5.105   0.761 -0.1278  0.6498  0.2721
  320TIP3   OH2  923   1.428   5.586   4.888 -0.0102 -0.2925  0.4186
  320TIP3    H1  924   1.418   5.491   4.883 -2.5974 -0.0478 -0.2652
  320TIP3    H2  925   1.496   5.606   4.825 -0.9115 -1.5239 -1.0047
  321TIP3   OH2  926   0.230   2.028   3.146  0.0727 -0.1753 -0.1659
  321TIP3    H1  927   0.229   2.074   3.063 -0.9319  0.4279  0.1691
  321TIP3    H2  928   0.197   1.940   3.126  1.1407 -0.4899 -0.6358
  322TIP3   OH2  929   4.477   4.404   3.582 -0.4009 -0.4140  0.2910
  322TIP3    H1  930   4.451   4.441   3.498 -0.1080 -1.1044 -0.1081
  322TIP3    H2  931   4.524   4.474   3.626 -0.9846  0.1133  0.0863
  323TIP3   OH2  932   0.449   3.084   5.343  0.0457  0.5017 -0.3155
  323TIP3    H1  933   0.476   2.994   5.357  0.9075  0.1938 -3.2711
  323TIP3    H2  934   0.492   3.134   5.412  0.6649 -1.1488  0.5371
  324TIP3   OH2  935   1.635   0.436   0.429  0.1498 -0.3314  0.4902
  324TIP3    H1  936   1.692   0.512   0.412  0.7444 -1.1743 -1.7714
  324TIP3    H2  937   1.640   0.422   0.523  3.0535  0.1845  0.5078
  325TIP3   OH2  938   3.311   2.021   0.840  0.0229  0.1195  0.6581
  325TIP3    H1  939   3.251   2.089   0.807 -0.2467 -0.4021  0.0483
  325TIP3    H2  940   3.339   2.054   0.926 -2.1166 -0.1874  1.5408
  326TIP3   OH2  941   6.538   0.223   2.273 -0.1563 -0.1476  0.1493
  326TIP3    H1  942   6.523   0.133   2.302  1.6779 -0.5649 -0.0779
  326TIP3    H2  943   6.511   0.224   2.181 -0.4700 -0.3772  0.2385
  327TIP3   OH2  944   0.249   3.526   1.845 -0.2813  0.2385  0.3820
  327TIP3    H1  945   0.227   3.570   1.763 -1.2148 -0.3348  0.2979
  327TIP3    H2  946   0.165   3.517   1.890  0.0151 -0.6328  0.7933
  328TIP3   OH2  947   6.914   1.477   0.913  0.5921  0.0204  0.8162
  328TIP3    H1  948   6.994   1.482   0.861 -0.1273  0.2068 -0.2995
  328TIP3    H2  949   6.937   1.518   0.997  1.4714  0.6832  0.2635
  329TIP3   OH2  950   6.756   3.677   0.651 -0.4083 -0.4698  0.2453
  329TIP3    H1  951   6.789   3.761   0.684  0.4715 -0.5320 -0.4261
  329TIP3    H2  952   6.661   3.689   0.647 -0.1878  1.8628 -3.1457
  330TIP3   OH2  953   2.940   3.813   0.651 -0.3443  0.1601 -0.0411
  330TIP3    H1  954   2.869   3.817   0.715 -0.0981 -1.1010  0.3342
  330TIP3    H2  955   2.896   3.797   0.567 -0.5290 -0.1953  0.1249
  331TIP3   OH2  956   2.416   1.071   2.098  0.0538 -0.5480 -0.2243
  331TIP3    H1  957   2.476   1.107   2.032 -1.0675  1.1220 -0.3961
  331TIP3    H2  958   2.433   0.977   2.097  1.9543 -0.2470 -0.9701
  332TIP3   OH2  959   6.274   5.678   5.362 -0.4809 -0.2583 -0.0807
  332TIP3    H1  960   6.304   5.663   5.273  2.1561 -0.8553  0.8156
  332TIP3    H2  961   6.266   5.591   5.401 -0.2200  0.0336  0.6600
  333TIP3   OH2  962   6.278   5.623   4.871 -0.3125  0.1195 -0.1785
  333TIP3    H1  963   6.214   5.609   4.941 -0.6022 -4.1750 -1.0125
  333TIP3    H2  964   6.228   5.613   4.790  0.4407  2.7190 -1.0707
  334TIP3   OH2  965   4.646   2.734   1.470 -0.0617 -0.2002  0.2881
  334TIP3    H1  966   4.655   2.747   1.376  2.0547  0.1375  0.5034
  334TIP3    H2  967   4.694   2.807   1.510  0.2056 -1.0641  1.6185
  335TIP3   OH2  968   3.904   5.912   2.113 -0.3354 -0.2469 -0.7200
  335TIP3    H1  969   3.998   5.919   2.093  0.1687  0.7772  1.6102
  335TIP3    H2  970   3.899   5.840   2.175 -0.3484  2.1697  2.3709
  336TIP3   OH2  971   3.651   4.059   2.125 -0.0768 -0.1719 -0.1477
  336TIP3    H1  972   3.558   4.049   2.103 -0.5344 -1.4907  2.1125
  336TIP3    H2  973   3.658   4.147   2.161 -0.7951 -0.5609  1.0093
  337TIP3   OH2  974   0.921   5.051   1.608 -0.3571  0.6603 -0.2456
  337TIP3    H1  975   0.998   5.020   1.560  1.1567  2.0868  1.1486
  337TIP3    H2  976   0.856   5.070   1.539  0.4282 -0.7672 -1.4321
  338TIP3   OH2  977   6.791   4.321   0.406 -0.1846  0.3550  0.3877
  338TIP3    H1  978   6.823   4.317   0.316  0.2598 -0.9207  0.5796
  338TIP3    H2  979   6.705   4.363   0.400 -0.0706  0.4655 -0.5979
  339TIP3   OH2  980   0.470   6.548   0.110 -0.3978  0.3170  0.0587
  339TIP3    H1  981   0.437   6.467   0.148  0.3179 -0.4245 -0.8289
  339TIP3    H2  982   0.494   6.602   0.185 -1.3551 -0.0819  0.6694
  340TIP3   OH2  983   1.339   3.906   4.518  0.3854 -0.1334 -0.1484
  340TIP3    H1  984   1.403   3.977   4.510  1.8068 -1.5380 -2.5069
  340TIP3    H2  985   1.300   3.899   4.431 -0.1298 -1.8485  0.1815
  341TIP3   OH2  986   2.471   5.604   4.456 -0.1770  0.0597  0.2550
  341TIP3    H1  987   2.541   5.544   4.480  0.5622  0.0957 -1.6408
  341TIP3    H2  988   2.435   5.568   4.375 -1.7560  0.5405  0.7078
  342TIP3   OH2  989   4.076   5.056   2.102  0.8411 -0.0494  0.8152
  342TIP3    H1  990   4.043   4.972   2.133 -1.6908 -0.2090 -1.9242
  342TIP3    H2  991   4.132   5.034   2.027  0.1088  0.6578  0.0358
  343TIP3   OH2  992   6.513   2.060   2.790 -0.1594 -0.1940  0.4377
  343TIP3    H1  993   6.515   2.021   2.702  2.2839  0.0240  0.3300
  343TIP3    H2  994   6.439   2.121   2.787  0.4709  0.5571 -1.8151
  344TIP3   OH2  995   7.206   5.380   2.340  0.4540 -0.1421  0.0310
  344TIP3    H1  996   7.131   5.435   2.365  2.4919  1.6281  2.8427
  344TIP3    H2  997   7.196   5.368   2.246 -1.2777  3.4349 -0.4357
  345TIP3   OH2  998   6.535   4.403   0.655  0.5486  0.5685  0.0697
  345TIP3    H1  999   6.459   4.361   0.615  0.1163  1.7191 -0.3558
  345TIP3    H2 1000   6.603   4.397   0.588  0.8945 -0.5839  0.5030
  346TIP3   OH2 1001   5.824   1.006   0.001 -0.6646  0.3887 -0.3827
  346TIP3    H1 1002   5.908   0.976  -0.033 -0.3447  1.4009 -0.5158
  346TIP3    H2 1003   5.840   1.024   0.094 -0.6391  0.8743 -0.4750
  347TIP3   OH2 1004   5.827   5.737   3.334 -0.2781  0.7294 -0.1398
  347TIP3    H1 1005   5.864   5.767   3.251  0.2229  0.6354  0.0454
  347TIP3    H2 1006   5.736   5.719   3.315  0.0353 -0.1180 -0.8808
  348TIP3   OH2 1007   1.496   5.642   3.673  0.1655  0.1286  0.0190
  348TIP3    H1 1008   1.431   5.610   3.735 -2.4401 -0.5186 -2.7793
  348TIP3    H2 1009   1.564   5.575   3.674  0.3497  0.2766  2.2612
  349TIP3   OH2 1010   6.332   1.364   4.677 -0.3508  0.7929  0.4049
  349TIP3    H1 1011   6.377   1.286   4.708  0.0669  0.5590 -0.7255
  349TIP3    H2 1012   6.316   1.347   4.584 -0.5502  1.9142  0.2169
  350TIP3   OH2 1013   0.170   1.233   2.912  0.2735  0.3234 -0.4721
  350TIP3    H1 1014   0.144   1.153   2.866 -1.1711  0.0747  0.7096
  350TIP3    H2 1015   0.089   1.281   2.924  0.7041  0.6889  1.2145
  351TIP3   OH2 1016   2.855   2.950   2.121  0.4127 -0.0044 -0.0962
  351TIP3    H1 1017   2.866   2.912   2.208 -1.3116 -0.1920  0.0616
  351TIP3    H2 1018   2.873   3.044   2.134  0.6671 -0.1079  0.3455
  352TIP3   OH2 1019   7.108   1.372   3.188 -0.3392  0.1477  0.0752
  352TIP3    H1 1020   7.036   1.333   3.239  1.2692 -2.5240  0.5006
  352TIP3    H2 1021   7.126   1.455   3.233 -1.0617 -0.6453  1.9471
  353TIP3   OH2 1022   3.842   1.180   4.188 -0.4108  0.0954  0.0871
  353TIP3    H1 1023   3.909   1.126   4.147 -0.0961 -0.1393  0.8867
  353TIP3    H2 1024   3.884   1.266   4.199 -1.6435  1.2631 -3.2540
  354TIP3   OH2 1025   0.738   5.541   3.986 -0.1408 -0.5290  0.7891
  354TIP3    H1 1026   0.657   5.536   3.935  0.2971 -1.8482  0.1765
  354TIP3    H2 1027   0.796   5.477   3.945  1.3592  0.6430  0.9895
  355TIP3   OH2 1028   0.674   1.574   1.898 -0.0639  0.3212  0.0180
  355TIP3    H1 1029   0.756   1.552   1.944  0.2768  2.2546  0.4040
  355TIP3    H2 1030   0.695   1.654   1.850 -1.8412  1.0574  0.4209
  356TIP3   OH2 1031   1.852   6.367   5.180  0.4080  0.0131  0.2427
  356TIP3    H1 1032   1.830   6.348   5.088 -0.5800  0.0023  0.4763
  356TIP3    H2 1033   1.778   6.418   5.212  1.8706  2.1811  0.3484
  357TIP3   OH2 1034   2.462   6.454   3.282 -0.0688 -0.4131 -0.0842
  357TIP3    H1 1035   2.513   6.405   3.347 -0.7472  0.5158  1.1979
  357TIP3    H2 1036   2.388   6.489   3.331 -0.8412 -0.0237 -1.4684
  358TIP3   OH2 1037   2.598   2.181   5.794  0.2016  0.1210 -0.5129
  358TIP3    H1 1038   2.639   2.256   5.837  0.3746 -0.3827  0.2162
  358TIP3    H2 1039   2.640   2.177   5.708 -0.1478  1.1388 -0.7424
  359TIP3   OH2 1040   7.188   6.756   1.306 -0.0872  0.0010 -0.0168
  359TIP3    H1 1041   7.149   6.668   1.307  0.1214 -0.1115  2.1754
  359TIP3    H2 1042   7.219   6.770   1.395  1.1712  1.7646 -0.6711
  360TIP3   OH2 1043   6.501   2.905   5.618 -0.1442  0.0333  0.2530
  360TIP3    H1 1044   6.443   2.937   5.549 -0.9723  1.3133  1.5072
  360TIP3    H2 1045   6.456   2.926   5.700  1.4779 -0.1416  1.2367
  361TIP3   OH2 1046   1.878   4.392   5.748  0.3356 -0.2013 -0.4619
  361TIP3    H1 1047   1.889   4.361   5.838 -2.4199  0.0906  0.0520
  361TIP3    H2 1048   1.874   4.487   5.755  0.5525 -0.1477 -0.9707
  362TIP3   OH2 1049   1.154   2.802   3.748  0.1680  0.4917  0.3069
  362TIP3    H1 1050   1.156   2.827   3.656  0.7091  2.1407  0.7311
  362TIP3    H2 1051   1.062   2.806   3.773 -0.0124 -0.2211 -0.2087
  363TIP3   OH2 1052   2.864   5.633   5.636 -0.1774 -0.8221  0.0787
  363TIP3    H1 1053   2.917   5.710   5.617  1.2465 -0.8342  3.3479
  363TIP3    H2 1054   2.906   5.563   5.586 -0.0155  0.0617 -1.0565
  364TIP3   OH2 1055   2.767   1.855   1.839  0.8486 -0.7827 -0.1091
  364TIP3    H1 1056   2.806   1.848   1.752  1.1081  0.9036 -0.1666
  364TIP3    H2 1057   2.843   1.859   1.898  0.6779 -3.4159  0.3874
  365TIP3   OH2 1058   5.514   6.729   2.556 -0.5357 -0.0302 -0.1404
  365TIP3    H1 1059   5.483   6.652   2.509  0.5678  0.1971 -1.2705
  365TIP3    H2 1060   5.537   6.696   2.643 -1.3100 -0.7108 -0.1839
  366TIP3   OH2 1061   5.110   1.519   2.545  0.4239  0.1502 -0.3377
  366TIP3    H1 1062   5.164   1.580   2.596 -0.1705  1.1511 -0.8776
  366TIP3    H2 1063   5.096   1.444   2.603  1.5339  0.3202  0.1750
  367TIP3   OH2 1064   2.492   5.719   2.204 -0.2807 -0.2565  0.1485
  367TIP3    H1 1065   2.424   5.747   2.265 -0.4885  0.5450 -0.4386
  367TIP3    H2 1066   2.497   5.789   2.139 -0.1492 -1.1439 -0.8252
  368TIP3   OH2 1067   3.904   4.565   2.325  0.3578  0.0402  0.1599
  368TIP3    H1 1068   3.842   4.573   2.397  0.2241 -1.0843  0.1919
  368TIP3    H2 1069   3.905   4.471   2.305  1.1732  0.2018 -0.6097
  369TIP3   OH2 1070   5.334   0.496   3.954  0.4127 -0.0758 -0.2942
  369TIP3    H1 1071   5.348   0.564   3.888  0.1472  0.8859  0.6043
  369TIP3    H2 1072   5.247   0.461   3.935  0.6064 -0.2709 -0.8461
  370TIP3   OH2 1073   2.787   0.709   0.609  0.2153  0.4808  0.0408
  370TIP3    H1 1074   2.780   0.763   0.531 -0.8963 -0.3676 -0.4734
  370TIP3    H2 1075   2.870   0.663   0.599  0.4558  0.9650 -0.2406
  371TIP3   OH2 1076   6.660   5.393   4.024 -0.2461 -0.4720 -0.3119
  371TIP3    H1 1077   6.568   5.372   4.038 -0.0809 -0.5533  0.7190
  371TIP3    H2 1078   6.708   5.330   4.077  0.3664  0.2115 -0.0265
  372TIP3   OH2 1079   2.441   5.437   3.448  0.0441  0.1165  0.0459
  372TIP3    H1 1080   2.456   5.446   3.542 -1.8738 -2.0335  0.6388
  372TIP3    H2 1081   2.345   5.431   3.439  0.2346 -1.0530 -1.8779
  373TIP3   OH2 1082   3.318   4.279   5.103 -0.5386  0.1905  0.1056
  373TIP3    H1 1083   3.321   4.331   5.022 -1.4198  2.5526  1.4753
  373TIP3    H2 1084   3.397   4.225   5.099  0.2905  1.3973 -1.5928
  374TIP3   OH2 1085   1.732   1.784   5.501  0.1947 -0.4851 -0.0599
  374TIP3    H1 1086   1.749   1.698   5.539 -1.8562 -1.1735 -0.5749
  374TIP3    H2 1087   1.637   1.790   5.496  0.3178  1.1587 -1.5329
  375TIP3   OH2 1088   3.561   1.493   2.817  0.4136 -0.0408  0.0323
  375TIP3    H1 1089   3.615   1.556   2.865  0.2975  0.4253 -0.4361
  375TIP3    H2 1090   3.512   1.547   2.754 -0.9551 -0.3981  0.7612
  376TIP3   OH2 1091   4.871   0.548   4.437  0.0069  0.2342  0.2204
  376TIP3    H1 1092   4.859   0.619   4.501 -0.5020 -0.5488  1.0103
  376TIP3    H2 1093   4.961   0.519   4.450  0.2674  0.8225 -0.2104
  377TIP3   OH2 1094   6.293   2.386   3.869  0.3876  0.5343 -0.5475
  377TIP3    H1 1095   6.284   2.398   3.964  0.7119  2.9911 -0.7684
  377TIP3    H2 1096   6.244   2.305   3.851 -0.2264  0.3510  1.6036
  378TIP3   OH2 1097   1.912   0.944   3.017 -0.3006 -0.2415  0.4361
  378TIP3    H1 1098   2.000   0.971   2.992 -0.7687 -1.6334 -3.2390
  378TIP3    H2 1099   1.918   0.849   3.027 -1.0799 -0.1738  1.8049
  379TIP3   OH2 1100   1.216   4.459   0.697  0.4107 -0.4384 -0.0056
  379TIP3    H1 1101   1.307   4.471   0.726  0.3422  0.0514  0.0229
  379TIP3    H2 1102   1.194   4.370   0.723  1.1948 -0.9008 -0.8716
  380TIP3   OH2 1103   6.248   2.164   3.072 -0.4566 -0.2236  0.5236
  380TIP3    H1 1104   6.174   2.193   3.019 -0.1393  1.4708  0.9535
  380TIP3    H2 1105   6.214   2.163   3.162  0.0694  0.7355  0.7454
  381TIP3   OH2 1106   1.135   3.390   0.926 -0.1548  0.1557  0.8765
  381TIP3    H1 1107   1.111   3.298   0.917 -0.7529  0.4008 -0.1105
  381TIP3    H2 1108   1.144   3.403   1.021 -0.3530 -0.8364  1.0410
  382TIP3   OH2 1109   0.910   0.244   1.176 -0.1632  0.3696 -0.1939
  382TIP3    H1 1110   0.967   0.288   1.238  0.9291 -0.1047 -0.8321
  382TIP3    H2 1111   0.873   0.170   1.226 -0.7309  1.0401  0.3985
  383TIP3   OH2 1112   7.120   4.990   5.640 -0.1477 -0.4167  0.5637
  383TIP3    H1 1113   7.194   5.039   5.676  0.9197 -1.8124  0.3701
  383TIP3    H2 1114   7.121   4.907   5.687 -1.7214 -0.3959  0.6783
  384TIP3   OH2 1115   0.919   5.892   0.921 -0.0564  0.0183  0.4181
  384TIP3    H1 1116   0.946   5.881   0.830 -3.1218 -1.6603 -0.4580
  384TIP3    H2 1117   0.878   5.979   0.923 -0.2121 -0.0429  0.0892
  385TIP3   OH2 1118   0.737   4.114   0.961  0.1060 -0.4433 -0.3750
  385TIP3    H1 1119   0.780   4.193   0.929  0.5713 -0.5023  0.0948
  385TIP3    H2 1120   0.673   4.092   0.893  0.2371  0.1172 -0.6854
  386TIP3   OH2 1121   1.158   3.141   3.004 -0.2562 -0.4625 -0.1769
  386TIP3    H1 1122   1.195   3.198   2.936 -1.3642  1.7918  0.9977
  386TIP3    H2 1123   1.064   3.140   2.986 -0.2312 -2.3017 -0.3839
  387TIP3   OH2 1124   5.630   4.197   5.333 -0.1119 -0.3331  0.0776
  387TIP3    H1 1125   5.702   4.241   5.288 -1.1757  1.4869  0.0595
  387TIP3    H2 1126   5.583   4.151   5.264 -0.9031  1.2735 -0.5090
  388TIP3   OH2 1127   4.472   1.113  -0.025  0.8832 -0.0518 -0.8093
  388TIP3    H1 1128   4.523   1.134   0.053  1.6110 -0.1071 -1.2652
  388TIP3    H2 1129   4.396   1.171  -0.020 -0.6590 -2.0785  1.4771
  389TIP3   OH2 1130   4.283   1.858   5.171  0.2793 -0.1264 -0.1713
  389TIP3    H1 1131   4.378   1.870   5.178  0.6249 -1.4403 -1.8757
  389TIP3    H2 1132   4.257   1.919   5.101 -0.2619  0.6485  0.6771
  390TIP3   OH2 1133   0.293   3.710   2.591 -0.2146 -0.0256  0.2023
  390TIP3    H1 1134   0.264   3.781   2.649  0.2035 -0.2559  0.6944
  390TIP3    H2 1135   0.388   3.707   2.601 -0.1568 -0.1959 -0.3507
  391TIP3   OH2 1136   6.513   1.110   5.641 -0.5292  0.5519  0.0092
  391TIP3    H1 1137   6.533   1.178   5.705  0.7431  0.0558  0.1728
  391TIP3    H2 1138   6.544   1.145   5.558  2.5875 -0.7661  0.4669
  392TIP3   OH2 1139   2.622   1.576   1.346 -0.0516  0.0980  0.2329
  392TIP3    H1 1140   2.599   1.665   1.374 -2.0225  0.0972 -1.1244
  392TIP3    H2 1141   2.713   1.581   1.320 -0.2625  1.8765 -0.2861
  393TIP3   OH2 1142   0.601   2.081   5.246 -0.1964  0.8215 -0.1977
  393TIP3    H1 1143   0.511   2.069   5.276 -0.0476  1.0977  0.3775
  393TIP3    H2 1144   0.624   2.169   5.276  0.6070  0.3700  0.5268
  394TIP3   OH2 1145   5.039   4.869   4.494 -0.2339  0.0916 -0.1358
  394TIP3    H1 1146   5.071   4.885   4.583 -0.4221  1.9722 -0.3570
  394TIP3    H2 1147   5.090   4.929   4.439 -1.4788  0.3747 -1.0235
  395TIP3   OH2 1148   2.133   4.278   0.465 -0.2283  0.1617 -0.4991
  395TIP3    H1 1149   2.171   4.211   0.408 -0.1233  0.3174 -0.6133
  395TIP3    H2 1150   2.052   4.304   0.421  0.1328  0.6812 -0.8649
  396TIP3   OH2 1151   5.062   2.747   1.581 -0.0533 -0.0322 -0.6109
  396TIP3    H1 1152   5.100   2.694   1.511  1.7476  0.3786 -0.0016
  396TIP3    H2 1153   5.056   2.687   1.656 -0.2858  0.0020 -0.6007
  397TIP3   OH2 1154   4.793   5.236   5.559  0.1592  0.4815 -0.1748
  397TIP3    H1 1155   4.821   5.262   5.647  0.9401  0.0559 -0.2873
  397TIP3    H2 1156   4.874   5.211   5.515 -0.4347 -1.3984 -0.3198
  398TIP3   OH2 1157   2.608   3.476   5.263 -0.1244 -0.1115  0.3261
  398TIP3    H1 1158   2.581   3.564   5.236  0.7708  0.2461  0.5670
  398TIP3    H2 1159   2.590   3.421   5.187  2.0039  0.8031 -0.9275
  399TIP3   OH2 1160   1.457   0.122   1.813 -0.2492  0.5987  0.1488
  399TIP3    H1 1161   1.437   0.034   1.847  0.5617  1.1093  2.1115
  399TIP3    H2 1162   1.505   0.107   1.732 -0.6826 -0.7585  0.1219
  400TIP3   OH2 1163   0.700   0.547   3.158  0.0317  0.3706  0.1086
  400TIP3    H1 1164   0.690   0.620   3.098  0.0985  1.3619  1.2635
  400TIP3    H2 1165   0.738   0.586   3.237 -1.9482 -0.4723  1.5684
  401TIP3   OH2 1166   6.990   4.654   0.143  0.0272  0.2720  0.2703
  401TIP3    H1 1167   6.940   4.651   0.225  0.1424  0.1060  0.3349
  401TIP3    H2 1168   7.042   4.573   0.143 -0.1996  0.1193 -0.1081
  402TIP3   OH2 1169   3.695   5.840   4.372  0.0873 -0.4246  0.0521
  402TIP3    H1 1170   3.664   5.929   4.358 -0.6620 -0.3479  1.9497
  402TIP3    H2 1171   3.616   5.788   4.382  0.5246 -1.2135 -0.4707
  403TIP3   OH2 1172   3.942   1.991   1.271  0.2344  0.1264  0.5656
  403TIP3    H1 1173   3.883   1.933   1.223 -0.3135  1.8448 -0.9675
  403TIP3    H2 1174   3.951   1.951   1.357 -3.3636 -0.1386  0.9602
  404TIP3   OH2 1175   1.878   6.488   5.804  0.3117 -0.2522 -0.1315
  404TIP3    H1 1176   1.924   6.533   5.874  0.4145 -0.2147 -0.2221
  404TIP3    H2 1177   1.789   6.477   5.837  0.3269 -0.1230 -0.0451
  405TIP3   OH2 1178   6.156   1.626   5.864 -0.3373  0.1272  0.4560
  405TIP3    H1 1179   6.232   1.682   5.851  0.3939 -0.8367  0.5318
  405TIP3    H2 1180   6.132   1.640   5.956  1.2985 -1.4111  1.1846
  406TIP3   OH2 1181   4.941   1.848   3.710  0.6041  0.3642 -0.5160
  406TIP3    H1 1182   4.907   1.836   3.798  0.4929  2.2099 -0.2870
  406TIP3    H2 1183   5.034   1.869   3.723  1.1230 -1.4059 -0.9834
  407TIP3   OH2 1184   6.578   2.601   5.810 -0.6519  0.2957 -0.1264
  407TIP3    H1 1185   6.601   2.687   5.843  2.1855 -0.9166  1.4355
  407TIP3    H2 1186   6.638   2.585   5.737 -1.2228 -0.3069 -0.4829
  408TIP3   OH2 1187   0.275   6.600   4.551  0.1023  0.2882  0.2288
  408TIP3    H1 1188   0.191   6.580   4.510  0.1940 -0.7016  0.5081
  408TIP3    H2 1189   0.263   6.576   4.643  0.2629  1.4334  0.5736
  409TIP3   OH2 1190   3.340   6.488   1.511 -0.2998  0.2238 -0.7026
  409TIP3    H1 1191   3.398   6.441   1.451  0.0187  0.3065 -0.4672
  409TIP3    H2 1192   3.400   6.543   1.563 -0.7721  2.3330 -2.2266
  410TIP3   OH2 1193   6.820   0.576   5.107  0.1374 -0.0008 -0.3118
  410TIP3    H1 1194   6.736   0.592   5.063 -0.4649 -0.6367  0.5704
  410TIP3    H2 1195   6.796   0.542   5.193  1.3083 -1.1743 -0.4080
  411TIP3   OH2 1196   0.901   4.084   3.318 -0.2114 -0.5866  0.3368
  411TIP3    H1 1197   0.924   4.100   3.227 -2.3852  0.5910 -0.0781
  411TIP3    H2 1198   0.809   4.111   3.325 -0.1773 -0.8413  2.8313
  412TIP3   OH2 1199   4.832   3.316   2.446  0.0824 -0.2200 -0.3813
  412TIP3    H1 1200   4.881   3.352   2.520 -1.6609 -1.0798  1.2762
  412TIP3    H2 1201   4.743   3.350   2.457 -0.0636  0.1742 -2.5027
  413TIP3   OH2 1202   0.916   3.470   2.442  0.6446  0.3265 -0.5127
  413TIP3    H1 1203   0.869   3.448   2.523  0.9407  2.3212  0.2611
  413TIP3    H2 1204   0.874   3.416   2.375  0.5157 -1.5539  0.9611
  414TIP3   OH2 1205   1.402   0.828   0.393 -0.1860 -0.4463 -0.9423
  414TIP3    H1 1206   1.475   0.848   0.451 -0.6287  0.3529 -0.6303
  414TIP3    H2 1207   1.390   0.908   0.342 -1.3887 -0.2287 -0.3707
  415TIP3   OH2 1208   2.367   1.451   5.286 -0.4006  0.0192  0.5961
  415TIP3    H1 1209   2.389   1.455   5.193  2.0494 -1.1867  1.0264
  415TIP3    H2 1210   2.343   1.541   5.309  3.0589  1.3536 -0.3925
  416TIP3   OH2 1211   4.988   4.387   4.762  0.1263 -0.1621  0.6391
  416TIP3    H1 1212   4.959   4.338   4.839  1.2370 -0.2749  0.9969
  416TIP3    H2 1213   5.025   4.320   4.704 -1.0411 -0.1335 -0.1786
  417TIP3   OH2 1214   6.450   2.495   4.719 -0.2692  0.0074 -0.3541
  417TIP3    H1 1215   6.361   2.529   4.720 -0.2986 -0.0441 -0.8002
  417TIP3    H2 1216   6.475   2.488   4.811 -0.5846  0.3872 -0.2405
  418TIP3   OH2 1217   1.389   2.172   5.189 -0.6625  0.1946  0.1318
  418TIP3    H1 1218   1.384   2.078   5.171 -0.9724  0.1271  0.5391
  418TIP3    H2 1219   1.462   2.181   5.251  0.1571  0.3787 -0.8399
  419TIP3   OH2 1220   2.914   5.180   3.313  0.2650 -0.6684 -0.1166
  419TIP3    H1 1221   2.867   5.099   3.293  0.5101 -0.4980 -1.5048
  419TIP3    H2 1222   2.875   5.245   3.254 -0.6722  0.5131  1.7062
  420TIP3   OH2 1223   6.081   1.300   3.466  0.0618  0.0079  0.3281
  420TIP3    H1 1224   6.004   1.247   3.483 -1.7777  1.5628 -2.4522
  420TIP3    H2 1225   6.155   1.240   3.481 -1.7087 -2.0782  1.2684
  421TIP3   OH2 1226   7.230   5.004   5.149  0.2378  0.3566  0.6595
  421TIP3    H1 1227   7.223   4.957   5.233 -0.6522  0.4041  0.6269
  421TIP3    H2 1228   7.142   5.039   5.134  0.2796  0.0158 -0.4916
  422TIP3   OH2 1229   2.767   5.358   3.175  0.6404  0.0185 -0.1681
  422TIP3    H1 1230   2.680   5.359   3.216  0.9877 -1.2377  0.6216
  422TIP3    H2 1231   2.754   5.406   3.093 -1.1931 -1.4642 -0.8307
  423TIP3   OH2 1232   1.336   4.483   3.005  0.3667 -0.6164 -0.5437
  423TIP3    H1 1233   1.394   4.551   3.039 -0.5909 -0.0341 -0.0489
  423TIP3    H2 1234   1.367   4.468   2.916 -0.3324  1.5623 -1.2253
  424TIP3   OH2 1235   6.917   3.631   4.099 -0.0679 -0.4064 -0.3103
  424TIP3    H1 1236   6.895   3.539   4.083  1.4233 -0.8376 -0.0857
  424TIP3    H2 1237   6.987   3.650   4.036  1.7741 -0.3842  1.6057
  425TIP3   OH2 1238   0.619   2.475   4.555 -0.0538  0.2747  0.1980
  425TIP3    H1 1239   0.695   2.528   4.576  2.0279 -1.2703 -2.6631
  425TIP3    H2 1240   0.590   2.507   4.469 -0.5155 -1.3060 -0.2775
  426TIP3   OH2 1241   1.988   3.764   5.898  0.4500  0.2767 -0.5324
  426TIP3    H1 1242   1.959   3.825   5.830 -0.1062  1.2832  0.5664
  426TIP3    H2 1243   1.932   3.687   5.887  0.0164  0.6387 -0.9089
  427TIP3   OH2 1244   1.751   3.617   5.603  0.5606 -0.5482  0.4530
  427TIP3    H1 1245   1.677   3.608   5.543  1.1521 -0.7301 -0.2652
  427TIP3    H2 1246   1.829   3.607   5.548  1.1916  1.9028  0.7764
  428TIP3   OH2 1247   6.435   4.886   5.386 -0.4142  0.0055 -0.2450
  428TIP3    H1 1248   6.505   4.898   5.321  0.5072  1.6340  0.9814
  428TIP3    H2 1249   6.355   4.909   5.340 -0.3824 -2.8506 -1.9972
  429TIP3   OH2 1250   7.201   3.918   1.652  0.3097  0.3228  0.6216
  429TIP3    H1 1251   7.166   3.967   1.726  0.6636  1.2348  0.1970
  429TIP3    H2 1252   7.124   3.873   1.614 -0.2451  1.5319  0.2792
  430TIP3   OH2 1253   0.744   3.875   3.028 -0.3424 -0.2954  0.5649
  430TIP3    H1 1254   0.715   3.792   2.991 -0.7798 -0.2665  0.8315
  430TIP3    H2 1255   0.706   3.876   3.116  0.2798 -0.1486  0.8335
  431TIP3   OH2 1256   5.545   3.821   5.760  0.7383  0.6504 -0.1992
  431TIP3    H1 1257   5.484   3.812   5.687 -0.2364  5.0670 -0.1971
  431TIP3    H2 1258   5.490   3.812   5.838  0.5578  1.8234 -0.1678
  432TIP3   OH2 1259   4.981   6.497   5.036  0.3279 -0.5540 -0.1912
  432TIP3    H1 1260   4.966   6.538   4.951  1.4330  0.9618  0.2949
  432TIP3    H2 1261   5.076   6.481   5.038  0.4408  0.0984  1.0021
  433TIP3   OH2 1262   4.953   0.991   0.581  0.5504  0.1024  0.1144
  433TIP3    H1 1263   5.036   1.022   0.546 -0.1053 -0.1435 -1.7845
  433TIP3    H2 1264   4.895   1.068   0.576  0.0732 -0.2907 -0.6814
  434TIP3   OH2 1265   0.957   5.398   1.488  0.2472  0.0279 -0.6816
  434TIP3    H1 1266   0.929   5.398   1.579 -0.1383  1.4579 -0.7724
  434TIP3    H2 1267   0.881   5.430   1.439  0.0363 -1.8702 -1.6613
  435TIP3   OH2 1268   6.346   2.099   4.307 -0.4721 -0.2226  0.0425
  435TIP3    H1 1269   6.297   2.022   4.279 -0.3870 -0.0838 -0.5021
  435TIP3    H2 1270   6.312   2.119   4.394 -1.9500  0.3589 -0.6452
  436TIP3   OH2 1271   5.774   0.230   1.331  0.0306  0.1102 -0.0671
  436TIP3    H1 1272   5.782   0.134   1.334 -2.5862 -0.2286 -1.2355
  436TIP3    H2 1273   5.750   0.254   1.421  0.1556 -0.3726  0.1054
  437TIP3   OH2 1274   0.292   0.363   0.887  0.1844  0.0741  0.2977
  437TIP3    H1 1275   0.297   0.446   0.842 -0.4445  0.3119  0.6421
  437TIP3    H2 1276   0.366   0.312   0.855 -0.7007 -0.0822 -1.6261
  438TIP3   OH2 1277   3.548   4.077   1.370 -0.7386 -0.1756  0.2390
  438TIP3    H1 1278   3.482   4.022   1.412 -0.5454 -0.2336  0.4687
  438TIP3    H2 1279   3.608   4.015   1.327 -0.3874 -0.1559  0.6960
  439TIP3   OH2 1280   3.219   2.974   5.438  0.2869 -0.2173 -0.2493
  439TIP3    H1 1281   3.168   2.939   5.510 -0.1768 -0.1863 -0.5609
  439TIP3    H2 1282   3.195   2.920   5.362  2.6987 -1.9672  0.1240
  440TIP3   OH2 1283   4.247   5.427   2.537 -0.0043  0.2598  0.1479
  440TIP3    H1 1284   4.182   5.377   2.587 -0.9335  0.3311 -0.9482
  440TIP3    H2 1285   4.314   5.363   2.515 -0.8852 -0.3939 -0.7262
  441TIP3   OH2 1286   2.884   0.684   1.028  0.7888  0.2128 -0.0467
  441TIP3    H1 1287   2.813   0.738   1.064  0.3318  0.5045 -1.3423
  441TIP3    H2 1288   2.841   0.603   0.999  1.2220 -0.2057  0.4639
  442TIP3   OH2 1289   2.652   3.182   3.166 -0.6187  0.3745  0.2934
  442TIP3    H1 1290   2.644   3.177   3.070 -1.6737  2.2093  0.2422
  442TIP3    H2 1291   2.572   3.227   3.194  0.0439  0.5524  1.9842
  443TIP3   OH2 1292   0.307   5.838   1.578  0.1718  0.1398  0.1009
  443TIP3    H1 1293   0.219   5.865   1.602 -0.8724 -1.9730 -1.0542
  443TIP3    H2 1294   0.350   5.819   1.662 -1.2763 -1.0262  0.6170
  444TIP3   OH2 1295   6.071   3.661   5.258 -1.2347  0.2695 -0.1262
  444TIP3    H1 1296   5.977   3.680   5.261 -1.4406 -0.6430 -0.3937
  444TIP3    H2 1297   6.113   3.747   5.259 -2.0979  0.7163 -0.8057
  445TIP3   OH2 1298   4.600   6.490   0.382  0.2057 -0.1646 -0.0489
  445TIP3    H1 1299   4.677   6.436   0.399 -1.2347 -2.2411  0.2324
  445TIP3    H2 1300   4.533   6.428   0.353 -1.4189  1.5535 -0.1472
  446TIP3   OH2 1301   2.830   3.038   0.663  0.0065  0.5792 -0.0756
  446TIP3    H1 1302   2.757   2.979   0.682  0.7296 -0.0679  0.7350
  446TIP3    H2 1303   2.823   3.107   0.729  1.7035 -0.9359  1.7968
  447TIP3   OH2 1304   6.376   1.585   0.904 -0.3412  0.3792  0.9434
  447TIP3    H1 1305   6.470   1.588   0.885 -0.3223 -0.7817  0.7745
  447TIP3    H2 1306   6.368   1.613   0.995  0.0309  1.6620  0.6044
  448TIP3   OH2 1307   2.712   6.644   1.983 -0.2324  0.2984 -0.4818
  448TIP3    H1 1308   2.654   6.699   1.930  1.2750  1.6331 -0.8195
  448TIP3    H2 1309   2.704   6.679   2.072 -2.4684 -1.6988  0.2155
  449TIP3   OH2 1310   2.458   3.439   5.519  0.5436  0.0758  0.4187
  449TIP3    H1 1311   2.466   3.391   5.602 -1.6976 -0.7849  0.2038
  449TIP3    H2 1312   2.533   3.410   5.467  0.3794 -1.6625  1.0750
  450TIP3   OH2 1313   3.533   3.543   2.919  0.4658  0.2204  0.2100
  450TIP3    H1 1314   3.491   3.560   3.003 -0.8643 -1.1580 -0.1426
  450TIP3    H2 1315   3.625   3.526   2.942 -0.3496 -2.6467  1.7367
  451TIP3   OH2 1316   2.062   2.027   4.950 -0.2467 -0.0689  0.1774
  451TIP3    H1 1317   1.987   2.041   4.892 -1.1739  2.7841  1.8773
  451TIP3    H2 1318   2.058   1.934   4.972 -0.5323 -1.0294 -3.2651
  452TIP3   OH2 1319   5.783   2.019   4.074  0.0426 -0.0734  0.3089
  452TIP3    H1 1320   5.824   2.075   4.008 -1.6880  1.8993  0.8545
  452TIP3    H2 1321   5.856   1.992   4.130  1.0271  0.9504 -0.4344
  453TIP3   OH2 1322   1.236   4.909   4.498 -0.5643 -0.2163 -0.0586
  453TIP3    H1 1323   1.228   4.826   4.450  1.0805  0.3170 -1.3708
  453TIP3    H2 1324   1.160   4.912   4.555 -0.6293 -2.6733  0.0781
  454TIP3   OH2 1325   6.269   3.139   2.384  0.2337  0.2977  0.0821
  454TIP3    H1 1326   6.236   3.050   2.382 -0.8953  0.6782 -2.2612
  454TIP3    H2 1327   6.239   3.174   2.468  1.8854 -1.8698  1.6712
  455TIP3   OH2 1328   6.695   5.949   1.837  0.0638  0.8113  0.8054
  455TIP3    H1 1329   6.692   5.861   1.798 -0.4173  1.7463 -1.4050
  455TIP3    H2 1330   6.765   5.943   1.903  0.6930 -0.9781  0.0502
  456TIP3   OH2 1331   4.537   0.194   1.511  0.2151 -0.1342 -0.0838
  456TIP3    H1 1332   4.606   0.238   1.462  0.9133 -0.6403  0.4182
  456TIP3    H2 1333   4.457   0.239   1.486  0.7180  0.4122 -0.7404
  457TIP3   OH2 1334   4.703   4.488   2.208 -0.0515 -0.3320 -0.3119
  457TIP3    H1 1335   4.766   4.498   2.137 -0.5248  0.0380 -0.6884
  457TIP3    H2 1336   4.638   4.427   2.173 -0.4456  0.0843 -0.3185
  458TIP3   OH2 1337   1.282   3.083   5.116 -1.1351 -0.1038 -0.2068
  458TIP3    H1 1338   1.289   3.151   5.048 -2.0535 -0.9277 -1.1668
  458TIP3    H2 1339   1.211   3.115   5.173  0.5928  1.3102  1.2923
  459TIP3   OH2 1340   0.968   3.769   5.853  0.0295  0.3957 -0.2933
  459TIP3    H1 1341   0.876   3.756   5.831  0.1068 -1.4806  0.3473
  459TIP3    H2 1342   1.002   3.681   5.866  2.2906  0.9276 -1.9227
  460TIP3   OH2 1343   0.102   0.317   2.207 -0.3985  0.2907  0.1832
  460TIP3    H1 1344   0.194   0.333   2.227 -0.3384  0.8387 -0.5010
  460TIP3    H2 1345   0.088   0.225   2.230  0.0680  0.4590  1.1814
  461TIP3   OH2 1346   5.114   2.074   2.993 -0.1689  0.1046 -0.4902
  461TIP3    H1 1347   5.031   2.040   2.960 -0.9490  0.5625  0.9282
  461TIP3    H2 1348   5.127   2.030   3.077  0.2640  1.1353  0.0029
  462TIP3   OH2 1349   6.515   5.323   0.974  0.1488  0.0180  0.3427
  462TIP3    H1 1350   6.445   5.264   1.004 -0.5075  0.4001 -0.4242
  462TIP3    H2 1351   6.567   5.269   0.914 -0.3176  0.1465 -0.1821
  463TIP3   OH2 1352   0.218   5.178   0.504 -0.7558 -0.5375  0.4541
  463TIP3    H1 1353   0.131   5.168   0.543 -0.8675 -1.7319 -0.0343
  463TIP3    H2 1354   0.201   5.183   0.409 -0.2599 -1.6605  0.2882
  464TIP3   OH2 1355   4.433   5.485   1.789  0.0808  0.2942  0.1923
  464TIP3    H1 1356   4.501   5.522   1.732  0.2325  1.2098  0.9208
  464TIP3    H2 1357   4.444   5.533   1.871 -1.9113  0.9717  0.1102
  465TIP3   OH2 1358   3.941   0.067   4.594  0.2480 -0.3260 -0.2270
  465TIP3    H1 1359   3.943   0.109   4.509 -1.0927  1.0605  0.3649
  465TIP3    H2 1360   3.867   0.006   4.588  0.6282 -0.7825 -0.2925
  466TIP3   OH2 1361   1.379   5.306   3.178  0.5071 -0.1856 -0.0091
  466TIP3    H1 1362   1.338   5.386   3.144 -0.1754 -1.1302 -1.4801
  466TIP3    H2 1363   1.443   5.281   3.111 -1.5325 -2.6129 -1.1855
  467TIP3   OH2 1364   6.376   3.881   5.693 -0.1412  0.1339 -0.6624
  467TIP3    H1 1365   6.461   3.913   5.723 -0.9339  3.0842 -1.2438
  467TIP3    H2 1366   6.318   3.895   5.767 -0.1121 -2.1615 -0.1591
  468TIP3   OH2 1367   0.666   3.684   2.481  0.0479  0.4761 -0.5736
  468TIP3    H1 1368   0.671   3.709   2.573  1.3403 -0.1826 -0.4443
  468TIP3    H2 1369   0.617   3.755   2.440 -1.6542  0.1744  0.8159
  469TIP3   OH2 1370   6.835   4.228   3.473 -0.1880  0.1867 -0.5597
  469TIP3    H1 1371   6.880   4.218   3.557  2.4201  1.6987 -1.6522
  469TIP3    H2 1372   6.832   4.140   3.436 -0.2374 -0.2908  0.5459
  470TIP3   OH2 1373   0.343   2.037   5.662 -0.6298  0.0032  0.0520
  470TIP3    H1 1374   0.282   1.977   5.707 -0.4123 -0.2209  0.0517
  470TIP3    H2 1375   0.394   1.980   5.605 -0.7857  0.2664 -0.3487
  471TIP3   OH2 1376   0.660   4.792   2.413 -0.2445  0.4508 -0.0366
  471TIP3    H1 1377   0.705   4.851   2.473 -1.1445  1.7198 -0.5614
  471TIP3    H2 1378   0.637   4.847   2.338 -0.4216 -0.7609 -0.8955
  472TIP3   OH2 1379   5.566   2.808   2.558 -0.4240  0.5878  0.0990
  472TIP3    H1 1380   5.661   2.794   2.556  0.0536  2.8953  1.6129
  472TIP3    H2 1381   5.557   2.902   2.575 -3.0008  0.4416 -0.1066
  473TIP3   OH2 1382   6.074   2.521   5.691 -0.0362  0.1230 -0.4634
  473TIP3    H1 1383   6.030   2.570   5.621 -1.4854  1.4101  1.2432
  473TIP3    H2 1384   6.007   2.509   5.758  1.7347  0.5551  1.4960
  474TIP3   OH2 1385   2.961   5.903   5.595 -0.1754  0.2571 -0.0671
  474TIP3    H1 1386   3.049   5.939   5.590 -0.9280  2.5956  1.5452
  474TIP3    H2 1387   2.921   5.949   5.670 -2.6585 -0.9120 -0.5745
  475TIP3   OH2 1388   4.671   1.973   0.509  0.1243 -0.1945  0.4349
  475TIP3    H1 1389   4.767   1.974   0.515  0.0648  0.0459  1.4830
  475TIP3    H2 1390   4.648   1.881   0.505  0.4562 -0.2364 -1.0476
  476TIP3   OH2 1391   1.868   1.745   3.466 -0.3204  0.4054  0.0890
  476TIP3    H1 1392   1.901   1.709   3.548  0.3029  1.7143  0.4334
  476TIP3    H2 1393   1.945   1.757   3.412 -0.3665  2.1098  0.3531
  477TIP3   OH2 1394   4.297   4.242   0.791 -0.3951 -0.0168 -0.4921
  477TIP3    H1 1395   4.237   4.316   0.785 -0.0886  0.1458 -1.7343
  477TIP3    H2 1396   4.241   4.167   0.810 -0.6220  0.6415  1.7633
  478TIP3   OH2 1397   6.819   2.904   1.009  0.2502  0.8543  0.0292
  478TIP3    H1 1398   6.853   2.836   0.951  2.1084  1.0055  0.8878
  478TIP3    H2 1399   6.891   2.965   1.019 -1.2700  2.8219 -0.4586
  479TIP3   OH2 1400   3.772   0.792   1.952 -0.2224  0.5315 -0.6136
  479TIP3    H1 1401   3.756   0.846   1.874 -1.3597 -0.6418 -1.2294
  479TIP3    H2 1402   3.754   0.703   1.923 -1.0013  0.1075  1.1023
  480TIP3   OH2 1403   6.919   1.596   5.421  0.4853 -0.5910  0.4490
  480TIP3    H1 1404   6.907   1.690   5.432 -1.8294 -0.8286  0.3275
  480TIP3    H2 1405   6.968   1.588   5.339  0.8446  0.4966  0.5377
  481TIP3   OH2 1406   2.493   6.048   4.707  0.4031  0.3568 -0.0822
  481TIP3    H1 1407   2.424   6.113   4.718 -1.0253 -1.4449  2.7006
  481TIP3    H2 1408   2.494   6.030   4.613 -3.5303 -0.1054 -0.2025
  482TIP3   OH2 1409   0.907   3.731   0.167  0.5586  0.1619 -0.5660
  482TIP3    H1 1410   0.992   3.737   0.124  0.7923 -2.5613 -0.6125
  482TIP3    H2 1411   0.924   3.756   0.258  1.0310  1.2002 -0.9163
  483TIP3   OH2 1412   6.916   2.521   4.883  0.4559  0.0532  1.0196
  483TIP3    H1 1413   6.907   2.457   4.812  0.3561 -1.0355  1.9789
  483TIP3    H2 1414   7.001   2.501   4.923 -0.4622 -0.8650  2.6134
  484TIP3   OH2 1415   0.776   2.595   3.250 -0.3977 -0.4793  0.6269
  484TIP3    H1 1416   0.723   2.577   3.173 -0.9360 -1.6547  1.2352
  484TIP3    H2 1417   0.771   2.514   3.302  0.7868 -0.0872  1.3995
  485TIP3   OH2 1418   5.637   2.768   5.562 -0.2600  0.2949 -0.1892
  485TIP3    H1 1419   5.576   2.748   5.491  0.9082 -3.4883 -0.3310
  485TIP3    H2 1420   5.581   2.804   5.632 -2.0616  0.2363 -1.5171
  486TIP3   OH2 1421   7.080   6.731   0.970  0.3873  0.1196  0.3818
  486TIP3    H1 1422   7.134   6.804   0.997 -1.0144  1.7568 -1.0326
  486TIP3    H2 1423   7.058   6.685   1.052  0.9265  1.5368  1.3419
  487TIP3   OH2 1424   4.238   2.953   5.249 -0.4042 -0.4340 -0.1386
  487TIP3    H1 1425   4.240   2.866   5.288 -1.3496 -0.3565  0.1184
  487TIP3    H2 1426   4.279   3.009   5.314 -2.4754 -0.2121  1.0673
  488TIP3   OH2 1427   2.183   0.409   0.585  0.2553 -0.1190  0.0423
  488TIP3    H1 1428   2.092   0.433   0.569  0.5580  0.3347 -1.1913
  488TIP3    H2 1429   2.182   0.362   0.668 -0.8869  1.1085  0.7684
  489TIP3   OH2 1430   6.869   6.189   0.798  0.1311  0.1585  0.3449
  489TIP3    H1 1431   6.914   6.139   0.866 -2.0812  0.4211  2.1199
  489TIP3    H2 1432   6.866   6.130   0.723  0.7179 -0.9923  1.1954
  490TIP3   OH2 1433   5.410   5.771   2.480 -0.0376 -0.4655  0.1587
  490TIP3    H1 1434   5.395   5.804   2.568  2.5830  1.7068 -0.1079
  490TIP3    H2 1435   5.367   5.834   2.423  0.3149 -0.5574 -0.2111
  491TIP3   OH2 1436   4.585   1.451   5.516  0.2376  0.4729 -0.1574
  491TIP3    H1 1437   4.519   1.441   5.447  1.1903 -0.5893 -0.9772
  491TIP3    H2 1438   4.622   1.538   5.502 -3.0235  2.4433  2.2647
  492TIP3   OH2 1439   6.130   1.702   5.542 -0.0504  0.0157 -0.4423
  492TIP3    H1 1440   6.089   1.734   5.623  0.7391 -0.8337  0.3180
  492TIP3    H2 1441   6.098   1.612   5.533  0.9541 -0.3637 -0.3071
  493TIP3   OH2 1442   5.522   6.020   4.574 -0.1181  0.2451 -0.2261
  493TIP3    H1 1443   5.465   6.079   4.525 -2.7748 -0.5752  1.6139
  493TIP3    H2 1444   5.562   6.075   4.641 -0.5650  0.4202 -0.1024
  494TIP3   OH2 1445   2.310   3.507   5.159 -0.2935  0.1329 -0.3378
  494TIP3    H1 1446   2.251   3.509   5.234 -0.1737  2.4387 -0.2268
  494TIP3    H2 1447   2.392   3.542   5.193  0.0706  0.2601 -1.3206
  495TIP3   OH2 1448   3.989   0.149   0.070 -0.3595  0.4907 -0.1983
  495TIP3    H1 1449   3.929   0.219   0.094  0.3789  0.7286  1.0664
  495TIP3    H2 1450   4.005   0.102   0.152 -1.5622 -1.7674 -1.1630
  496TIP3   OH2 1451   1.548   2.205   4.243 -0.8455  0.2116  0.7488
  496TIP3    H1 1452   1.558   2.256   4.162 -2.4195  2.3556  1.8011
  496TIP3    H2 1453   1.485   2.255   4.295 -0.4368 -1.4759  3.0187
  497TIP3   OH2 1454   6.329   3.570   0.181 -0.0862 -0.8543 -0.0624
  497TIP3    H1 1455   6.344   3.517   0.103 -1.4462 -2.1777  0.5353
  497TIP3    H2 1456   6.264   3.522   0.231  1.2304 -0.3898  2.2351
  498TIP3   OH2 1457   3.496   0.575   4.933 -0.1158  0.0307 -0.1143
  498TIP3    H1 1458   3.470   0.658   4.893  0.1947  0.1163 -0.1400
  498TIP3    H2 1459   3.440   0.510   4.891 -0.2262  0.2018 -0.2340
  499TIP3   OH2 1460   0.223   3.601   0.040 -0.3020  0.7190 -0.1917
  499TIP3    H1 1461   0.249   3.569   0.126 -2.0327 -1.1580 -0.2963
  499TIP3    H2 1462   0.178   3.684   0.057  1.0253  1.3287  0.4761
  500TIP3   OH2 1463   2.059   4.763   5.765  0.6919 -0.5385 -0.2481
  500TIP3    H1 1464   2.120   4.727   5.829  1.0431  0.9799  0.3315
  500TIP3    H2 1465   2.056   4.857   5.786 -0.7650 -0.3543 -1.1619
  501TIP3   OH2 1466   1.561   2.363   4.016 -0.6507 -0.3063  0.4875
  501TIP3    H1 1467   1.626   2.426   3.986 -0.3152 -0.6097  0.5755
  501TIP3    H2 1468   1.551   2.302   3.943 -1.6841  0.3870  0.0235
  502TIP3   OH2 1469   5.427   3.423   1.562 -0.5225 -0.1877  0.2101
  502TIP3    H1 1470   5.341   3.390   1.587 -1.1802 -0.0549 -1.7081
  502TIP3    H2 1471   5.422   3.433   1.467  1.0315  1.5059  0.2584
  503TIP3   OH2 1472   5.999   2.344   4.120 -0.0728 -0.0522  0.5943
  503TIP3    H1 1473   6.091   2.369   4.126 -0.2339  0.7477 -0.0953
  503TIP3    H2 1474   5.971   2.335   4.211  0.7436 -0.5635  0.8124
  504TIP3   OH2 1475   2.674   3.985   3.286  0.5703 -0.3077 -0.0688
  504TIP3    H1 1476   2.699   3.896   3.263  2.0210 -0.7412  2.7173
  504TIP3    H2 1477   2.619   3.976   3.364 -0.2529  1.2007 -0.4227
  505TIP3   OH2 1478   4.723   2.111   2.139 -0.0785 -0.0874 -0.4897
  505TIP3    H1 1479   4.806   2.068   2.162  0.2460 -0.3576 -2.0509
  505TIP3    H2 1480   4.749   2.193   2.098 -0.6638  0.7998  0.8294
  506TIP3   OH2 1481   0.025   0.168   4.449 -0.0079 -0.0754  0.2225
  506TIP3    H1 1482   0.018   0.263   4.453 -0.1915 -0.0170 -1.1862
  506TIP3    H2 1483   0.015   0.146   4.356 -1.0353 -1.5524  0.6381
  507TIP3   OH2 1484   4.292   0.634   4.082 -0.0640  0.0478  0.1851
  507TIP3    H1 1485   4.248   0.695   4.022  0.1955  0.3059  0.2532
  507TIP3    H2 1486   4.378   0.673   4.096 -0.2477  0.1729  1.0100
  508TIP3   OH2 1487   0.976   0.362   4.488 -0.3194  0.3457  0.7808
  508TIP3    H1 1488   1.029   0.419   4.544 -0.9542 -0.7332  2.5796
  508TIP3    H2 1489   1.040   0.310   4.440  0.2488  1.5109  0.2344
  509TIP3   OH2 1490   6.237   6.168   5.106 -0.0973 -0.2689 -0.3808
  509TIP3    H1 1491   6.309   6.107   5.121 -0.4120 -0.7938 -0.9487
  509TIP3    H2 1492   6.234   6.223   5.185 -0.3927 -1.5742  0.5380
  510TIP3   OH2 1493   5.648   1.182   2.899  0.0708 -0.0734 -0.0165
  510TIP3    H1 1494   5.559   1.211   2.878  0.2065  2.9285  2.7393
  510TIP3    H2 1495   5.636   1.100   2.947 -1.0289 -0.6202 -1.1667
  511TIP3   OH2 1496   0.566   3.223   4.178 -0.4594  0.5258 -0.2076
  511TIP3    H1 1497   0.503   3.166   4.221 -1.6574  2.6661  1.0611
  511TIP3    H2 1498   0.644   3.219   4.234 -0.4298 -0.0794 -0.2907
  512TIP3   OH2 1499   3.877   1.618   2.333 -0.4404  0.1733 -0.1253
  512TIP3    H1 1500   3.843   1.707   2.337  1.7241  1.0125  1.1764
  512TIP3    H2 1501   3.881   1.599   2.239 -2.0337  0.9633 -0.3837
  513TIP3   OH2 1502   3.805   4.343   3.059  0.0654 -0.2051 -0.2175
  513TIP3    H1 1503   3.854   4.414   3.019  0.9914  0.4159  1.8725
  513TIP3    H2 1504   3.854   4.322   3.138 -0.5551 -2.7395 -0.4209
  514TIP3   OH2 1505   1.166   0.472   3.804  0.2767  0.1994 -0.2730
  514TIP3    H1 1506   1.260   0.488   3.807  0.4048 -0.4226 -0.7289
  514TIP3    H2 1507   1.158   0.376   3.803 -0.3498  0.2494 -0.4915
  515TIP3   OH2 1508   4.765   2.198   2.969  1.0316  0.0589 -0.5896
  515TIP3    H1 1509   4.812   2.155   2.898  0.5503 -0.2880 -0.7035
  515TIP3    H2 1510   4.706   2.131   3.003 -0.0620  0.7563 -1.0630
  516TIP3   OH2 1511   2.456   0.464   0.573 -0.3284  0.8152  0.1330
  516TIP3    H1 1512   2.365   0.444   0.598  0.0267  0.8016  1.4576
  516TIP3    H2 1513   2.461   0.559   0.575 -0.6547  0.8873 -1.2642
  517TIP3   OH2 1514   3.472   3.636   1.684 -0.0083  0.0879 -0.5836
  517TIP3    H1 1515   3.450   3.547   1.711 -0.0053  0.5930  1.2641
  517TIP3    H2 1516   3.410   3.691   1.733  0.9495  1.1687 -0.5486
  518TIP3   OH2 1517   1.695   5.598   5.102 -0.1520 -0.6672 -0.2892
  518TIP3    H1 1518   1.602   5.573   5.099 -0.4429  0.4327 -1.1774
  518TIP3    H2 1519   1.705   5.662   5.032  0.8649  0.6328  0.9804
  519TIP3   OH2 1520   1.460   6.346   4.292  0.6347 -0.4785  0.0086
  519TIP3    H1 1521   1.549   6.312   4.308 -0.0467 -1.7289  1.4013
  519TIP3    H2 1522   1.456   6.427   4.343  1.0067 -0.3921 -0.0995
  520TIP3   OH2 1523   6.206   2.745   4.046  0.3188  0.0883 -0.0595
  520TIP3    H1 1524   6.132   2.703   4.002  0.8011 -0.8486 -0.0191
  520TIP3    H2 1525   6.191   2.838   4.036 -0.1203 -0.1034 -1.2947
  521TIP3   OH2 1526   4.254   4.591   1.013 -0.2434  0.2678  0.0729
  521TIP3    H1 1527   4.319   4.661   1.021  0.5316 -0.6497  3.3064
  521TIP3    H2 1528   4.173   4.629   1.046 -0.6092  0.4887 -1.0391
  522TIP3   OH2 1529   6.759   2.955   0.507 -0.4620 -0.1951  0.2527
  522TIP3    H1 1530   6.702   3.030   0.490  0.7399  0.4445 -1.1157
  522TIP3    H2 1531   6.847   2.989   0.494  0.1197 -1.7545  0.0113
  523TIP3   OH2 1532   6.043   4.461   0.138  0.2339 -0.3654  0.6024
  523TIP3    H1 1533   6.005   4.410   0.209  0.0565 -0.3110  0.5477
  523TIP3    H2 1534   6.007   4.549   0.150  2.1603  0.3138  1.9595
  524TIP3   OH2 1535   2.164   4.637   4.812 -0.0873 -0.4389 -0.7741
  524TIP3    H1 1536   2.089   4.611   4.757 -1.1978 -1.3125  1.0520
  524TIP3    H2 1537   2.132   4.712   4.862  0.4083 -0.5775 -0.2453
  525TIP3   OH2 1538   4.014   2.954   0.900 -0.5187  0.0931 -0.2052
  525TIP3    H1 1539   4.006   3.049   0.902  2.5394  0.5236 -1.8335
  525TIP3    H2 1540   4.017   2.928   0.992 -0.7963  1.6268  0.2635
  526TIP3   OH2 1541   4.577   5.253   1.600  0.3155 -0.1434 -0.1618
  526TIP3    H1 1542   4.596   5.185   1.664 -1.0655 -0.4568 -0.0601
  526TIP3    H2 1543   4.622   5.331   1.634  0.5506 -0.5914  0.5835
  527TIP3   OH2 1544   6.742   3.107   4.468  0.0835  0.7915  0.1461
  527TIP3    H1 1545   6.795   3.183   4.491  0.4106  1.6442 -2.9028
  527TIP3    H2 1546   6.806   3.040   4.440 -0.1931 -0.7355  2.8581
  528TIP3   OH2 1547   1.578   4.568   5.294 -0.0772 -0.1808  0.5431
  528TIP3    H1 1548   1.522   4.492   5.304 -0.9022  0.2828 -0.4353
  528TIP3    H2 1549   1.660   4.533   5.259 -1.2592 -0.4092 -2.2518
  529TIP3   OH2 1550   3.151   1.580   1.297 -0.4642 -0.2319 -0.2006
  529TIP3    H1 1551   3.183   1.660   1.253 -0.6781 -0.3751 -0.6269
  529TIP3    H2 1552   3.149   1.515   1.227  0.2296 -0.7608  0.2615
  530TIP3   OH2 1553   7.136   0.390   5.199 -0.2011  0.2167  0.8912
  530TIP3    H1 1554   7.100   0.453   5.261 -2.1441  1.2398 -1.1070
  530TIP3    H2 1555   7.169   0.444   5.127 -0.1712 -0.9892 -0.0329
  531TIP3   OH2 1556   4.109   0.968   0.798  0.3423 -0.4899 -0.2505
  531TIP3    H1 1557   4.144   1.054   0.823 -1.2302 -0.0548  0.5581
  531TIP3    H2 1558   4.035   0.953   0.857 -0.1131 -1.9033 -1.1166
  532TIP3   OH2 1559   2.043   5.408   4.839 -0.3008  0.5482 -0.3838
  532TIP3    H1 1560   2.093   5.489   4.833  1.1194 -0.3686 -1.7596
  532TIP3    H2 1561   1.971   5.420   4.777 -0.2257  0.8396 -0.4161
  533TIP3   OH2 1562   1.254   1.180   1.574 -0.4806 -0.0765  0.1087
  533TIP3    H1 1563   1.268   1.097   1.619  0.4277  0.0316  0.0388
  533TIP3    H2 1564   1.290   1.166   1.486 -0.7414  0.2467 -0.0530
  534TIP3   OH2 1565   4.235   3.385   0.028  0.3863 -0.5082  0.3172
  534TIP3    H1 1566   4.166   3.335  -0.015  0.3740 -0.2832  0.0685
  534TIP3    H2 1567   4.259   3.333   0.105  0.6115 -1.0722 -0.1229
  535TIP3   OH2 1568   4.871   2.454   0.284  0.1232 -0.9315  0.2546
  535TIP3    H1 1569   4.840   2.411   0.205  1.0420 -0.8316 -0.1730
  535TIP3    H2 1570   4.887   2.545   0.258 -2.3740 -0.1084  1.2993
  536TIP3   OH2 1571   5.204   1.473   1.851 -0.4377 -0.0165  0.1602
  536TIP3    H1 1572   5.131   1.505   1.905  0.2512  1.8880  0.0487
  536TIP3    H2 1573   5.253   1.414   1.909 -0.0441  1.5301  1.4704
  537TIP3   OH2 1574   2.943   6.268   0.012  0.8865 -0.4661  0.0049
  537TIP3    H1 1575   2.931   6.180  -0.025 -0.2817 -1.2450  2.0464
  537TIP3    H2 1576   3.038   6.275   0.025  0.9303 -1.7893  0.5988
  538TIP3   OH2 1577   2.157   6.054   5.518 -0.1507 -0.5766 -0.6285
  538TIP3    H1 1578   2.228   6.112   5.547 -0.7903 -0.3721  0.5878
  538TIP3    H2 1579   2.078   6.107   5.528 -0.8638 -1.8911  1.3715
  539TIP3   OH2 1580   0.351   5.675   5.489 -0.2121 -0.0381  0.0853
  539TIP3    H1 1581   0.387   5.658   5.402 -0.8448  0.5483 -0.2990
  539TIP3    H2 1582   0.375   5.597   5.540 -0.0651 -0.5066 -0.6791
  540TIP3   OH2 1583   3.141   5.945   5.064 -0.0417  0.3844 -0.3146
  540TIP3    H1 1584   3.214   5.954   5.125 -0.5534  1.2104  0.2008
  540TIP3    H2 1585   3.118   5.852   5.068  1.5383 -0.0697 -1.1636
  541TIP3   OH2 1586   5.034   5.560   2.124  0.5135 -0.0181  0.4761
  541TIP3    H1 1587   5.042   5.509   2.043 -0.3373 -0.6446  0.7656
  541TIP3    H2 1588   5.041   5.494   2.193  0.2415  0.3820  0.8827
  542TIP3   OH2 1589   2.425   2.501   0.255  0.0367  0.0582 -0.4216
  542TIP3    H1 1590   2.409   2.407   0.253 -0.4970  0.1556 -0.8000
  542TIP3    H2 1591   2.360   2.538   0.195 -0.6364  0.8063  0.7337
  543TIP3   OH2 1592   3.713   3.845   4.498  0.1013 -0.0881  0.1133
  543TIP3    H1 1593   3.683   3.933   4.518  0.0307  0.4022 -1.9207
  543TIP3    H2 1594   3.639   3.788   4.519 -0.3164  0.4890  0.2177
  544TIP3   OH2 1595   0.925   3.005   4.479 -0.3402 -0.4817  0.1587
  544TIP3    H1 1596   0.934   3.055   4.560 -0.5690 -1.7126  0.9609
  544TIP3    H2 1597   1.011   3.009   4.438 -0.3239  0.4578  0.2639
  545TIP3   OH2 1598   5.240   2.057   3.441 -0.2902  0.0113 -0.1877
  545TIP3    H1 1599   5.190   2.081   3.518  0.5252  0.4726  0.2011
  545TIP3    H2 1600   5.271   2.140   3.404 -1.1711 -0.1532 -1.3627
  546TIP3   OH2 1601   3.304   6.121   1.213  0.9043 -0.2444  0.3094
  546TIP3    H1 1602   3.382   6.072   1.239  2.7918  2.3579 -0.0328
  546TIP3    H2 1603   3.281   6.172   1.291 -0.1223 -0.5106  0.2039
  547TIP3   OH2 1604   4.685   5.101   1.371 -0.1780 -0.0873 -0.2415
  547TIP3    H1 1605   4.687   5.019   1.420  1.9768  0.7494  1.2469
  547TIP3    H2 1606   4.645   5.164   1.432  1.2166  0.6563 -0.0651
  548TIP3   OH2 1607   3.294   2.682   4.955  0.5888  0.3319  0.0750
  548TIP3    H1 1608   3.366   2.619   4.968  0.4863  0.1037 -0.4228
  548TIP3    H2 1609   3.269   2.708   5.044 -1.1988 -2.4049  0.5191
  549TIP3   OH2 1610   0.895   0.289   1.582  0.2368  0.3391  0.4341
  549TIP3    H1 1611   0.910   0.195   1.575  1.7097  0.6271 -0.6886
  549TIP3    H2 1612   0.928   0.313   1.668  2.3365  0.2269 -0.2943
  550TIP3   OH2 1613   3.147   1.727   5.829 -0.7386  0.3208  0.6318
  550TIP3    H1 1614   3.152   1.767   5.742 -1.2243 -1.9099 -0.4946
  550TIP3    H2 1615   3.066   1.761   5.867 -1.5132 -0.0920 -0.5795
  551TIP3   OH2 1616   2.680   1.587   5.265 -0.1792 -0.2904 -0.0260
  551TIP3    H1 1617   2.677   1.587   5.360 -1.1037  0.2988 -0.0413
  551TIP3    H2 1618   2.601   1.634   5.238  1.1020  1.4456 -1.0441
  552TIP3   OH2 1619   2.832   1.714   4.234  0.7528  0.0832 -0.2928
  552TIP3    H1 1620   2.911   1.659   4.234  0.3599 -0.5527  1.6594
  552TIP3    H2 1621   2.810   1.725   4.327 -1.7344 -0.1648 -0.7744
  553TIP3   OH2 1622   3.205   2.429   4.239 -0.1286 -0.4878 -0.3676
  553TIP3    H1 1623   3.191   2.359   4.175 -0.4843 -0.3830 -0.4033
  553TIP3    H2 1624   3.206   2.509   4.187 -1.1966 -0.3243 -0.1584
  554TIP3   OH2 1625   2.786   3.903   1.456  0.2458 -0.4839 -0.2160
  554TIP3    H1 1626   2.811   3.949   1.536  0.1380 -2.1236  0.8049
  554TIP3    H2 1627   2.853   3.928   1.392  1.5808 -0.7793  1.0025
  555TIP3   OH2 1628   5.616   5.863   1.646 -0.0426 -0.3131  0.5712
  555TIP3    H1 1629   5.577   5.926   1.585 -0.0572 -1.4098 -0.5986
  555TIP3    H2 1630   5.681   5.914   1.695 -0.0582  0.6154 -0.3401
  556TIP3   OH2 1631   0.127   2.667   0.409 -0.0407  0.0567 -0.3600
  556TIP3    H1 1632   0.147   2.754   0.444 -1.1239  0.0641  0.2849
  556TIP3    H2 1633   0.057   2.681   0.347 -1.0441 -0.4858  0.6141
  557TIP3   OH2 1634   2.309   1.155   2.989 -0.3788  0.5404 -0.5154
  557TIP3    H1 1635   2.397   1.193   2.981 -0.1740  0.4395  0.9464
  557TIP3    H2 1636   2.319   1.086   3.054 -1.9045  1.8602  1.2399
  558TIP3   OH2 1637   4.837   6.003   0.890 -0.2275 -0.5387  0.4693
  558TIP3    H1 1638   4.826   6.083   0.942  1.0327 -1.1104  1.6861
  558TIP3    H2 1639   4.774   6.013   0.818  0.3049  1.8105  0.2307
  559TIP3   OH2 1640   0.480   3.934   3.579 -0.1248 -0.1687  0.0832
  559TIP3    H1 1641   0.548   4.001   3.580 -0.7384  0.5152 -1.2723
  559TIP3    H2 1642   0.461   3.921   3.486 -0.2986 -1.9518  0.3343
  560TIP3   OH2 1643   2.709   2.992   5.349 -0.5945 -0.1876 -0.2151
  560TIP3    H1 1644   2.706   3.039   5.266 -0.7074 -1.0364 -0.7052
  560TIP3    H2 1645   2.654   3.043   5.408 -1.4862 -0.2016 -1.0085
  561TIP3   OH2 1646   3.360   5.762   1.483  0.2809 -0.2824 -0.7202
  561TIP3    H1 1647   3.435   5.791   1.432 -0.3038  1.1032 -0.8321
  561TIP3    H2 1648   3.365   5.812   1.564  0.0859 -0.9894 -0.2650
  562TIP3   OH2 1649   3.798   4.774   3.959 -0.4699  0.7015  0.5600
  562TIP3    H1 1650   3.810   4.683   3.985  0.1773  0.4467 -0.5315
  562TIP3    H2 1651   3.709   4.796   3.987 -0.8157 -0.4252  0.3910
  563TIP3   OH2 1652   4.275   0.407   1.480  0.3159 -0.5035 -0.0993
  563TIP3    H1 1653   4.209   0.363   1.534  0.1630 -1.4735 -1.0526
  563TIP3    H2 1654   4.260   0.500   1.496  2.4082 -0.6323  4.1352
  564TIP3   OH2 1655   5.339   1.567   4.318 -0.3764  0.0814 -0.6788
  564TIP3    H1 1656   5.281   1.566   4.242 -0.8443  0.7177 -0.3375
  564TIP3    H2 1657   5.370   1.657   4.324 -1.9238  0.5684  1.0355
  565TIP3   OH2 1658   1.051   5.439   4.896 -0.2682 -0.5952  0.3129
  565TIP3    H1 1659   1.074   5.502   4.827  0.8136 -1.4069 -0.1110
  565TIP3    H2 1660   1.005   5.491   4.961  1.2689  0.8319  0.3557
  566TIP3   OH2 1661   4.172   1.938   0.168 -0.4531 -0.2421 -0.3734
  566TIP3    H1 1662   4.122   1.866   0.208  1.2214 -1.7653 -0.8868
  566TIP3    H2 1663   4.208   1.986   0.242  0.3171 -1.3521 -0.0013
  567TIP3   OH2 1664   1.099   0.509   1.975 -0.0217  0.0776  0.2347
  567TIP3    H1 1665   1.014   0.542   1.947 -0.2236 -0.3964  0.2870
  567TIP3    H2 1666   1.161   0.544   1.911 -0.2896  0.1960  0.0393
  568TIP3   OH2 1667   1.208   5.870   1.014  0.5409 -0.0556 -0.2887
  568TIP3    H1 1668   1.138   5.929   0.986  2.1059  0.5727 -3.2813
  568TIP3    H2 1669   1.166   5.784   1.020 -0.4126  0.1515 -2.7882
  569TIP3   OH2 1670   4.492   2.483   1.857 -0.4043  0.1841  0.2332
  569TIP3    H1 1671   4.485   2.577   1.838 -0.8539  0.0658 -0.1887
  569TIP3    H2 1672   4.471   2.440   1.775 -2.1025 -0.3257  0.9002
  570TIP3   OH2 1673   6.009   6.141   0.266  0.1593 -0.0541 -0.2264
  570TIP3    H1 1674   6.056   6.058   0.277  0.1758  0.2155  2.5420
  570TIP3    H2 1675   6.027   6.167   0.176 -0.3219 -3.3069 -1.4132
  571TIP3   OH2 1676   3.581   4.843   3.451  0.2809 -0.2127 -0.5111
  571TIP3    H1 1677   3.498   4.891   3.455  1.2059  1.4111  0.7240
  571TIP3    H2 1678   3.626   4.880   3.376  0.1810 -0.6167 -0.7750
  572TIP3   OH2 1679   3.052   6.622   0.783 -0.3694 -0.0819 -0.1157
  572TIP3    H1 1680   3.043   6.694   0.846  0.3477 -1.0321  1.1214
  572TIP3    H2 1681   2.973   6.627   0.730 -1.5199  0.1437  1.5291
  573TIP3   OH2 1682   6.808   6.593   4.772  0.4552 -0.2023  0.0904
  573TIP3    H1 1683   6.850   6.534   4.835  1.1884 -1.1321 -1.2204
  573TIP3    H2 1684   6.718   6.561   4.765  0.3717 -0.0971  0.6562
  574TIP3   OH2 1685   6.841   2.342   3.812  0.0270  0.4554  0.0342
  574TIP3    H1 1686   6.761   2.300   3.780  1.3808 -2.2088 -0.1084
  574TIP3    H2 1687   6.873   2.393   3.737 -0.4488 -0.1516 -0.5949
  575TIP3   OH2 1688   0.529   1.139   5.534  0.0192 -0.5438  0.3246
  575TIP3    H1 1689   0.442   1.104   5.519 -0.7263  1.6785 -0.9375
  575TIP3    H2 1690   0.586   1.085   5.479 -0.8907 -0.6158 -0.5755
  576TIP3   OH2 1691   5.175   1.938   4.528 -0.0224 -0.7863  0.7917
  576TIP3    H1 1692   5.239   1.933   4.457 -0.3598 -2.8941  0.5774
  576TIP3    H2 1693   5.093   1.961   4.485 -0.1801 -1.8348  0.5224
  577TIP3   OH2 1694   4.756   6.074   2.781  0.0655 -0.1132  0.5744
  577TIP3    H1 1695   4.765   5.979   2.767 -0.4589 -0.2166  0.9224
  577TIP3    H2 1696   4.677   6.083   2.834  1.4413  0.3167  2.6598
  578TIP3   OH2 1697   4.605   2.503   4.983 -0.1120  0.2249 -0.9541
  578TIP3    H1 1698   4.532   2.505   5.045  1.4156 -3.0158  1.2245
  578TIP3    H2 1699   4.599   2.417   4.941  0.6253  1.1903 -3.2038
  579TIP3   OH2 1700   6.728   5.154   0.805 -0.0404  0.3731  0.4920
  579TIP3    H1 1701   6.734   5.060   0.789  1.7194  0.4852  0.3143
  579TIP3    H2 1702   6.729   5.194   0.718  0.6367  0.6001  0.5948
  580TIP3   OH2 1703   2.147   6.555   0.534 -0.2251  0.5118 -0.2263
  580TIP3    H1 1704   2.185   6.473   0.567 -2.2783 -0.0769  0.8483
  580TIP3    H2 1705   2.169   6.619   0.602  0.5880  0.6577 -0.6166
  581TIP3   OH2 1706   5.508   2.292   3.751  0.4327 -0.0551 -0.0547
  581TIP3    H1 1707   5.487   2.382   3.727 -0.1261 -0.5049 -1.3847
  581TIP3    H2 1708   5.603   2.285   3.737  0.5942  0.5052  0.7270
  582TIP3   OH2 1709   4.423   0.008   1.827  0.4857 -0.2707 -0.5525
  582TIP3    H1 1710   4.451   0.090   1.867  0.7497  0.1115 -1.4924
  582TIP3    H2 1711   4.498  -0.021   1.776 -0.6311  0.5984 -2.8433
  583TIP3   OH2 1712   3.526   5.195   3.659  0.1975  0.3927  0.6218
  583TIP3    H1 1713   3.536   5.149   3.576 -0.6490 -0.8867  1.1946
  583TIP3    H2 1714   3.531   5.288   3.636 -1.4633  0.1219 -1.0855
  584TIP3   OH2 1715   1.898   6.444   3.182  0.4791  0.8047 -0.1552
  584TIP3    H1 1716   1.965   6.380   3.203 -0.0067  0.1960 -0.4401
  584TIP3    H2 1717   1.904   6.455   3.087 -1.5184 -1.2255 -0.6130
  585TIP3   OH2 1718   4.322   4.991   4.944 -0.6783 -0.0189 -0.2193
  585TIP3    H1 1719   4.404   5.022   4.983 -1.6022  1.5418  0.5798
  585TIP3    H2 1720   4.284   5.069   4.902 -2.4331 -0.3327  0.6859
  586TIP3   OH2 1721   1.493   5.938   5.032  0.2863 -0.0962  0.4677
  586TIP3    H1 1722   1.563   5.895   4.983 -0.3878  1.3163 -1.9265
  586TIP3    H2 1723   1.518   6.030   5.033 -1.4235  0.4237 -0.3680
  587TIP3   OH2 1724   2.346   1.167   3.922 -0.7101  0.5216 -0.2726
  587TIP3    H1 1725   2.391   1.158   4.006 -0.6935  0.7909 -0.2517
  587TIP3    H2 1726   2.379   1.094   3.869 -0.6173  0.4325 -0.0931
  588TIP3   OH2 1727   1.092   1.502   0.992 -0.3636 -0.4351 -0.7085
  588TIP3    H1 1728   1.111   1.409   0.982 -1.2348 -1.1608  2.7375
  588TIP3    H2 1729   1.172   1.539   1.030 -0.3656 -0.0114 -1.1165
  589TIP3   OH2 1730   1.594   4.734   1.555 -0.2650 -0.7230 -0.3910
  589TIP3    H1 1731   1.572   4.641   1.550 -1.2607 -0.4778 -0.7125
  589TIP3    H2 1732   1.518   4.779   1.520 -0.4080  0.2877  1.1205
  590TIP3   OH2 1733   5.141   3.795   5.293  0.0972  0.3114 -0.2705
  590TIP3    H1 1734   5.137   3.754   5.379 -0.4380 -0.4423 -0.6486
  590TIP3    H2 1735   5.052   3.827   5.278  0.1657  0.3578 -0.5889
  591TIP3   OH2 1736   2.412   3.793   1.291 -0.0024  0.0159 -0.5453
  591TIP3    H1 1737   2.487   3.774   1.235  0.9774  0.7297  0.4762
  591TIP3    H2 1738   2.360   3.856   1.240  0.8844  0.6814 -0.6659
  592TIP3   OH2 1739   6.473   0.659   4.843 -0.1963 -0.5608  0.0645
  592TIP3    H1 1740   6.445   0.743   4.880 -1.3180 -0.0343 -1.8367
  592TIP3    H2 1741   6.487   0.602   4.919 -0.7376  0.9423  1.3346
  593TIP3   OH2 1742   3.030   6.410   1.052  0.2731 -0.2115  0.8869
  593TIP3    H1 1743   2.941   6.443   1.040  1.3560  2.5313 -0.5860
  593TIP3    H2 1744   3.056   6.380   0.965  1.1912  0.2294  0.9977
  594TIP3   OH2 1745   2.130   1.639   1.470 -0.6762 -0.1685  0.0256
  594TIP3    H1 1746   2.194   1.594   1.525  0.2745 -0.6472 -1.4169
  594TIP3    H2 1747   2.181   1.700   1.418 -1.6393  0.7478  0.1112
  595TIP3   OH2 1748   4.535   5.868   4.293  0.3163 -0.1261 -0.4585
  595TIP3    H1 1749   4.449   5.829   4.301 -0.5636  1.7351 -0.3622
  595TIP3    H2 1750   4.532   5.915   4.210  0.8077  0.9612  0.1217
  596TIP3   OH2 1751   3.573   0.049   1.070 -0.0093 -0.3026 -0.1058
  596TIP3    H1 1752   3.520   0.027   1.147  0.3873  0.0389  0.2722
  596TIP3    H2 1753   3.551   0.141   1.052  0.7197 -0.0444  0.2797
  597TIP3   OH2 1754   1.241   4.725   0.784  0.2523 -0.3131  0.1026
  597TIP3    H1 1755   1.174   4.786   0.754 -1.2010 -1.0544  1.6615
  597TIP3    H2 1756   1.218   4.642   0.744  0.5038 -0.4842  0.3078
  598TIP3   OH2 1757   4.500   2.183   1.312 -0.5552 -0.6614 -0.1705
  598TIP3    H1 1758   4.473   2.275   1.323 -2.3402 -1.2280  0.5329
  598TIP3    H2 1759   4.480   2.164   1.220 -0.7047 -0.4964 -0.1741
  599TIP3   OH2 1760   6.495   4.547   5.378 -0.5105 -0.6747  0.2223
  599TIP3    H1 1761   6.479   4.453   5.382  0.2035 -0.8473 -0.4953
  599TIP3    H2 1762   6.584   4.557   5.411 -1.1028 -0.0671  1.6750
  600TIP3   OH2 1763   1.992   4.908   0.212 -0.2595  0.1175 -0.2300
  600TIP3    H1 1764   1.924   4.850   0.244  0.0732  0.2348  0.7125
  600TIP3    H2 1765   1.956   4.945   0.131 -1.8499  1.1810  0.9080
  601TIP3   OH2 1766   0.877   6.058   1.957  0.3671  0.1475  0.3113
  601TIP3    H1 1767   0.794   6.106   1.960  1.1233  1.4483  1.0427
  601TIP3    H2 1768   0.881   6.010   2.040 -0.5156 -1.4871 -0.5300
  602TIP3   OH2 1769   4.760   0.078   4.840 -0.2082  0.2243  0.6216
  602TIP3    H1 1770   4.738  -0.009   4.807 -1.2295  0.2781  1.1270
  602TIP3    H2 1771   4.826   0.062   4.907  1.5927  0.0808 -1.1082
  603TIP3   OH2 1772   2.343   6.503   2.607 -0.6030  0.2936  0.2336
  603TIP3    H1 1773   2.273   6.556   2.570 -1.0529  0.1653  0.8945
  603TIP3    H2 1774   2.313   6.479   2.694 -0.2966 -0.8414  0.0518
  604TIP3   OH2 1775   5.027   2.934   1.271 -0.8091 -0.0033 -0.6100
  604TIP3    H1 1776   4.945   2.976   1.298 -0.7581  0.2221 -0.8103
  604TIP3    H2 1777   5.000   2.852   1.230 -0.9053 -0.1973 -0.1670
  605TIP3   OH2 1778   7.121   4.256   3.400 -0.0358  0.3253  0.4802
  605TIP3    H1 1779   7.029   4.271   3.420 -0.0492  0.2581  0.4697
  605TIP3    H2 1780   7.169   4.290   3.475 -0.0403  0.8760  0.2399
  606TIP3   OH2 1781   4.534   6.573   1.426  0.5498  0.4753 -0.1664
  606TIP3    H1 1782   4.555   6.641   1.362  0.5925  0.1672 -0.4842
  606TIP3    H2 1783   4.532   6.619   1.510 -0.2265  1.0289 -0.4704
  607TIP3   OH2 1784   5.583   2.936   1.800  0.1193  0.8134  0.0027
  607TIP3    H1 1785   5.488   2.939   1.798  0.0628 -0.4534 -0.1724
  607TIP3    H2 1786   5.604   2.887   1.880  0.5655 -0.0120 -0.5968
  608TIP3   OH2 1787   0.510   0.205   4.952 -0.4556  0.3801  1.2611
  608TIP3    H1 1788   0.565   0.133   4.983  1.5432  1.3459  0.1551
  608TIP3    H2 1789   0.532   0.277   5.011  0.1227  1.0019  0.3111
  609TIP3   OH2 1790   6.524   1.336   3.223  0.5009 -0.7974  0.0358
  609TIP3    H1 1791   6.607   1.374   3.191 -0.5321  0.2544 -1.5534
  609TIP3    H2 1792   6.477   1.312   3.143 -1.0350 -0.7334  0.8934
  610TIP3   OH2 1793   3.651   4.224   4.957 -0.1843 -0.1935 -0.6239
  610TIP3    H1 1794   3.624   4.221   5.049  0.6045 -1.4425 -0.4029
  610TIP3    H2 1795   3.727   4.282   4.956 -0.0017 -0.4259 -0.4256
  611TIP3   OH2 1796   5.459   4.718   0.870 -0.7071 -0.8202  0.6380
  611TIP3    H1 1797   5.378   4.750   0.910 -1.5182 -0.6001 -1.0827
  611TIP3    H2 1798   5.495   4.794   0.825  0.1641 -1.0658  0.9022
  612TIP3   OH2 1799   2.551   6.191   1.037 -0.2474  0.0166  0.0954
  612TIP3    H1 1800   2.610   6.212   1.110  1.0719  0.3943 -1.0357
  612TIP3    H2 1801   2.560   6.096   1.027 -0.3701 -0.0260  0.3613
  613TIP3   OH2 1802   3.570   5.613   1.063 -0.0509 -0.4895  0.5486
  613TIP3    H1 1803   3.657   5.599   1.101 -0.2446 -0.0924  1.1508
  613TIP3    H2 1804   3.586   5.615   0.969  0.7887  0.8035  0.6885
  614TIP3   OH2 1805   2.325   2.737   5.405  0.5908  0.3149 -0.3844
  614TIP3    H1 1806   2.236   2.771   5.407  1.0895  1.7520  1.7005
  614TIP3    H2 1807   2.316   2.643   5.416 -0.6937  0.2790 -1.5433
  615TIP3   OH2 1808   0.902   2.177   2.900  0.2973 -0.3748  0.0681
  615TIP3    H1 1809   0.980   2.221   2.934 -0.3077  0.8564 -0.0852
  615TIP3    H2 1810   0.870   2.125   2.974  0.4875  0.2077  0.5656
  616TIP3   OH2 1811   5.724   5.696   5.179  0.2373 -0.3375 -0.6113
  616TIP3    H1 1812   5.747   5.607   5.206  1.0211  0.2507  0.8105
  616TIP3    H2 1813   5.759   5.752   5.249  0.0658  1.1207 -1.6358
  617TIP3   OH2 1814   1.485   3.120   3.559 -0.5254 -0.1541 -0.0713
  617TIP3    H1 1815   1.406   3.120   3.613 -0.5256  0.1677 -0.0684
  617TIP3    H2 1816   1.534   3.043   3.587 -1.0659 -0.6322 -0.4069
  618TIP3   OH2 1817   3.508   5.819   4.969 -0.4577  0.3661  0.0817
  618TIP3    H1 1818   3.582   5.874   4.995 -0.6988  1.3728 -1.2708
  618TIP3    H2 1819   3.505   5.825   4.874 -1.5621 -0.6226  0.0244
  619TIP3   OH2 1820   2.623   6.085   3.151  0.1653 -0.5300 -0.1083
  619TIP3    H1 1821   2.652   6.062   3.240 -0.1081 -0.2987  0.0449
  619TIP3    H2 1822   2.685   6.042   3.093  0.9879  0.1931  0.2192
  620TIP3   OH2 1823   6.284   1.361   3.688 -0.0715  0.0945 -0.2462
  620TIP3    H1 1824   6.375   1.344   3.662 -0.2710 -0.8746 -0.3439
  620TIP3    H2 1825   6.234   1.350   3.607 -0.3812 -0.2907 -0.0047
  621TIP3   OH2 1826   3.786   2.446   1.855 -0.1522  0.7527  0.4253
  621TIP3    H1 1827   3.843   2.495   1.797  0.7320  0.8357  1.3291
  621TIP3    H2 1828   3.712   2.419   1.800 -0.2930  2.4419 -0.2593
  622TIP3   OH2 1829   5.967   5.969   3.437  0.0033  0.2347 -0.0088
  622TIP3    H1 1830   5.890   6.020   3.460 -0.3822 -0.8142  1.1119
  622TIP3    H2 1831   5.932   5.890   3.395  0.5091  0.0883 -0.1665
  623TIP3   OH2 1832   2.676   4.640   4.992 -0.1624 -0.6072 -0.0608
  623TIP3    H1 1833   2.651   4.717   5.043 -1.4310  0.1134 -1.6526
  623TIP3    H2 1834   2.756   4.609   5.033  1.9067  3.0926 -0.8128
  624TIP3   OH2 1835   6.757   2.611   5.278  0.3560  0.3697 -0.3539
  624TIP3    H1 1836   6.818   2.674   5.317  0.3003 -0.0640  0.4504
  624TIP3    H2 1837   6.793   2.526   5.300 -0.8536  0.0946  0.6805
  625TIP3   OH2 1838   1.418   1.345   0.803 -0.4284 -0.1873 -0.1544
  625TIP3    H1 1839   1.511   1.362   0.790 -0.2921 -1.4482 -1.0188
  625TIP3    H2 1840   1.373   1.406   0.744 -0.1270 -0.0618 -0.2528
  626TIP3   OH2 1841   7.193   6.365   4.810  0.7074 -0.2742 -0.2791
  626TIP3    H1 1842   7.247   6.387   4.886 -0.5683  0.4866  0.4432
  626TIP3    H2 1843   7.120   6.315   4.846  0.1422 -0.0016 -1.0231
  627TIP3   OH2 1844   1.383   5.888   4.664 -0.2694  0.1671  0.4206
  627TIP3    H1 1845   1.358   5.964   4.612 -2.2084  0.9899  2.4268
  627TIP3    H2 1846   1.474   5.871   4.639 -0.1833  2.3567 -1.0041
  628TIP3   OH2 1847   7.057   5.065   2.099  0.2372  0.6422 -0.6526
  628TIP3    H1 1848   7.000   5.116   2.041  1.4210  0.6879 -1.8222
  628TIP3    H2 1849   7.004   5.051   2.178 -1.6408  0.1473 -1.9115
  629TIP3   OH2 1850   4.833   5.507   3.541 -0.4290 -0.2444 -0.1559
  629TIP3    H1 1851   4.826   5.447   3.615  0.0533 -0.4797 -0.2983
  629TIP3    H2 1852   4.759   5.484   3.484  0.0670 -1.0700 -0.4782
  630TIP3   OH2 1853   6.646   0.765   0.113 -0.3532 -0.4129 -0.2611
  630TIP3    H1 1854   6.625   0.698   0.178  0.1630 -1.4010 -1.0802
  630TIP3    H2 1855   6.626   0.724   0.029 -2.2574  1.2902 -0.7236
  631TIP3   OH2 1856   4.065   4.264   1.179 -0.4854 -0.0214 -0.4354
  631TIP3    H1 1857   4.066   4.305   1.093 -3.1608 -0.5035 -0.7873
  631TIP3    H2 1858   4.068   4.170   1.160 -1.6534 -0.1443 -0.0592
  632TIP3   OH2 1859   3.472   3.586   4.058  0.1219  0.4819 -0.1469
  632TIP3    H1 1860   3.485   3.504   4.106 -0.6592  0.2793 -0.2561
  632TIP3    H2 1861   3.522   3.651   4.107  0.1207  0.0889  0.3880
  633TIP3   OH2 1862   6.074   3.610   3.437  0.2857  0.7570 -0.3465
  633TIP3    H1 1863   6.061   3.623   3.530  1.2142 -0.1204 -0.0794
  633TIP3    H2 1864   6.097   3.697   3.404  0.2777  1.0077  0.2974
  634TIP3   OH2 1865   1.212   3.602   5.562 -0.5526 -0.4921 -0.0011
  634TIP3    H1 1866   1.176   3.554   5.636  0.8288 -0.0599  0.9954
  634TIP3    H2 1867   1.291   3.644   5.597  0.0793 -0.1938 -1.6942
  635TIP3   OH2 1868   6.208   2.053   5.227  0.2549 -0.0881  0.1352
  635TIP3    H1 1869   6.193   2.085   5.138  0.2211 -0.8360 -0.1289
  635TIP3    H2 1870   6.139   1.990   5.243 -0.3408  0.7607  1.0743
  636TIP3   OH2 1871   1.886   1.144   3.257 -0.0670  0.2825  0.4913
  636TIP3    H1 1872   1.940   1.065   3.261 -0.3772 -0.0060 -0.8322
  636TIP3    H2 1873   1.948   1.214   3.239 -0.2939 -0.3518 -3.4873
  637TIP3   OH2 1874   2.807   2.658   2.078  0.1112  0.0741  0.2140
  637TIP3    H1 1875   2.858   2.738   2.073  0.0510  0.0488 -1.2563
  637TIP3    H2 1876   2.718   2.688   2.097  0.2465  0.2820  0.5318
  638TIP3   OH2 1877   7.002   4.661   0.565 -0.7648 -0.1115 -0.2972
  638TIP3    H1 1878   7.024   4.734   0.622 -0.3724 -1.9085  2.0217
  638TIP3    H2 1879   7.078   4.650   0.508  0.2994 -0.3153  1.1254
  639TIP3   OH2 1880   5.645   0.295   4.921 -0.3894 -0.4013  0.2695
  639TIP3    H1 1881   5.576   0.355   4.893 -0.4668  0.2619  1.7737
  639TIP3    H2 1882   5.619   0.210   4.886 -0.9002  0.2117 -0.8867
  640TIP3   OH2 1883   1.945   4.317   1.404 -0.0610 -0.3408 -0.0523
  640TIP3    H1 1884   1.944   4.256   1.330 -0.7525 -0.4718  0.0583
  640TIP3    H2 1885   1.905   4.268   1.476  0.1359 -0.0372  0.2664
  641TIP3   OH2 1886   2.530   1.182   4.316 -0.2204 -0.5950 -0.0592
  641TIP3    H1 1887   2.537   1.171   4.221  1.4420  2.3127 -0.3918
  641TIP3    H2 1888   2.441   1.215   4.330 -0.3317 -0.6495 -0.6172
  642TIP3   OH2 1889   5.953   4.947   4.436  0.6348 -0.4859  0.3460
  642TIP3    H1 1890   6.026   4.915   4.383  1.8221  3.6539 -0.9115
  642TIP3    H2 1891   5.879   4.952   4.375  0.6546 -0.1687  0.3488
  643TIP3   OH2 1892   6.533   6.129   1.725  0.0963  0.7243 -0.6175
  643TIP3    H1 1893   6.593   6.088   1.787  2.2150  2.6509 -1.2540
  643TIP3    H2 1894   6.446   6.117   1.764  0.9752 -1.1830  0.9168
  644TIP3   OH2 1895   4.332   6.525   3.768 -0.5057  0.3655 -0.2293
  644TIP3    H1 1896   4.364   6.454   3.712  0.0747  0.4089  0.0502
  644TIP3    H2 1897   4.287   6.481   3.840  0.3190  0.2631  0.2296
  645TIP3   OH2 1898   4.523   2.264   5.900  0.4643 -0.0890  0.1054
  645TIP3    H1 1899   4.566   2.182   5.876  1.0207 -0.0229  0.8412
  645TIP3    H2 1900   4.580   2.333   5.866 -0.5952  0.0193 -1.5496
  646TIP3   OH2 1901   5.945   1.743   1.327 -0.0031  0.3651 -0.4162
  646TIP3    H1 1902   5.874   1.795   1.365  0.3475  1.2407 -0.9371
  646TIP3    H2 1903   5.910   1.654   1.325 -1.2920  0.8648 -1.1355
  647TIP3   OH2 1904   1.226   0.805   3.893  0.0991  0.3325 -0.4949
  647TIP3    H1 1905   1.309   0.769   3.923 -0.3813 -0.5937 -0.2370
  647TIP3    H2 1906   1.249   0.889   3.853  1.2504 -0.2300 -1.0635
  648TIP3   OH2 1907   6.169   4.139   3.792  0.3962  0.1890 -0.0194
  648TIP3    H1 1908   6.218   4.103   3.866 -0.1063 -1.4107 -0.4238
  648TIP3    H2 1909   6.077   4.134   3.819  0.2922  1.0270 -0.1697
  649TIP3   OH2 1910   6.876   3.656   4.363 -0.3058 -0.3048 -0.3771
  649TIP3    H1 1911   6.919   3.666   4.278  0.4540 -1.2753 -0.1175
  649TIP3    H2 1912   6.785   3.677   4.346  0.0885  0.9129 -1.1315
  650TIP3   OH2 1913   0.266   2.116   2.239 -0.3295  0.0788 -0.0993
  650TIP3    H1 1914   0.260   2.022   2.220 -0.9833  0.3119 -1.1143
  650TIP3    H2 1915   0.359   2.132   2.251  0.0305 -0.3117 -2.0862
  651TIP3   OH2 1916   1.709   4.085   4.397  0.3728  0.0699 -0.0266
  651TIP3    H1 1917   1.769   4.091   4.471  0.8992  1.9349 -0.5491
  651TIP3    H2 1918   1.624   4.113   4.432  0.7561  1.5870 -0.2213
  652TIP3   OH2 1919   2.487   6.581   5.773 -0.2877 -0.1052  0.4603
  652TIP3    H1 1920   2.496   6.655   5.713 -0.6527  0.1672  0.7391
  652TIP3    H2 1921   2.469   6.621   5.858 -2.1419 -0.5420  0.3098
  653TIP3   OH2 1922   1.767   5.561   0.326 -0.2792  0.1652  0.3868
  653TIP3    H1 1923   1.746   5.510   0.405  0.7467  0.5471  0.9296
  653TIP3    H2 1924   1.729   5.647   0.341  0.7428  0.5460  0.9277
  654TIP3   OH2 1925   3.130   3.663   4.953  0.9082  0.3315  0.5347
  654TIP3    H1 1926   3.080   3.743   4.937  0.7087 -0.0934 -1.1124
  654TIP3    H2 1927   3.114   3.643   5.046 -0.2063  1.3997  0.5947
  655TIP3   OH2 1928   5.398   4.451   1.417  0.0087 -0.0954 -0.2880
  655TIP3    H1 1929   5.335   4.393   1.460 -0.3825  1.0849  0.7871
  655TIP3    H2 1930   5.483   4.411   1.436 -0.2211 -0.0981  0.8192
  656TIP3   OH2 1931   1.668   3.264   0.448  0.2131 -0.5371 -0.5970
  656TIP3    H1 1932   1.739   3.271   0.384 -0.7365  0.6822 -1.5698
  656TIP3    H2 1933   1.604   3.330   0.421  0.6481  1.5343  2.7615
  657TIP3   OH2 1934   0.897   6.738   4.165 -0.4299 -0.0726  0.8577
  657TIP3    H1 1935   0.884   6.649   4.132  1.0892 -1.1217  2.8437
  657TIP3    H2 1936   0.983   6.764   4.130 -0.8222  0.5864  0.3716
  658TIP3   OH2 1937   3.309   6.650   2.616  0.0768 -0.2130 -0.0426
  658TIP3    H1 1938   3.356   6.730   2.641 -0.1112 -0.3750  0.8620
  658TIP3    H2 1939   3.223   6.681   2.588 -0.5018 -0.1773  1.6394
  659TIP3   OH2 1940   3.698   0.337   2.664  0.0121  0.2257  0.0134
  659TIP3    H1 1941   3.629   0.343   2.730  0.2931 -0.7563  0.4202
  659TIP3    H2 1942   3.720   0.428   2.644 -1.2511  0.5424  0.0236
  660TIP3   OH2 1943   6.089   5.298   1.645 -0.1402  0.1309 -0.2410
  660TIP3    H1 1944   6.046   5.326   1.725  0.9799 -1.4059  0.9496
  660TIP3    H2 1945   6.155   5.366   1.628 -0.4467  0.5112  0.0734
  661TIP3   OH2 1946   1.800   5.599   1.650 -0.1472 -0.1457 -0.4651
  661TIP3    H1 1947   1.848   5.569   1.727 -0.4715 -2.5099 -1.1094
  661TIP3    H2 1948   1.722   5.544   1.647 -1.1402  1.2408 -1.3996
  662TIP3   OH2 1949   6.397   3.444   1.177  0.5494 -0.1936  0.4879
  662TIP3    H1 1950   6.432   3.510   1.117  0.0114  1.0355  1.4720
  662TIP3    H2 1951   6.474   3.394   1.205  1.3617  1.5483  1.5225
  663TIP3   OH2 1952   3.027   3.617   5.623 -0.1578 -0.5857 -0.2198
  663TIP3    H1 1953   2.996   3.583   5.539 -0.4517  0.1955 -0.4341
  663TIP3    H2 1954   2.971   3.692   5.641  0.8697  0.1550 -0.0487
  664TIP3   OH2 1955   5.070   5.359   2.312  0.3376 -0.2594  0.2755
  664TIP3    H1 1956   5.060   5.337   2.404 -0.3644  0.0981  0.2946
  664TIP3    H2 1957   5.130   5.293   2.277  0.8719 -0.1931  1.0593
  665TIP3   OH2 1958   1.810   4.618   0.973  0.0600 -0.7477 -0.0049
  665TIP3    H1 1959   1.791   4.657   0.888 -0.9927 -1.1756  0.0303
  665TIP3    H2 1960   1.758   4.538   0.976 -0.3268 -0.4657  1.2598
  666TIP3   OH2 1961   6.568   1.985   3.022 -0.3172 -0.1285 -0.0697
  666TIP3    H1 1962   6.656   1.963   2.990 -0.2089  1.2309 -0.8269
  666TIP3    H2 1963   6.519   2.004   2.942 -1.2307 -0.5932  0.3706
  667TIP3   OH2 1964   0.203   6.678   5.725 -0.0514  0.1772 -0.0102
  667TIP3    H1 1965   0.249   6.603   5.687 -1.3469 -0.6080 -0.0960
  667TIP3    H2 1966   0.194   6.655   5.818 -2.7724 -1.0684 -0.5001
  668TIP3   OH2 1967   4.992   0.528   1.760 -0.1140 -0.1498 -0.5318
  668TIP3    H1 1968   4.978   0.488   1.846 -0.8389 -0.5520 -0.8271
  668TIP3    H2 1969   5.087   0.541   1.755 -0.2047  1.5960  1.0736
  669TIP3   OH2 1970   0.796   0.327   4.990 -0.0224  0.2559  0.5436
  669TIP3    H1 1971   0.825   0.417   4.980  1.6290 -0.1649  1.1156
  669TIP3    H2 1972   0.774   0.299   4.901  0.6285  0.8607  0.1837
  670TIP3   OH2 1973   1.992   4.873   4.589  0.3916 -0.2366 -0.3376
  670TIP3    H1 1974   2.008   4.821   4.668  1.2850  2.2775  1.2423
  670TIP3    H2 1975   1.900   4.899   4.595  0.3565 -0.3599 -0.3361
  671TIP3   OH2 1976   1.256   1.544   0.400 -0.2598 -0.2159  0.1472
  671TIP3    H1 1977   1.188   1.560   0.334 -0.2330  1.7333  0.5206
  671TIP3    H2 1978   1.311   1.476   0.362  2.4700  3.7997 -4.1141
  672TIP3   OH2 1979   4.604   4.095   2.572 -0.0378 -0.0637 -0.2762
  672TIP3    H1 1980   4.672   4.030   2.591 -0.8772 -0.4029  1.7764
  672TIP3    H2 1981   4.538   4.046   2.524 -0.2557 -0.5285  0.4784
  673TIP3   OH2 1982   4.796   5.832   1.106 -0.0883 -0.1350  0.5906
  673TIP3    H1 1983   4.861   5.762   1.110  0.3406  0.2687  0.7228
  673TIP3    H2 1984   4.818   5.881   1.027  0.8218  1.0194  1.5412
  674TIP3   OH2 1985   3.400   5.963   5.197 -0.2489  0.5035 -0.3451
  674TIP3    H1 1986   3.429   5.941   5.109 -1.7713  2.4907 -1.4342
  674TIP3    H2 1987   3.455   6.037   5.224  1.7677 -1.4951  1.4010
  675TIP3   OH2 1988   1.389   4.234   1.739  0.8086 -0.2842 -0.2656
  675TIP3    H1 1989   1.404   4.140   1.750 -0.2320 -0.3149  1.2853
  675TIP3    H2 1990   1.385   4.247   1.644 -2.6790 -2.4710 -0.5980
  676TIP3   OH2 1991   4.801   0.342   4.729  0.2204  0.1704 -0.3009
  676TIP3    H1 1992   4.873   0.371   4.673  0.7922 -0.2734  0.1850
  676TIP3    H2 1993   4.799   0.247   4.719 -0.5590  0.2133 -0.6093
  677TIP3   OH2 1994   2.864   4.028   2.258  0.6500 -0.5220  0.5741
  677TIP3    H1 1995   2.878   3.953   2.200 -0.4744  0.2255 -0.7381
  677TIP3    H2 1996   2.832   3.990   2.340 -0.6165 -1.4751 -0.3203
  678TIP3   OH2 1997   1.396   2.395   5.414  0.3658 -0.2571 -0.4519
  678TIP3    H1 1998   1.420   2.312   5.453  0.0607 -0.1804 -0.0991
  678TIP3    H2 1999   1.479   2.431   5.382  0.5996 -0.3720  0.0206
  679TIP3   OH2 2000   4.772   1.315   1.825  0.5460  0.3558 -0.7024
  679TIP3    H1 2001   4.718   1.384   1.865 -1.3435 -0.0079 -2.4563
  679TIP3    H2 2002   4.841   1.362   1.779 -0.8429  1.1653 -2.0610
  680TIP3   OH2 2003   2.313   1.554   2.255  0.2500  0.2294  0.6854
  680TIP3    H1 2004   2.332   1.559   2.349 -0.0851 -1.4221  0.8620
  680TIP3    H2 2005   2.224   1.520   2.250 -0.1768  1.4000 -0.2396
  681TIP3   OH2 2006   2.629   5.720   4.843 -0.0091  0.2002 -0.3044
  681TIP3    H1 2007   2.700   5.731   4.906  0.9035  1.1306 -1.4537
  681TIP3    H2 2008   2.667   5.745   4.759 -0.6835 -2.5829 -1.5740
  682TIP3   OH2 2009   3.949   5.858   4.466 -0.0371 -0.2121 -0.0552
  682TIP3    H1 2010   3.870   5.844   4.414 -0.4766 -0.6907  0.7107
  682TIP3    H2 2011   3.968   5.952   4.456  0.8138 -0.5675 -2.2996
  683TIP3   OH2 2012   0.691   1.256   3.319  0.6454  0.3900 -0.2055
  683TIP3    H1 2013   0.750   1.310   3.267  0.4452  1.8577  1.0110
  683TIP3    H2 2014   0.604   1.279   3.288  0.6308 -0.5321 -0.8613
  684TIP3   OH2 2015   4.406   4.503   2.326  0.1438 -0.3678  0.3450
  684TIP3    H1 2016   4.460   4.579   2.307  0.5514 -0.0384  2.5153
  684TIP3    H2 2017   4.448   4.431   2.279  0.0732  0.6147 -1.2778
  685TIP3   OH2 2018   2.639   2.852   1.245 -0.5635  0.3211 -0.2939
  685TIP3    H1 2019   2.640   2.871   1.151 -1.8480  0.6760 -0.2621
  685TIP3    H2 2020   2.564   2.902   1.278 -0.3315 -0.0738  0.8563
  686TIP3   OH2 2021   2.412   1.610   0.125  0.7026 -0.5212  0.5006
  686TIP3    H1 2022   2.354   1.668   0.077  0.6353  0.1078  1.3264
  686TIP3    H2 2023   2.360   1.531   0.140  0.1008 -0.0225  1.1043
  687TIP3   OH2 2024   1.201   6.350   1.567  0.0541  0.6760 -0.0540
  687TIP3    H1 2025   1.274   6.354   1.505 -0.5949 -0.3078 -0.9010
  687TIP3    H2 2026   1.152   6.431   1.552  0.3414  0.8085 -0.2764
  688TIP3   OH2 2027   0.775   6.324   1.359 -0.6224 -0.4546  0.0499
  688TIP3    H1 2028   0.725   6.286   1.432 -0.5659 -2.2919 -0.8031
  688TIP3    H2 2029   0.746   6.274   1.283  0.1773  0.6438 -0.9983
  689TIP3   OH2 2030   1.178   6.474   5.057 -0.0643 -0.1979  0.2346
  689TIP3    H1 2031   1.177   6.378   5.059  0.4072 -0.3800 -2.9182
  689TIP3    H2 2032   1.269   6.496   5.078  0.4483 -0.6590 -1.2866
  690TIP3   OH2 2033   0.178   2.322   0.071  0.2298  0.1881  0.2585
  690TIP3    H1 2034   0.255   2.270   0.050  0.1834  0.4423 -0.5918
  690TIP3    H2 2035   0.105   2.261   0.064  0.4873 -0.5464  2.9929
  691TIP3   OH2 2036   3.894   1.224   1.182  0.7531 -0.0281  0.5705
  691TIP3    H1 2037   3.860   1.154   1.237  1.5460 -2.3048 -1.6945
  691TIP3    H2 2038   3.989   1.211   1.182  0.8225  0.3530 -0.7858
  692TIP3   OH2 2039   0.864   3.851   3.804  0.1018 -0.7840  0.2645
  692TIP3    H1 2040   0.942   3.871   3.751 -0.8646 -1.8348 -1.6439
  692TIP3    H2 2041   0.898   3.836   3.892  2.0388 -0.9949 -0.4740
  693TIP3   OH2 2042   1.923   0.218   5.638  0.1831  0.2201  0.3670
  693TIP3    H1 2043   1.958   0.212   5.727 -1.8878 -1.5165  1.1468
  693TIP3    H2 2044   1.959   0.141   5.593 -1.2171 -0.6587  0.6888
  694TIP3   OH2 2045   5.933   4.069   0.966  0.0598  0.1653 -0.4053
  694TIP3    H1 2046   5.869   4.001   0.986 -0.3855  0.4213 -0.9446
  694TIP3    H2 2047   5.899   4.147   1.011  0.1156  0.2465 -0.5042
  695TIP3   OH2 2048   1.696   5.488   3.979  0.2304  0.1625 -0.7737
  695TIP3    H1 2049   1.747   5.427   4.033  0.5220  1.1715  0.1206
  695TIP3    H2 2050   1.607   5.454   3.982  0.6807 -1.2256 -1.7797
  696TIP3   OH2 2051   1.956   1.588   1.718 -0.1828 -0.1716 -0.0289
  696TIP3    H1 2052   2.021   1.595   1.648  1.5551  1.5228  1.6285
  696TIP3    H2 2053   1.980   1.508   1.765  2.5058  1.6844  2.0925
  697TIP3   OH2 2054   4.482   3.137   4.612 -0.0342  0.0881 -0.2757
  697TIP3    H1 2055   4.563   3.103   4.651  0.7298  1.9188 -0.1838
  697TIP3    H2 2056   4.413   3.106   4.671  0.7318 -0.3667  0.4143
  698TIP3   OH2 2057   6.364   5.019   4.264  0.1251  0.5541  0.4265
  698TIP3    H1 2058   6.421   4.987   4.194  1.5497 -1.0867  2.2309
  698TIP3    H2 2059   6.421   5.071   4.320 -0.2897 -0.4910  1.8652
  699TIP3   OH2 2060   5.622   2.251   2.562  0.3867  0.2199 -0.1662
  699TIP3    H1 2061   5.539   2.249   2.515  0.3108  1.2924 -0.0930
  699TIP3    H2 2062   5.689   2.238   2.494  0.2370  0.9718 -0.4617
  700TIP3   OH2 2063   5.284   6.524   2.807 -0.0092  0.4823 -0.3617
  700TIP3    H1 2064   5.260   6.449   2.752 -0.4977 -1.0730  1.8442
  700TIP3    H2 2065   5.346   6.488   2.870  0.8436  2.3035 -0.1011
  701TIP3   OH2 2066   0.898   5.958   2.212 -0.4357 -0.1582 -0.2626
  701TIP3    H1 2067   0.852   5.976   2.295  0.9190  1.9403  0.1328
  701TIP3    H2 2068   0.919   5.865   2.216  1.2329  0.2275  2.6942
  702TIP3   OH2 2069   2.546   0.749   1.447 -0.7294  0.1743  0.1543
  702TIP3    H1 2070   2.517   0.674   1.498  0.1197 -0.3509 -0.1192
  702TIP3    H2 2071   2.467   0.802   1.434 -0.8386  0.7331  2.6744
  703TIP3   OH2 2072   3.647   3.809   2.823 -0.3371  0.2251 -0.2110
  703TIP3    H1 2073   3.555   3.792   2.842 -0.0029 -1.0396  0.3655
  703TIP3    H2 2074   3.674   3.872   2.890  0.4054 -2.9688  2.7684
  704TIP3   OH2 2075   5.846   1.027   1.955 -0.6198 -0.4540  0.6319
  704TIP3    H1 2076   5.929   1.073   1.963 -0.1014 -0.9752 -1.3028
  704TIP3    H2 2077   5.851   0.983   1.870 -3.3949  0.5280 -0.1143
  705TIP3   OH2 2078   3.587   5.457   4.797 -0.6564  0.1236  0.2063
  705TIP3    H1 2079   3.543   5.409   4.867 -1.2244  0.6592  0.2160
  705TIP3    H2 2080   3.562   5.411   4.717 -1.4961  0.6084  0.1798
  706TIP3   OH2 2081   2.891   4.787   2.695 -0.2250  0.3005 -0.4565
  706TIP3    H1 2082   2.832   4.757   2.765 -0.2856 -0.0270 -0.6488
  706TIP3    H2 2083   2.875   4.881   2.690 -2.3643 -0.0760 -2.0068
  707TIP3   OH2 2084   6.636   4.911   2.145  0.1924  0.1111  0.1512
  707TIP3    H1 2085   6.729   4.891   2.135  0.3887  1.2089 -0.4008
  707TIP3    H2 2086   6.593   4.857   2.078  0.3903 -0.6325  0.6146
  708TIP3   OH2 2087   0.223   4.409   2.268 -0.5940 -0.5959 -0.0264
  708TIP3    H1 2088   0.180   4.435   2.349  1.4780  0.3367  0.8369
  708TIP3    H2 2089   0.280   4.483   2.246  1.5039 -2.2385 -0.3969
  709TIP3   OH2 2090   5.996   6.490   5.293  0.1463 -0.6477 -0.2230
  709TIP3    H1 2091   5.977   6.452   5.379 -1.5333 -2.2078 -1.2251
  709TIP3    H2 2092   5.926   6.552   5.278  1.5086  1.0998  0.3143
  710TIP3   OH2 2093   1.358   4.040   0.213 -0.4608 -0.5122 -0.4135
  710TIP3    H1 2094   1.393   4.116   0.259  1.9861 -1.3003 -0.8471
  710TIP3    H2 2095   1.329   3.980   0.282 -1.4462  0.3515 -0.0574
  711TIP3   OH2 2096   3.584   6.196   3.968 -0.0204 -0.2681  0.5846
  711TIP3    H1 2097   3.600   6.102   3.969  0.8770 -0.1397 -0.4329
  711TIP3    H2 2098   3.516   6.210   4.034  1.8975 -1.2463  2.8903
  712TIP3   OH2 2099   5.174   1.112   0.350  0.3305  0.4022 -0.7506
  712TIP3    H1 2100   5.224   1.057   0.291  0.2219 -0.3519 -0.1507
  712TIP3    H2 2101   5.090   1.126   0.304 -0.5607 -1.8672  0.0639
  713TIP3   OH2 2102   1.721   3.339   2.675 -0.3506 -0.2712  0.1017
  713TIP3    H1 2103   1.758   3.341   2.763  0.1739  0.8066 -0.1307
  713TIP3    H2 2104   1.731   3.428   2.642 -1.4675 -0.4028 -0.6734
  714TIP3   OH2 2105   2.995   1.412   4.316  0.3581  0.4344 -0.3721
  714TIP3    H1 2106   2.919   1.418   4.374 -0.6910  1.7957 -1.7913
  714TIP3    H2 2107   2.978   1.334   4.263  0.2142  0.4503 -0.3504
  715TIP3   OH2 2108   1.635   4.229   5.345 -0.3615  0.0344  0.1464
  715TIP3    H1 2109   1.551   4.266   5.317  0.8286  2.0442 -1.0576
  715TIP3    H2 2110   1.650   4.266   5.432 -1.1311 -1.1117  0.7904
  716TIP3   OH2 2111   4.106   5.658   5.302 -0.4237  0.2461 -0.6732
  716TIP3    H1 2112   4.083   5.671   5.394  2.9178 -0.1817  0.3683
  716TIP3    H2 2113   4.129   5.746   5.271  2.6359 -0.1070  0.3057
  717TIP3   OH2 2114   5.108   6.378   4.220 -0.1593 -0.1090 -0.2846
  717TIP3    H1 2115   5.048   6.325   4.273 -1.4012  1.1929 -0.3164
  717TIP3    H2 2116   5.129   6.453   4.276  0.6043 -0.0261 -0.6755
  718TIP3   OH2 2117   3.230   5.559   4.405  0.5267 -0.1281  0.4998
  718TIP3    H1 2118   3.190   5.645   4.395 -0.8393 -0.7758  0.0570
  718TIP3    H2 2119   3.255   5.554   4.497 -2.6899 -0.5719  1.4734
  719TIP3   OH2 2120   4.209   1.610   3.908  0.0923  0.4111  0.2817
  719TIP3    H1 2121   4.201   1.644   3.819  0.5101 -0.7726 -0.2401
  719TIP3    H2 2122   4.122   1.577   3.929  0.4247 -1.0196 -0.4526
  720TIP3   OH2 2123   5.532   1.623   1.413 -0.7687 -0.3891 -0.7067
  720TIP3    H1 2124   5.571   1.553   1.466 -2.1428 -0.1131  0.7340
  720TIP3    H2 2125   5.605   1.682   1.395  0.1127 -1.4403 -0.7220
  721TIP3   OH2 2126   6.704   5.316   0.530 -0.1439  0.2225  0.1295
  721TIP3    H1 2127   6.775   5.374   0.558 -0.4190  0.6366 -0.0187
  721TIP3    H2 2128   6.748   5.240   0.492  0.2480 -0.4512  1.8587
  722TIP3   OH2 2129   0.296   2.739   2.498  0.0662  0.1026 -0.4632
  722TIP3    H1 2130   0.316   2.739   2.404  0.3709  1.1956 -0.4171
  722TIP3    H2 2131   0.203   2.716   2.502 -0.3454  1.5267 -1.1535
  723TIP3   OH2 2132   1.639   2.694   3.855 -0.6163  0.1992 -0.6792
  723TIP3    H1 2133   1.605   2.718   3.769 -2.2127  0.2701 -0.0610
  723TIP3    H2 2134   1.660   2.601   3.846  2.4097  0.9200 -2.0829
  724TIP3   OH2 2135   0.246   5.651   3.418  0.1565  0.2907  0.0983
  724TIP3    H1 2136   0.321   5.708   3.433 -0.3284  0.6389  1.3753
  724TIP3    H2 2137   0.211   5.679   3.333  0.2963  1.4803  0.4084
  725TIP3   OH2 2138   4.581   3.513   5.824 -0.2279 -0.1492  0.6012
  725TIP3    H1 2139   4.544   3.471   5.902  1.7079 -0.1042  1.6026
  725TIP3    H2 2140   4.676   3.501   5.833  0.0406 -0.5892 -2.0140
  726TIP3   OH2 2141   6.070   5.058   1.255  0.2349  0.0661 -0.5489
  726TIP3    H1 2142   5.975   5.066   1.270  0.3299  1.2253 -0.4517
  726TIP3    H2 2143   6.087   4.964   1.259 -0.7317 -0.0887  0.5935
  727TIP3   OH2 2144   5.527   6.616   3.716 -0.1143 -0.0565 -0.6454
  727TIP3    H1 2145   5.462   6.642   3.781  0.9727  1.8539 -0.2466
  727TIP3    H2 2146   5.557   6.530   3.746 -1.8430 -0.6101 -0.4028
  728TIP3   OH2 2147   0.868   5.023   3.753  0.3780  0.4862 -0.8039
  728TIP3    H1 2148   0.912   5.055   3.832 -0.8536  1.7356 -0.5889
  728TIP3    H2 2149   0.833   4.937   3.779  0.0521  0.8489 -0.0027
  729TIP3   OH2 2150   6.911   2.498   0.816  0.0786  0.1387 -0.3601
  729TIP3    H1 2151   6.852   2.445   0.763 -0.4714 -0.2390  0.6003
  729TIP3    H2 2152   6.917   2.451   0.900 -0.7954  1.8119  0.6924
  730TIP3   OH2 2153   1.880   0.365   4.875 -0.2335  0.0703  0.4715
  730TIP3    H1 2154   1.976   0.362   4.883 -0.2873 -0.7081  0.8847
  730TIP3    H2 2155   1.864   0.427   4.804  0.5796  0.1757  0.3699
  731TIP3   OH2 2156   3.101   3.539   3.772  0.0895  0.2120  0.1490
  731TIP3    H1 2157   3.099   3.495   3.857 -0.2726 -0.8967 -0.4152
  731TIP3    H2 2158   3.048   3.484   3.714 -0.4555  1.4352 -0.5788
  732TIP3   OH2 2159   4.278   6.091   3.714  0.5133  0.7448  0.5698
  732TIP3    H1 2160   4.370   6.065   3.715  0.4670  0.5732  1.0665
  732TIP3    H2 2161   4.230   6.008   3.719  0.3689  0.8879  2.8621
  733TIP3   OH2 2162   3.960   4.307   5.355 -0.1332  0.1030 -0.0970
  733TIP3    H1 2163   4.036   4.280   5.304 -0.3838 -0.7466 -0.0419
  733TIP3    H2 2164   3.985   4.291   5.446 -0.1562  0.3964 -0.0393
  734TIP3   OH2 2165   5.928   0.134   2.113 -0.0499  0.1559  0.2066
  734TIP3    H1 2166   5.861   0.143   2.182  2.5335  2.3873  2.7059
  734TIP3    H2 2167   5.913   0.210   2.057 -0.3992 -0.0711 -0.0110
  735TIP3   OH2 2168   0.774   0.050   5.738  0.4185  0.0098 -0.2263
  735TIP3    H1 2169   0.708   0.108   5.777  0.7357  0.6101 -0.5706
  735TIP3    H2 2170   0.728   0.008   5.665  0.7885  1.5196 -1.3933
  736TIP3   OH2 2171   6.435   0.272   4.734 -0.3330 -0.3624  0.0640
  736TIP3    H1 2172   6.441   0.297   4.827 -1.6223 -2.8523  0.9158
  736TIP3    H2 2173   6.345   0.292   4.710 -0.7270 -1.9158  0.1235
  737TIP3   OH2 2174   6.452   2.072   3.593  0.0859 -0.2452 -0.0124
  737TIP3    H1 2175   6.398   2.142   3.557 -1.0251 -1.0675  0.0274
  737TIP3    H2 2176   6.542   2.105   3.586 -0.3777  0.9463 -0.5030
  738TIP3   OH2 2177   4.455   2.469   1.296  0.1028  0.0793 -0.3430
  738TIP3    H1 2178   4.361   2.453   1.291  0.0397  0.8360 -2.4838
  738TIP3    H2 2179   4.470   2.497   1.386 -1.5464 -0.9612  0.2971
  739TIP3   OH2 2180   5.609   2.025   0.040 -0.3425  0.2315 -0.4306
  739TIP3    H1 2181   5.575   1.961   0.102 -0.1732  0.9188  0.4040
  739TIP3    H2 2182   5.617   1.978  -0.043  1.0093 -1.1946  0.4476
  740TIP3   OH2 2183   4.943   2.913   3.017  0.4000 -0.5907 -0.8478
  740TIP3    H1 2184   4.889   2.855   3.072  1.3124 -0.0486  0.6756
  740TIP3    H2 2185   4.886   2.986   2.995  0.8158  0.6320  1.8432
  741TIP3   OH2 2186   6.991   1.040   1.434  0.5613  0.0815  0.5773
  741TIP3    H1 2187   6.970   1.083   1.517 -0.6957 -0.8345  0.7555
  741TIP3    H2 2188   6.907   1.007   1.402  1.1577 -0.2818 -0.6620
  742TIP3   OH2 2189   5.946   4.335   3.553 -1.0468  0.0913  0.2672
  742TIP3    H1 2190   5.909   4.393   3.486 -2.4490 -1.3566 -0.2554
  742TIP3    H2 2191   5.873   4.281   3.581  0.1294 -1.1447  1.0471
  743TIP3   OH2 2192   5.635   3.181   0.902 -0.1620  0.0169  0.1120
  743TIP3    H1 2193   5.597   3.116   0.960 -0.9573  1.2355  1.0050
  743TIP3    H2 2194   5.687   3.130   0.839 -0.6353 -1.4415  0.8627
  744TIP3   OH2 2195   6.619   6.793   3.871 -0.3873 -0.0741 -0.7827
  744TIP3    H1 2196   6.689   6.791   3.807 -0.3362 -1.9269 -0.7132
  744TIP3    H2 2197   6.539   6.778   3.820 -0.4609 -0.4901 -0.5467
  745TIP3   OH2 2198   1.843   5.136   4.233  0.1684  0.2283 -0.2185
  745TIP3    H1 2199   1.883   5.150   4.319 -1.5241  1.7485  0.3842
  745TIP3    H2 2200   1.777   5.068   4.247  0.5482 -0.2214 -0.5605
  746TIP3   OH2 2201   4.598   3.077   2.092 -0.2849 -0.5490  0.3177
  746TIP3    H1 2202   4.656   3.139   2.137 -0.7977  0.2224 -0.0444
  746TIP3    H2 2203   4.616   2.993   2.132  0.6135 -0.2023  0.6593
  747TIP3   OH2 2204   0.202   0.919   3.589 -0.2759  0.2221  0.0818
  747TIP3    H1 2205   0.267   0.930   3.520  1.1786  0.3302  1.4082
  747TIP3    H2 2206   0.238   0.850   3.646 -0.9761  0.7574  1.2182
  748TIP3   OH2 2207   5.657   1.411   2.395  0.2182  0.0078  0.0987
  748TIP3    H1 2208   5.614   1.415   2.480  0.0911 -1.6294  0.1281
  748TIP3    H2 2209   5.618   1.483   2.345 -0.8686 -0.0180  0.8950
  749TIP3   OH2 2210   1.209   2.713   3.205 -0.6352 -0.1830 -0.0143
  749TIP3    H1 2211   1.255   2.692   3.124  1.0628  0.5716  0.7074
  749TIP3    H2 2212   1.123   2.744   3.176  0.8931  2.8901 -1.7901
  750TIP3   OH2 2213   4.755   3.239   5.787 -0.4898  0.4743 -0.0585
  750TIP3    H1 2214   4.673   3.193   5.806  0.0152 -0.7679 -0.7686
  750TIP3    H2 2215   4.746   3.268   5.696 -0.0758  0.1905 -0.1921
  751TIP3   OH2 2216   3.269   1.730   5.510  0.9223 -0.1902  0.0825
  751TIP3    H1 2217   3.332   1.659   5.518  1.9252  0.6196 -0.3049
  751TIP3    H2 2218   3.305   1.800   5.565 -0.8489 -0.4935  1.7279
  752TIP3   OH2 2219   4.743   6.550   3.840 -0.1488 -0.4901 -0.4796
  752TIP3    H1 2220   4.664   6.583   3.884 -0.4480 -1.1032 -0.5458
  752TIP3    H2 2221   4.809   6.546   3.909 -0.3997 -0.7179 -0.2491
  753TIP3   OH2 2222   3.851   4.068   2.344 -0.6317 -0.4474  0.0385
  753TIP3    H1 2223   3.798   4.060   2.265 -0.1380 -1.3637 -0.2179
  753TIP3    H2 2224   3.919   4.132   2.322  1.3500 -2.8465 -1.3991
  754TIP3   OH2 2225   3.373   5.861   4.103  0.2446 -0.0643 -0.6189
  754TIP3    H1 2226   3.355   5.952   4.125  1.3042  0.1153 -0.4171
  754TIP3    H2 2227   3.352   5.812   4.182  0.5262  0.1250 -0.4232
  755TIP3   OH2 2228   7.198   1.398   0.362  0.5196 -0.1461 -0.4245
  755TIP3    H1 2229   7.208   1.306   0.387 -1.2880  0.0689  1.4029
  755TIP3    H2 2230   7.106   1.406   0.337 -0.1766  1.6873  2.2478
  756TIP3   OH2 2231   0.870   2.254   4.746 -0.2599 -0.2734  0.4332
  756TIP3    H1 2232   0.923   2.191   4.696  0.6985 -1.0339  2.3004
  756TIP3    H2 2233   0.824   2.200   4.811  0.1477  0.8598  1.7157
  757TIP3   OH2 2234   4.272   2.331   4.513  0.2268 -0.7013 -0.0120
  757TIP3    H1 2235   4.253   2.310   4.422 -0.0140  0.7130 -0.3119
  757TIP3    H2 2236   4.300   2.422   4.512  0.4071 -0.7141  1.3048
  758TIP3   OH2 2237   1.345   4.906   5.040 -0.2732 -0.0624  0.1983
  758TIP3    H1 2238   1.270   4.952   5.002 -0.1352 -0.6124 -0.7574
  758TIP3    H2 2239   1.324   4.900   5.134  0.1281  2.7688  0.5637
  759TIP3   OH2 2240   4.101   4.685   0.426 -0.7389  0.0333 -0.2572
  759TIP3    H1 2241   4.107   4.638   0.343 -0.3366  0.1045 -0.2736
  759TIP3    H2 2242   4.014   4.666   0.460  0.0039 -2.1365  0.5903
  760TIP3   OH2 2243   0.516   5.792   1.779  0.4348 -0.1610  0.0041
  760TIP3    H1 2244   0.513   5.812   1.873 -0.2771  1.0518 -0.2549
  760TIP3    H2 2245   0.576   5.717   1.772 -1.2448 -1.7521  1.6570
  761TIP3   OH2 2246   1.560   3.544   3.423 -0.0775 -0.1434  0.3905
  761TIP3    H1 2247   1.588   3.468   3.474  2.2654  0.1926 -0.3143
  761TIP3    H2 2248   1.505   3.507   3.354 -0.0597 -1.0332  0.8309
  762TIP3   OH2 2249   4.233   5.711   5.706 -0.1503  0.0333 -0.2686
  762TIP3    H1 2250   4.264   5.761   5.630 -0.2981 -1.3936 -1.3180
  762TIP3    H2 2251   4.137   5.717   5.701 -0.1619 -0.1184 -0.2448
  763TIP3   OH2 2252   2.755   6.426   1.025  0.1273 -0.3100 -0.0698
  763TIP3    H1 2253   2.725   6.360   1.087 -1.5671  1.4448  1.0776
  763TIP3    H2 2254   2.695   6.419   0.951  2.1316 -2.3865 -1.6584
  764TIP3   OH2 2255   5.808   3.351   3.598  0.0861 -0.4657 -0.3881
  764TIP3    H1 2256   5.806   3.439   3.562  1.4094 -0.5896 -0.8448
  764TIP3    H2 2257   5.718   3.332   3.622 -0.3624  0.6829 -1.0881
  765TIP3   OH2 2258   3.028   2.819   0.096 -0.2379  0.3550 -0.1451
  765TIP3    H1 2259   2.967   2.762   0.144 -0.5521  1.2061  0.4868
  765TIP3    H2 2260   3.097   2.839   0.159  0.5604 -0.3662 -0.7691
  766TIP3   OH2 2261   6.227   3.084   0.237 -0.7185  0.3235  0.5564
  766TIP3    H1 2262   6.179   3.003   0.255  0.2728 -0.4958 -0.3697
  766TIP3    H2 2263   6.272   3.104   0.320 -2.0757  0.7320  1.2203
  767TIP3   OH2 2264   7.043   0.538   4.265  0.0370  0.1176  0.1072
  767TIP3    H1 2265   7.064   0.631   4.274  0.2666 -0.1088  2.2560
  767TIP3    H2 2266   7.035   0.506   4.354  1.6798 -2.3318 -0.5181
  768TIP3   OH2 2267   3.028   5.406   3.453 -0.0778  0.3341 -0.8817
  768TIP3    H1 2268   2.994   5.427   3.540  0.8748 -1.4038 -0.0311
  768TIP3    H2 2269   2.976   5.331   3.424  1.1997 -0.6575 -0.7116
  769TIP3   OH2 2270   5.297   1.497   0.891  0.3609 -0.5948 -0.3917
  769TIP3    H1 2271   5.357   1.474   0.961  0.3710  0.8980  0.1361
  769TIP3    H2 2272   5.261   1.582   0.917 -0.1626 -0.3275 -1.8609
  770TIP3   OH2 2273   4.311   5.490   3.698 -0.1893 -0.2840 -0.2995
  770TIP3    H1 2274   4.265   5.564   3.738 -1.2103 -0.7933 -0.5168
  770TIP3    H2 2275   4.256   5.414   3.716  1.1588 -1.1291  0.4999
  771TIP3   OH2 2276   6.155   4.975   4.641  0.0103 -0.1557  0.2258
  771TIP3    H1 2277   6.078   4.940   4.597  0.0415 -1.4963  1.1587
  771TIP3    H2 2278   6.121   5.025   4.715  0.0073  0.0476  0.0853
  772TIP3   OH2 2279   4.142   5.579   3.906  0.8075 -0.5549 -0.6196
  772TIP3    H1 2280   4.183   5.659   3.938  1.8103 -0.9775 -0.8170
  772TIP3    H2 2281   4.164   5.512   3.970  1.5254 -1.0631 -1.3661
  773TIP3   OH2 2282   3.423   0.585   4.582  0.5848 -0.3474  0.2152
  773TIP3    H1 2283   3.513   0.576   4.550  0.3369 -0.9992 -0.3329
  773TIP3    H2 2284   3.422   0.670   4.626  1.2025  0.1327 -0.6505
  774TIP3   OH2 2285   0.089   3.041   3.394  0.0069  0.1280  0.5202
  774TIP3    H1 2286   0.034   3.101   3.344 -0.8738  0.0843  1.3992
  774TIP3    H2 2287   0.096   3.082   3.481  0.1553 -0.5872  0.8541
  775TIP3   OH2 2288   0.224   4.044   1.587 -0.3270  0.9299  0.1964
  775TIP3    H1 2289   0.229   4.046   1.491 -2.3630  0.5605  0.0502
  775TIP3    H2 2290   0.136   4.013   1.606 -0.0506  1.2618  2.2099
  776TIP3   OH2 2291   2.887   5.738   2.234  0.0123  0.8552  0.0638
  776TIP3    H1 2292   2.963   5.795   2.247  0.5636  0.4756 -1.3674
  776TIP3    H2 2293   2.837   5.780   2.164  1.4958 -1.3888 -2.5050
  777TIP3   OH2 2294   1.122   2.502   2.014 -0.2334 -0.1162 -0.0983
  777TIP3    H1 2295   1.036   2.465   1.994 -0.2631  0.7946 -1.7833
  777TIP3    H2 2296   1.166   2.509   1.929  0.8326  1.0716  0.5146
  778TIP3   OH2 2297  -0.019   3.856   3.583  0.4782  0.1971  0.0452
  778TIP3    H1 2298   0.049   3.843   3.517  2.4595 -0.5064  2.1299
  778TIP3    H2 2299   0.002   3.941   3.622  0.1656 -0.0375  0.7251
  779TIP3   OH2 2300   2.010   6.734   2.490 -0.0327  0.0152 -0.0058
  779TIP3    H1 2301   1.946   6.758   2.557 -0.6962 -1.7597  0.0577
  779TIP3    H2 2302   1.993   6.793   2.417 -1.0711  0.2420  0.4113
  780TIP3   OH2 2303   5.213   5.098   4.098  0.2545 -0.5944  0.3638
  780TIP3    H1 2304   5.270   5.151   4.042 -0.9909  0.2006 -0.2206
  780TIP3    H2 2305   5.263   5.086   4.179  3.2166 -3.9750 -1.6999
  781TIP3   OH2 2306   0.803   2.221   1.263  0.5575 -0.3547 -0.0333
  781TIP3    H1 2307   0.798   2.193   1.354  0.1835  0.5519  0.2330
  781TIP3    H2 2308   0.795   2.316   1.266 -0.3439 -0.3720 -1.0748
  782TIP3   OH2 2309   6.828   3.267   2.123  0.6370  0.4664 -0.0432
  782TIP3    H1 2310   6.832   3.342   2.064  0.4027  0.5633  0.0632
  782TIP3    H2 2311   6.743   3.275   2.167  0.5317  0.0413 -0.1607
  783TIP3   OH2 2312   3.948   3.515   0.342 -0.1355 -0.5106 -0.1630
  783TIP3    H1 2313   3.961   3.605   0.312 -0.9016 -0.1850  0.4480
  783TIP3    H2 2314   3.966   3.519   0.436  0.3598 -1.1145 -0.2285
  784TIP3   OH2 2315   2.522   5.284   2.348 -0.5503  0.3688  0.3618
  784TIP3    H1 2316   2.493   5.213   2.291 -0.9267 -0.0316  1.0412
  784TIP3    H2 2317   2.526   5.361   2.290 -2.3959  0.3225  0.0898
  785TIP3   OH2 2318   4.793   1.218   0.556  0.0131  0.3896 -0.3706
  785TIP3    H1 2319   4.747   1.280   0.612  2.5138  1.6981  0.3370
  785TIP3    H2 2320   4.728   1.194   0.489 -1.9396  1.4284  1.0574
  786TIP3   OH2 2321   1.816   2.363   4.243 -0.0261  0.5104  0.2074
  786TIP3    H1 2322   1.798   2.283   4.195  2.2907  0.0370 -0.0126
  786TIP3    H2 2323   1.777   2.432   4.189  0.1014 -0.2640 -0.9239
  787TIP3   OH2 2324   2.460   6.007   2.373 -0.2171  0.7709  0.1013
  787TIP3    H1 2325   2.552   5.992   2.395 -0.1133  0.2808 -0.6586
  787TIP3    H2 2326   2.445   6.099   2.397  0.2129  0.6042  1.0717
  788TIP3   OH2 2327   4.851   6.690   4.356  0.7213  0.3950  0.4995
  788TIP3    H1 2328   4.768   6.662   4.318  1.1753 -2.8577  1.5681
  788TIP3    H2 2329   4.828   6.714   4.446  0.7142  0.9424  0.3502
  789TIP3   OH2 2330   4.234   1.452   4.366 -0.2835  0.1218 -0.2476
  789TIP3    H1 2331   4.304   1.413   4.419  0.9597  1.3742 -0.8832
  789TIP3    H2 2332   4.240   1.545   4.384 -0.8395  0.4030 -1.4106
  790TIP3   OH2 2333   0.158   4.553   1.656 -0.0577  0.3756 -0.0029
  790TIP3    H1 2334   0.210   4.569   1.577  1.2034 -0.2955  0.6677
  790TIP3    H2 2335   0.167   4.633   1.707  0.6646  0.1059  0.2979
  791TIP3   OH2 2336   1.793   0.553   1.837 -0.0786 -0.0232 -0.3358
  791TIP3    H1 2337   1.775   0.488   1.905 -2.0520  0.0975 -0.6922
  791TIP3    H2 2338   1.710   0.564   1.791  1.3062 -0.4945 -3.1464
  792TIP3   OH2 2339   2.724   0.853   5.332  0.2699 -0.2773  0.8346
  792TIP3    H1 2340   2.679   0.913   5.392 -0.6079 -0.6453  0.5685
  792TIP3    H2 2341   2.811   0.840   5.370  0.2038  0.5728  1.2883
  793TIP3   OH2 2342   3.874   2.502   3.301 -0.4482 -0.6819  0.5527
  793TIP3    H1 2343   3.922   2.515   3.383  0.1577  0.0826  0.0952
  793TIP3    H2 2344   3.837   2.588   3.281 -1.7036 -1.1782  0.6965
  794TIP3   OH2 2345   1.591   4.920   4.911  0.1960  0.2306  0.1986
  794TIP3    H1 2346   1.499   4.908   4.933  0.0523 -0.9689 -0.9051
  794TIP3    H2 2347   1.624   4.982   4.975 -1.0358 -0.4089  1.4903
  795TIP3   OH2 2348   1.965   3.671   4.529 -0.0240  0.5275  0.2340
  795TIP3    H1 2349   1.985   3.689   4.437  1.8620 -1.2454  0.2214
  795TIP3    H2 2350   2.051   3.669   4.572 -0.8459  1.1548  2.0323
  796TIP3   OH2 2351   1.938   2.115   5.338  0.0629 -0.0662 -0.4115
  796TIP3    H1 2352   1.973   2.121   5.249 -0.0368  3.0687 -0.3282
  796TIP3    H2 2353   1.849   2.082   5.326  0.7609 -1.8101 -1.2033
  797TIP3   OH2 2354   1.315   0.201   4.127  0.2216 -0.2169  0.8509
  797TIP3    H1 2355   1.333   0.135   4.061  1.0331  0.6625  0.1605
  797TIP3    H2 2356   1.397   0.250   4.135 -0.4664  0.9475  1.0632
  798TIP3   OH2 2357   0.249   4.386   0.198 -0.4786  0.5894 -0.4655
  798TIP3    H1 2358   0.298   4.468   0.189  0.8723  0.3734  3.0946
  798TIP3    H2 2359   0.312   4.317   0.179 -0.0636  0.3680  1.4695
  799TIP3   OH2 2360   5.218   4.114   2.153  0.3392  0.4827  0.5037
  799TIP3    H1 2361   5.147   4.117   2.217 -1.3560 -0.6800 -1.1968
  799TIP3    H2 2362   5.279   4.049   2.187 -2.1866 -2.6658 -0.5002
  800TIP3   OH2 2363   0.411   3.529   0.812 -0.8904  0.3843 -0.1218
  800TIP3    H1 2364   0.329   3.498   0.774 -0.5542 -0.8664  0.1383
  800TIP3    H2 2365   0.409   3.624   0.800 -1.8741  0.2494 -1.0941
  801TIP3   OH2 2366   5.711   4.656   3.789 -0.2247  0.6328 -0.3492
  801TIP3    H1 2367   5.719   4.566   3.757 -1.9909 -1.2939  3.8697
  801TIP3    H2 2368   5.618   4.677   3.779 -0.1619  1.2695  0.3279
  802TIP3   OH2 2369   0.323   4.352   4.143 -0.1391  0.3254 -0.2042
  802TIP3    H1 2370   0.326   4.447   4.131 -0.4614  0.3953  0.2386
  802TIP3    H2 2371   0.291   4.340   4.232 -2.0363 -0.2176 -0.9140
  803TIP3   OH2 2372   3.424   1.324   1.208  0.0694  0.3353  0.0365
  803TIP3    H1 2373   3.498   1.274   1.173  0.6405  0.5224  0.9326
  803TIP3    H2 2374   3.346   1.280   1.173  0.5602 -1.0337  0.6136
  804TIP3   OH2 2375   4.282   4.027   4.904 -0.1951 -0.1496 -0.6536
  804TIP3    H1 2376   4.317   4.009   4.817  0.6886 -2.5188  0.1085
  804TIP3    H2 2377   4.196   3.985   4.905  0.8820 -2.5266  0.3713
  805TIP3   OH2 2378   3.770   4.708   3.009  0.0563  0.1978 -0.5634
  805TIP3    H1 2379   3.773   4.671   3.097  0.7807 -1.0607 -1.0952
  805TIP3    H2 2380   3.767   4.803   3.023 -0.7753 -0.0028  0.8174
  806TIP3   OH2 2381   2.492   6.605   2.410 -0.4343  0.2836 -0.2299
  806TIP3    H1 2382   2.426   6.597   2.341 -0.4627 -0.9663 -0.0972
  806TIP3    H2 2383   2.456   6.555   2.483  0.9211 -1.0340 -0.3913
  807TIP3   OH2 2384   4.526   2.418   5.604 -0.4970 -0.0167 -0.1434
  807TIP3    H1 2385   4.452   2.403   5.544 -0.2272  1.7034 -0.9831
  807TIP3    H2 2386   4.487   2.461   5.680 -0.5923 -0.6257  0.1540
  808TIP3   OH2 2387   4.940   0.235   4.509 -0.1727  0.1479 -0.2094
  808TIP3    H1 2388   4.994   0.168   4.552 -0.3622  2.0526  3.3586
  808TIP3    H2 2389   5.004   0.295   4.471  0.0407 -0.6406 -1.1387
  809TIP3   OH2 2390   3.114   3.612   5.871  0.2304  0.3080  0.2408
  809TIP3    H1 2391   3.074   3.606   5.784 -0.1038  2.6108  0.1676
  809TIP3    H2 2392   3.197   3.566   5.862  0.3706  0.8107 -1.4263
  810TIP3   OH2 2393   6.529   4.016   5.000 -0.0931  0.0301  0.3419
  810TIP3    H1 2394   6.493   4.052   5.081  0.2579  0.0592  0.4855
  810TIP3    H2 2395   6.538   3.923   5.016 -0.3071 -0.0123  0.2275
  811TIP3   OH2 2396   3.191   0.280   4.563 -0.3145  0.2697 -0.2661
  811TIP3    H1 2397   3.231   0.196   4.583  0.3380  0.9109  1.2854
  811TIP3    H2 2398   3.245   0.317   4.493 -0.4662 -0.4807 -0.7859
  812TIP3   OH2 2399   2.423   2.109   2.572  0.1124 -0.0675 -0.4838
  812TIP3    H1 2400   2.422   2.174   2.501  1.2716 -0.9154 -1.3183
  812TIP3    H2 2401   2.421   2.024   2.528 -1.2056 -0.6338  0.5864
  813TIP3   OH2 2402   3.388   4.191   0.913  0.6211 -0.0401  0.1094
  813TIP3    H1 2403   3.455   4.124   0.895  1.7261  1.3938 -1.4715
  813TIP3    H2 2404   3.305   4.147   0.894  1.1887 -1.4325  0.6879
  814TIP3   OH2 2405   4.066   6.319   5.298  0.1970  0.1891 -0.2748
  814TIP3    H1 2406   4.061   6.382   5.226  0.1126  1.0129  0.4415
  814TIP3    H2 2407   4.050   6.371   5.376 -0.4880 -0.8352  0.2829
  815TIP3   OH2 2408   6.181   5.699   2.524  0.9787 -0.0816  0.2211
  815TIP3    H1 2409   6.108   5.735   2.576  0.6004 -0.5903  0.0501
  815TIP3    H2 2410   6.138   5.651   2.453  1.4451 -1.5453  0.8878
  816TIP3   OH2 2411   2.833   1.955   0.570 -0.0902 -0.2552 -0.3886
  816TIP3    H1 2412   2.812   1.978   0.661  0.3166 -0.5505 -0.2197
  816TIP3    H2 2413   2.852   1.862   0.572  3.1366  0.2999 -0.1543
  817TIP3   OH2 2414   5.672   5.678   4.146  0.0967 -0.1788  0.0902
  817TIP3    H1 2415   5.645   5.746   4.208 -2.3319 -1.0858  0.1466
  817TIP3    H2 2416   5.768   5.685   4.142 -0.0083  2.5849  0.7751
  818TIP3   OH2 2417   6.304   2.226   4.597 -0.1580 -0.3306 -0.1649
  818TIP3    H1 2418   6.252   2.151   4.625  1.2817 -0.9527  0.9982
  818TIP3    H2 2419   6.301   2.287   4.671 -0.0163  0.0545 -0.4699
  819TIP3   OH2 2420   3.368   6.340   3.547  0.1390 -0.0276 -0.3701
  819TIP3    H1 2421   3.320   6.284   3.487 -0.4320  1.1311 -1.0377
  819TIP3    H2 2422   3.315   6.341   3.627  1.8467 -3.0979  0.9640
  820TIP3   OH2 2423   2.836   6.326   4.146  0.5266  0.4446 -0.2989
  820TIP3    H1 2424   2.844   6.289   4.234 -2.5129 -1.4672 -0.6582
  820TIP3    H2 2425   2.787   6.408   4.159  1.4260  0.9659 -0.1120
  821TIP3   OH2 2426   2.268   0.710   2.581  0.0263 -0.2896 -0.8840
  821TIP3    H1 2427   2.202   0.657   2.537  1.2703 -1.9127 -0.9073
  821TIP3    H2 2428   2.324   0.742   2.510  2.0515 -2.9318 -0.6451
  822TIP3   OH2 2429   4.788   0.762   2.297 -0.2133  0.3630 -0.0878
  822TIP3    H1 2430   4.756   0.796   2.214 -1.1404 -1.0369 -0.3464
  822TIP3    H2 2431   4.738   0.681   2.311  0.1700  0.3780  1.6589
  823TIP3   OH2 2432   3.768   4.375   4.297 -0.4407 -0.6639 -0.2054
  823TIP3    H1 2433   3.844   4.319   4.286  1.3793  1.6957 -0.6611
  823TIP3    H2 2434   3.763   4.392   4.391 -0.4612 -0.9260 -0.1612
  824TIP3   OH2 2435   0.539   6.784   0.675 -0.3274 -0.3958 -0.2743
  824TIP3    H1 2436   0.480   6.805   0.602  1.4197 -0.3483 -1.7228
  824TIP3    H2 2437   0.623   6.767   0.634  0.9750  0.6084  1.8092
  825TIP3   OH2 2438   6.896   0.370   2.955  0.0017  0.1695  0.1265
  825TIP3    H1 2439   6.901   0.337   3.044 -0.1798 -0.7877 -0.2140
  825TIP3    H2 2440   6.979   0.344   2.915  0.2826  1.0060  0.1466
  826TIP3   OH2 2441   5.993   2.317   1.887  0.7238 -0.3469 -0.1954
  826TIP3    H1 2442   6.074   2.267   1.893 -0.1851 -2.0448 -1.2153
  826TIP3    H2 2443   6.013   2.389   1.827  1.4428 -0.8347 -0.5463
  827TIP3   OH2 2444   6.503   2.211   0.601 -0.3782  0.1726  0.4048
  827TIP3    H1 2445   6.417   2.174   0.585 -0.5029 -0.7348  2.8133
  827TIP3    H2 2446   6.557   2.178   0.529 -1.3894 -1.5544  0.3875
  828TIP3   OH2 2447   2.423   0.350   2.555  1.2357 -0.0899 -0.1948
  828TIP3    H1 2448   2.373   0.393   2.624 -0.5946 -1.0718 -0.8392
  828TIP3    H2 2449   2.488   0.415   2.528 -1.3565  2.2930 -1.1104
  829TIP3   OH2 2450   6.306   0.075   3.843 -0.2555  0.1006  0.3127
  829TIP3    H1 2451   6.216   0.054   3.818 -0.4680 -0.0608  1.1680
  829TIP3    H2 2452   6.358   0.057   3.765 -0.9482  0.0537 -0.1423
  830TIP3   OH2 2453   4.549   2.397   1.554 -0.2858 -0.3185 -0.0865
  830TIP3    H1 2454   4.636   2.429   1.531 -0.7206  2.1222  1.2841
  830TIP3    H2 2455   4.565   2.315   1.601  1.2890  0.0636  0.1083
  831TIP3   OH2 2456   0.455   2.999   5.004  0.4241  0.1978 -0.3837
  831TIP3    H1 2457   0.515   2.927   4.988  1.2187  0.8626 -0.4523
  831TIP3    H2 2458   0.467   3.021   5.097  2.2172  1.9994 -0.9707
  832TIP3   OH2 2459   4.183   1.986   0.710 -0.0438 -0.3586 -0.1483
  832TIP3    H1 2460   4.132   2.065   0.695 -2.4470 -1.1549  2.8950
  832TIP3    H2 2461   4.129   1.915   0.676 -0.3205 -1.0856  1.7198
  833TIP3   OH2 2462   6.214   4.530   5.221  0.2270 -0.1530  0.8684
  833TIP3    H1 2463   6.149   4.587   5.181  1.4867  0.4306 -0.4628
  833TIP3    H2 2464   6.297   4.559   5.184  1.0274 -2.2402  0.8714
  834TIP3   OH2 2465   6.307   3.466   3.606  0.7475  0.0467  0.0647
  834TIP3    H1 2466   6.256   3.547   3.600  1.9383  1.1518  2.9229
  834TIP3    H2 2467   6.250   3.399   3.569 -1.2877  1.7825 -0.1473
  835TIP3   OH2 2468   5.097   3.177   0.088 -0.6012 -0.3519  0.3633
  835TIP3    H1 2469   5.146   3.243   0.137 -0.6757  0.9086 -1.1600
  835TIP3    H2 2470   5.165   3.119   0.052 -0.2910  0.5187 -0.5158
  836TIP3   OH2 2471   2.314   4.166   0.247 -0.2110  0.2516  0.2393
  836TIP3    H1 2472   2.359   4.132   0.170 -1.0750  0.0522 -0.1899
  836TIP3    H2 2473   2.337   4.258   0.250 -0.3129  0.3011 -0.3726
  837TIP3   OH2 2474   7.167   4.359   1.171  0.0669 -0.0088 -0.3145
  837TIP3    H1 2475   7.120   4.440   1.192 -0.2483 -0.2497 -0.0697
  837TIP3    H2 2476   7.182   4.318   1.256  1.2962  0.3686 -0.3226
  838TIP3   OH2 2477   3.790   6.418   4.026  0.4484  0.2032 -1.0264
  838TIP3    H1 2478   3.766   6.345   3.968 -0.5198 -0.6178  0.3370
  838TIP3    H2 2479   3.708   6.465   4.040  0.5584  0.1197  0.0003
  839TIP3   OH2 2480   1.349   6.445   1.366 -0.1906 -0.2266 -0.7539
  839TIP3    H1 2481   1.284   6.475   1.303  0.1560  0.1600 -0.9340
  839TIP3    H2 2482   1.422   6.414   1.312  0.5010  0.9977 -0.5387
  840TIP3   OH2 2483   2.348   1.277   2.284 -0.3104  0.3907  0.6504
  840TIP3    H1 2484   2.382   1.216   2.219  0.0878  1.2066  0.0758
  840TIP3    H2 2485   2.342   1.361   2.238 -0.7928  0.8058  1.4387
  841TIP3   OH2 2486   3.470   3.687   5.787  0.2624 -0.4136 -0.0327
  841TIP3    H1 2487   3.448   3.599   5.756  1.1420 -0.9752  0.8822
  841TIP3    H2 2488   3.566   3.688   5.789  0.2492  0.3858  0.4591
  842TIP3   OH2 2489   2.347   2.608   3.449  0.2206  0.0891  0.0513
  842TIP3    H1 2490   2.404   2.573   3.518 -1.1373 -2.0019  0.1877
  842TIP3    H2 2491   2.311   2.688   3.487  0.7802 -0.1312  1.0954
  843TIP3   OH2 2492   4.199   2.803   1.542 -0.9330  0.6475  0.7085
  843TIP3    H1 2493   4.200   2.862   1.617 -1.7994 -0.2624  1.4695
  843TIP3    H2 2494   4.247   2.726   1.571 -2.2501 -0.1907  0.7678
  844TIP3   OH2 2495   0.114   3.568   5.659 -0.1617 -0.7166  0.2138
  844TIP3    H1 2496   0.110   3.533   5.748 -0.5242  0.1688  0.5493
  844TIP3    H2 2497   0.200   3.608   5.653 -0.3225 -0.3499  0.3309
  845TIP3   OH2 2498   0.770   0.992   2.959 -0.3573 -0.0989 -0.2805
  845TIP3    H1 2499   0.866   0.991   2.957 -0.3648 -0.6702 -1.5496
  845TIP3    H2 2500   0.747   1.072   3.005  0.7287 -0.2345  0.5250
  846TIP3   OH2 2501   3.820   3.461   4.817  0.1228  0.5413 -0.3027
  846TIP3    H1 2502   3.826   3.368   4.840 -3.5148  0.5391  1.3885
  846TIP3    H2 2503   3.794   3.461   4.725  2.5255  0.0658 -1.0477
  847TIP3   OH2 2504   5.953   2.358   2.687 -0.0343 -0.0674  0.0643
  847TIP3    H1 2505   5.871   2.408   2.697 -1.3176 -1.9581 -0.4781
  847TIP3    H2 2506   5.967   2.355   2.592 -0.9533 -2.1273 -0.0631
  848TIP3   OH2 2507   0.837   3.468   1.328  0.3880 -0.0384  0.4111
  848TIP3    H1 2508   0.885   3.513   1.259  0.8681 -1.5595 -0.2974
  848TIP3    H2 2509   0.816   3.382   1.291 -0.5187 -0.4010  1.6860
  849TIP3   OH2 2510   0.078   4.975   2.577  0.1907  0.1446  0.3531
  849TIP3    H1 2511   0.018   5.047   2.558  1.1246  0.4271 -1.7586
  849TIP3    H2 2512   0.158   5.018   2.606  0.5138 -0.0620 -0.2194
  850TIP3   OH2 2513   5.602   6.721   1.873  0.1098 -0.4120 -0.2553
  850TIP3    H1 2514   5.567   6.642   1.832 -0.4672  0.5521 -1.6865
  850TIP3    H2 2515   5.683   6.692   1.916  0.1832 -1.6682 -1.1965
  851TIP3   OH2 2516   0.546   3.009   0.215  0.0276 -0.0122  0.4935
  851TIP3    H1 2517   0.589   2.924   0.207  1.4339  0.6792  0.3664
  851TIP3    H2 2518   0.531   3.037   0.125  2.1104  1.0592  0.3976
  852TIP3   OH2 2519   3.671   4.861   2.472 -1.3540  0.7563  0.3443
  852TIP3    H1 2520   3.622   4.797   2.523  0.7073 -1.5465 -0.3808
  852TIP3    H2 2521   3.683   4.820   2.387  2.2118  0.8689  0.6318
  853TIP3   OH2 2522   1.672   4.327   5.594  0.2514 -0.3893  0.3036
  853TIP3    H1 2523   1.746   4.321   5.654  0.3927 -1.8721  0.0015
  853TIP3    H2 2524   1.644   4.418   5.601  1.1568 -0.1765  1.5441
  854TIP3   OH2 2525   0.751   3.528   5.745 -0.2897 -0.1095  0.2848
  854TIP3    H1 2526   0.815   3.459   5.729  1.4793  1.5070  0.0785
  854TIP3    H2 2527   0.666   3.483   5.741  0.7765 -2.2426  0.1445
  855TIP3   OH2 2528   0.180   3.466   2.188 -0.5360 -0.3074  0.5286
  855TIP3    H1 2529   0.177   3.387   2.242 -1.9450 -0.2350  0.6032
  855TIP3    H2 2530   0.273   3.485   2.178 -0.2140 -1.0703  1.8340
  856TIP3   OH2 2531   1.290   3.830   2.515  0.2669 -0.2576  0.5391
  856TIP3    H1 2532   1.203   3.853   2.546 -0.3600  0.4280 -1.5425
  856TIP3    H2 2533   1.310   3.747   2.559 -0.2457  0.8942  3.0993
  857TIP3   OH2 2534   2.180   1.033   5.099  0.0154 -0.3592 -0.0686
  857TIP3    H1 2535   2.095   1.072   5.080 -0.4307 -0.8559  0.8699
  857TIP3    H2 2536   2.181   1.021   5.194  2.2668  2.3083  0.3864
  858TIP3   OH2 2537   6.934   1.096   1.717 -0.2205  0.1604 -0.0945
  858TIP3    H1 2538   6.986   1.022   1.747 -0.5779  0.2749  0.8588
  858TIP3    H2 2539   6.974   1.172   1.759  1.0549  0.7486 -2.2051
  859TIP3   OH2 2540   5.908   6.299   5.486 -0.0987  0.0186  0.6584
  859TIP3    H1 2541   5.824   6.344   5.471 -0.4922 -1.2202 -1.1689
  859TIP3    H2 2542   5.952   6.353   5.552 -0.7153  2.8805 -1.0579
  860TIP3   OH2 2543   0.340   1.148   3.248  0.6482 -0.0952 -0.5142
  860TIP3    H1 2544   0.378   1.064   3.275  0.3768 -0.1018 -0.1490
  860TIP3    H2 2545   0.318   1.135   3.156  1.0963 -0.2464 -0.6046
  861TIP3   OH2 2546   5.381   4.224   1.619 -0.3504  0.4312  0.0364
  861TIP3    H1 2547   5.391   4.220   1.714 -0.9713  0.4963  0.1069
  861TIP3    H2 2548   5.300   4.176   1.601  0.8916 -1.5440 -0.6627
  862TIP3   OH2 2549   1.628   6.808   2.403  0.3531 -0.1907  0.3387
  862TIP3    H1 2550   1.611   6.722   2.440  1.4814 -0.3994  0.3935
  862TIP3    H2 2551   1.606   6.870   2.473  1.4462 -0.5295  0.9951
  863TIP3   OH2 2552   4.589   4.638   0.005  0.4025  0.0134  0.4786
  863TIP3    H1 2553   4.665   4.687   0.035  0.2860 -0.0740  0.9290
  863TIP3    H2 2554   4.616   4.546   0.009  0.2093 -0.0295  0.8337
  864TIP3   OH2 2555   4.162   0.821   5.113 -0.2771 -0.4116  0.0022
  864TIP3    H1 2556   4.194   0.805   5.202 -0.9470  0.5654  0.4362
  864TIP3    H2 2557   4.079   0.775   5.108 -0.5193  0.0135  0.0803
  865TIP3   OH2 2558   4.611   0.067   2.135  0.2284 -0.3814 -0.0305
  865TIP3    H1 2559   4.681   0.108   2.085 -0.0965  0.4940  0.2112
  865TIP3    H2 2560   4.653  -0.005   2.182  0.9308  0.0309 -0.0131
  866TIP3   OH2 2561   0.005   5.297   4.745  0.1250 -0.1594 -0.4094
  866TIP3    H1 2562   0.012   5.290   4.649  0.6577  1.5029 -0.5312
  866TIP3    H2 2563   0.090   5.331   4.773 -0.5076  0.7617  0.4782
  867TIP3   OH2 2564   5.828   4.138   4.954 -0.5888 -0.0418  0.0800
  867TIP3    H1 2565   5.763   4.203   4.980 -0.0192 -1.0089  4.8632
  867TIP3    H2 2566   5.902   4.189   4.922 -1.5050  1.4269  0.2059
  868TIP3   OH2 2567   2.364   6.664   3.601 -0.3115  0.1920 -0.1475
  868TIP3    H1 2568   2.323   6.622   3.525 -1.2376 -0.2201  0.5510
  868TIP3    H2 2569   2.387   6.751   3.570  0.1173 -0.2544 -1.1473
  869TIP3   OH2 2570   0.744   6.631   2.728  0.0880  0.2953  0.0351
  869TIP3    H1 2571   0.675   6.595   2.784 -1.0199  2.5141  0.2113
  869TIP3    H2 2572   0.776   6.707   2.776  1.5500  0.2432 -0.8094
  870TIP3   OH2 2573   3.129   6.733   4.601 -0.4835 -0.2759 -0.2804
  870TIP3    H1 2574   3.053   6.675   4.610 -0.4194 -0.5017 -1.1053
  870TIP3    H2 2575   3.145   6.737   4.507  1.5277 -1.5533 -0.0707
  871TIP3   OH2 2576   4.179   4.570   2.486 -0.1519  0.2824 -0.2732
  871TIP3    H1 2577   4.233   4.530   2.417  0.9245 -1.0724  1.2666
  871TIP3    H2 2578   4.121   4.500   2.515 -0.1827  0.6453  0.5783
  872TIP3   OH2 2579   0.168   3.851   3.915 -0.0492  0.2132  0.1288
  872TIP3    H1 2580   0.187   3.825   4.006 -0.7550 -0.3589  0.1230
  872TIP3    H2 2581   0.244   3.903   3.889 -0.0387  0.7528  1.1905
  873TIP3   OH2 2582   1.770   1.173   0.158 -0.1062  0.2825 -0.1427
  873TIP3    H1 2583   1.767   1.189   0.063 -2.1578 -0.7762 -0.3016
  873TIP3    H2 2584   1.837   1.234   0.190  0.2684  1.0348 -2.1842
  874TIP3   OH2 2585   4.270   4.570   4.398 -0.2282  0.2992  0.0681
  874TIP3    H1 2586   4.345   4.629   4.406  0.9672 -1.3587  2.4013
  874TIP3    H2 2587   4.307   4.483   4.409 -2.1181 -0.8443 -1.9094
  875TIP3   OH2 2588   7.059   4.984   3.397 -0.3332  0.0564  0.2480
  875TIP3    H1 2589   7.138   5.032   3.370 -0.4526 -0.6366 -1.4377
  875TIP3    H2 2590   6.989   5.048   3.387 -0.1351  0.3502  0.6967
  876TIP3   OH2 2591   3.175   0.742   3.216 -0.1192 -0.0779 -0.1432
  876TIP3    H1 2592   3.206   0.830   3.193  0.5838  0.0624  1.2342
  876TIP3    H2 2593   3.149   0.703   3.132  1.7019  0.6106 -1.0772
  877TIP3   OH2 2594   3.585   2.299   1.375  0.6437 -0.4686  0.1736
  877TIP3    H1 2595   3.578   2.255   1.290  0.4496 -1.8513  0.8718
  877TIP3    H2 2596   3.563   2.231   1.438  0.4630  0.6303  1.3215
  878TIP3   OH2 2597   2.168   0.922   5.811 -0.1390  0.4060  0.0051
  878TIP3    H1 2598   2.202   0.841   5.772 -1.4002 -0.9203  1.5101
  878TIP3    H2 2599   2.220   0.935   5.890  0.2670  1.2794 -0.3876
  879TIP3   OH2 2600   2.362   1.843   3.647 -0.1332  0.4680  0.5065
  879TIP3    H1 2601   2.387   1.908   3.713 -2.5331  1.9160  0.1314
  879TIP3    H2 2602   2.313   1.894   3.581 -0.5326 -1.4436 -0.7532
  880TIP3   OH2 2603   4.486   0.742   0.615 -0.0414  0.3939  0.7536
  880TIP3    H1 2604   4.397   0.778   0.606 -0.3702  0.1809  2.6486
  880TIP3    H2 2605   4.487   0.705   0.703  1.0066 -2.2608 -0.2638
  881TIP3   OH2 2606   0.542   6.500   2.856 -0.0684  0.2681 -0.0376
  881TIP3    H1 2607   0.549   6.455   2.940  0.6055 -1.1018 -0.8000
  881TIP3    H2 2608   0.538   6.430   2.791 -3.5007  1.1582 -1.0187
  882TIP3   OH2 2609   5.124   3.407   5.263 -0.7813  0.0326  0.1678
  882TIP3    H1 2610   5.183   3.429   5.335 -0.6474 -2.6448  0.9819
  882TIP3    H2 2611   5.166   3.443   5.185  1.4178 -0.8668  0.8640
  883TIP3   OH2 2612   0.935   6.620   0.833 -0.1335 -0.0960  0.3216
  883TIP3    H1 2613   0.901   6.702   0.869  0.4943 -0.0491  0.8189
  883TIP3    H2 2614   1.015   6.645   0.786 -1.9154  0.1794 -2.9092
  884TIP3   OH2 2615   7.030   2.088   3.866  0.5943 -0.3445 -0.2725
  884TIP3    H1 2616   6.944   2.045   3.867  0.9830 -1.1373  0.3750
  884TIP3    H2 2617   7.015   2.172   3.907  0.6114 -1.5118  2.2857
  885TIP3   OH2 2618   2.387   5.313   1.215 -0.5095 -0.4210  0.8088
  885TIP3    H1 2619   2.449   5.382   1.191  0.9811 -1.7950  0.5994
  885TIP3    H2 2620   2.358   5.276   1.132  2.3485 -3.1620  0.8842
  886TIP3   OH2 2621   6.394   4.769   3.106  0.4375  0.1031  0.2884
  886TIP3    H1 2622   6.406   4.852   3.152  0.5103  0.1534  0.1791
  886TIP3    H2 2623   6.471   4.717   3.128  0.5047  0.1518  0.1736
  887TIP3   OH2 2624   2.024   0.655   0.046  0.3665  0.5589 -0.0136
  887TIP3    H1 2625   2.087   0.585   0.027  0.5482  0.8825 -0.6089
  887TIP3    H2 2626   2.027   0.712  -0.030 -2.0702 -0.4397 -0.9721
  888TIP3   OH2 2627   6.876   1.287   4.732 -0.7590  0.2048  0.7140
  888TIP3    H1 2628   6.910   1.277   4.821  2.3998  1.6141 -0.1747
  888TIP3    H2 2629   6.892   1.203   4.690  2.7407  0.9723  0.1339
  889TIP3   OH2 2630   4.199   2.173   2.261 -0.2886 -0.0075  0.2537
  889TIP3    H1 2631   4.171   2.082   2.257  1.2123 -0.4870 -0.1216
  889TIP3    H2 2632   4.293   2.169   2.280  0.5290  1.2940 -2.8132
  890TIP3   OH2 2633   6.357   6.296   2.860 -0.1788 -0.1769  0.2929
  890TIP3    H1 2634   6.433   6.337   2.902 -0.4295  0.0386  0.5344
  890TIP3    H2 2635   6.298   6.369   2.841  0.3346 -0.1368 -1.2856
  891TIP3   OH2 2636   2.987   4.277   2.209  0.1460 -0.3970 -0.2910
  891TIP3    H1 2637   2.955   4.190   2.234  0.9928 -0.2285  1.5313
  891TIP3    H2 2638   3.033   4.308   2.287 -0.5832  1.9102 -0.7207
  892TIP3   OH2 2639   4.708   1.565   2.745 -0.3390  0.3942  0.1334
  892TIP3    H1 2640   4.737   1.474   2.734  0.0288  0.5317 -0.0256
  892TIP3    H2 2641   4.640   1.560   2.813 -0.0680  0.0489  0.3821
  893TIP3   OH2 2642   0.672   3.557   2.163 -0.0716  0.2863 -0.7517
  893TIP3    H1 2643   0.583   3.591   2.167  0.1537  0.9030 -0.7132
  893TIP3    H2 2644   0.667   3.469   2.199 -0.5908  0.4813 -0.3387
  894TIP3   OH2 2645   3.762   6.423   0.822 -0.3430 -0.4879 -0.4936
  894TIP3    H1 2646   3.854   6.443   0.808 -0.9100  2.9109 -0.2867
  894TIP3    H2 2647   3.738   6.368   0.747  1.5310 -0.3111 -1.2813
  895TIP3   OH2 2648   3.308   1.697   0.218  0.4636  0.1120 -0.4213
  895TIP3    H1 2649   3.263   1.725   0.138 -0.4742  4.4859  1.3483
  895TIP3    H2 2650   3.238   1.691   0.284  1.5330 -0.8377  0.6882
  896TIP3   OH2 2651   5.100   4.698   5.481 -0.0465  0.0866 -0.2455
  896TIP3    H1 2652   5.140   4.774   5.524 -0.0103 -0.2483  0.3140
  896TIP3    H2 2653   5.169   4.663   5.425 -0.0501  0.4377 -0.4766
  897TIP3   OH2 2654   6.993   3.884   0.489  0.3928  0.1570  0.5878
  897TIP3    H1 2655   7.008   3.961   0.544  1.1243  0.5528 -0.1543
  897TIP3    H2 2656   7.013   3.810   0.547  0.4739  0.5413  1.0596
  898TIP3   OH2 2657   0.705   1.137   4.138 -0.1411 -0.1721  0.3532
  898TIP3    H1 2658   0.682   1.127   4.230  0.9750 -0.9796  0.5765
  898TIP3    H2 2659   0.785   1.085   4.128 -0.1106  0.0966 -1.0176
  899TIP3   OH2 2660   4.865   5.751   1.601 -0.0118  0.1222 -0.5145
  899TIP3    H1 2661   4.787   5.698   1.583 -1.2843  0.8862  2.2210
  899TIP3    H2 2662   4.938   5.695   1.575 -1.4053 -1.6279 -0.8596
  900TIP3   OH2 2663   3.748   3.669   5.754  0.2527 -0.0633 -0.0063
  900TIP3    H1 2664   3.766   3.615   5.677  3.2315  0.5696  0.1287
  900TIP3    H2 2665   3.759   3.609   5.828 -0.6804 -0.2144  0.0235
  901TIP3   OH2 2666   3.191   2.091   3.185 -0.4153  0.1390  0.0818
  901TIP3    H1 2667   3.232   2.171   3.217  0.5821 -0.2834 -0.1071
  901TIP3    H2 2668   3.130   2.121   3.117  1.1418  0.6378 -1.1578
  902TIP3   OH2 2669   4.820   0.474   0.417  0.2076  0.0633  0.5148
  902TIP3    H1 2670   4.726   0.489   0.426  0.1932 -0.5569  1.4417
  902TIP3    H2 2671   4.860   0.558   0.441 -0.0772  0.1639  0.6417
  903TIP3   OH2 2672   3.621   4.359   0.184 -0.0017  0.2471 -0.1975
  903TIP3    H1 2673   3.638   4.434   0.127  0.3692 -0.2194 -0.7126
  903TIP3    H2 2674   3.689   4.363   0.251 -1.2913  1.6351  1.1127
  904TIP3   OH2 2675   5.302   2.772   1.061 -0.0500  0.5889  0.3071
  904TIP3    H1 2676   5.289   2.683   1.027 -2.4616  0.6235  0.9434
  904TIP3    H2 2677   5.343   2.759   1.146  1.1750  0.2039 -0.3214
  905TIP3   OH2 2678   5.353   3.020   3.273 -0.2895 -0.5755 -0.1765
  905TIP3    H1 2679   5.287   3.031   3.204 -1.5177 -2.0387  0.6891
  905TIP3    H2 2680   5.387   2.932   3.258  0.0324 -0.5836  0.5898
  906TIP3   OH2 2681   4.181   4.547   4.128  0.6909  0.1972  0.3622
  906TIP3    H1 2682   4.202   4.552   4.222  0.8035  1.0755  0.2938
  906TIP3    H2 2683   4.089   4.522   4.126  0.7055  0.1072  0.7103
  907TIP3   OH2 2684   4.481   2.066   3.534 -0.1866 -0.0776 -0.6429
  907TIP3    H1 2685   4.456   2.141   3.588  2.2582  0.8995 -0.7423
  907TIP3    H2 2686   4.548   2.021   3.585 -0.9562 -1.7156 -0.9980
  908TIP3   OH2 2687   1.642   1.537   2.338 -0.4369 -0.0842  0.0353
  908TIP3    H1 2688   1.572   1.597   2.363  0.8308  1.2411  0.5589
  908TIP3    H2 2689   1.599   1.452   2.326 -2.0810  0.6609  0.4896
  909TIP3   OH2 2690   3.471   6.103   4.775  0.3035 -0.4810 -0.4519
  909TIP3    H1 2691   3.488   6.178   4.831 -1.6896  0.1033 -0.5332
  909TIP3    H2 2692   3.556   6.080   4.737  0.6769  3.2756 -2.3487
  910TIP3   OH2 2693   3.428   0.386   5.319 -0.2689 -0.2676  0.9056
  910TIP3    H1 2694   3.437   0.343   5.235  0.9831  0.5012  0.6262
  910TIP3    H2 2695   3.333   0.395   5.332 -0.4711 -0.2052 -0.5104
  911TIP3   OH2 2696   1.913   6.198   0.426 -0.1782 -0.0607 -0.0793
  911TIP3    H1 2697   1.999   6.200   0.383 -0.2341 -1.8277 -0.3735
  911TIP3    H2 2698   1.902   6.106   0.451 -1.4488  0.3850  1.0815
  912TIP3   OH2 2699   5.775   4.522   2.219 -0.6096 -0.0407 -0.0937
  912TIP3    H1 2700   5.756   4.488   2.131 -0.3012 -0.7473  0.1061
  912TIP3    H2 2701   5.776   4.445   2.275  2.0151 -0.0116  0.0498
  913TIP3   OH2 2702   3.109   3.222   5.461  0.1886  0.1412 -0.1626
  913TIP3    H1 2703   3.016   3.203   5.474  0.3930 -0.9325 -0.1805
  913TIP3    H2 2704   3.152   3.136   5.462  1.3101  0.6867  0.8404
  914TIP3   OH2 2705   2.991   2.566   4.696  0.1892 -0.3176  0.5600
  914TIP3    H1 2706   3.075   2.593   4.659  0.1777 -0.5149  0.3879
  914TIP3    H2 2707   3.014   2.522   4.778  0.1494  1.0351  1.3258
  915TIP3   OH2 2708   5.132   2.999   1.533 -0.3198  0.1310 -0.0987
  915TIP3    H1 2709   5.123   2.912   1.572 -2.2819 -0.0834 -0.9181
  915TIP3    H2 2710   5.108   2.987   1.441 -1.2447  1.6382 -0.0850
  916TIP3   OH2 2711   6.335   0.976   3.754  0.3641 -0.1147 -0.4015
  916TIP3    H1 2712   6.415   1.003   3.800 -0.2385 -1.8414  1.8470
  916TIP3    H2 2713   6.266   0.985   3.820 -1.2955  1.0260 -2.1978
  917TIP3   OH2 2714   2.932   4.267   5.514  0.1389  0.2094  0.2217
  917TIP3    H1 2715   2.950   4.181   5.477 -0.8957  0.0072  0.1641
  917TIP3    H2 2716   3.001   4.280   5.580  0.3763 -0.6014  0.1345
  918TIP3   OH2 2717   4.044   3.704   4.711 -0.1655  0.7446 -0.0710
  918TIP3    H1 2718   4.052   3.746   4.626 -1.2946 -1.3249 -1.2829
  918TIP3    H2 2719   3.954   3.673   4.714  0.7402 -2.1574  0.3666
  919TIP3   OH2 2720   6.419   1.092   4.040  0.0543 -0.1993 -0.5731
  919TIP3    H1 2721   6.491   1.041   4.003 -0.1721 -0.8085 -0.1919
  919TIP3    H2 2722   6.391   1.041   4.116 -0.6096  0.1642 -0.5715
  920TIP3   OH2 2723   0.927   0.015   1.627  0.0654  0.1748  1.0751
  920TIP3    H1 2724   0.964   0.050   1.709 -1.7507  0.5994  1.7545
  920TIP3    H2 2725   0.851  -0.035   1.655  0.7747 -1.7284 -0.1775
  921TIP3   OH2 2726   6.183   5.732   4.582 -0.2423 -0.4377  0.2045
  921TIP3    H1 2727   6.152   5.787   4.510  2.5512  1.4027  0.2365
  921TIP3    H2 2728   6.170   5.642   4.551 -1.1420  0.2782 -1.6391
  922TIP3   OH2 2729   1.152   2.491   1.723 -0.1525 -0.3764  0.3602
  922TIP3    H1 2730   1.072   2.533   1.753 -2.1337 -2.4333 -1.6843
  922TIP3    H2 2731   1.156   2.509   1.629  0.8837 -1.6584  0.1220
  923TIP3   OH2 2732   2.614   2.420   3.281 -0.0441  0.1920  0.4741
  923TIP3    H1 2733   2.568   2.500   3.254 -0.7672 -0.8068 -1.4393
  923TIP3    H2 2734   2.545   2.353   3.284  0.6939 -0.5586  1.2420
  924TIP3   OH2 2735   2.028   2.206   1.625  0.2940  0.2454 -0.0914
  924TIP3    H1 2736   1.992   2.129   1.670  0.3879 -0.1057 -0.6057
  924TIP3    H2 2737   2.037   2.178   1.534 -0.6620  1.2009 -0.5024
  925TIP3   OH2 2738   5.499   1.833   0.877  0.0426  0.0651  0.6055
  925TIP3    H1 2739   5.464   1.909   0.925  0.8877 -0.5144  2.2123
  925TIP3    H2 2740   5.582   1.864   0.841 -0.3636  0.3552 -0.1078
  926TIP3   OH2 2741   5.022   5.895   3.005 -0.0409  0.2918  0.3878
  926TIP3    H1 2742   5.035   5.824   3.067  2.7809 -2.4029 -2.8691
  926TIP3    H2 2743   4.930   5.919   3.015 -0.1746 -1.2066  4.1734
  927TIP3   OH2 2744   1.237   6.218   2.710  0.5086  0.4039 -0.2964
  927TIP3    H1 2745   1.150   6.247   2.683  1.0017  0.9935 -1.2899
  927TIP3    H2 2746   1.234   6.221   2.806 -1.1100 -1.2492 -0.2344
  928TIP3   OH2 2747   3.353   0.036   4.583 -0.7923  0.4534  0.4465
  928TIP3    H1 2748   3.403   0.045   4.665 -0.9326 -1.2809  0.7515
  928TIP3    H2 2749   3.410  -0.016   4.526 -1.2677  0.4815 -0.0589
  929TIP3   OH2 2750   6.342   2.717   4.488 -0.4826  0.1078  0.0763
  929TIP3    H1 2751   6.393   2.791   4.521 -0.1865  0.2607 -0.7062
  929TIP3    H2 2752   6.309   2.673   4.567 -0.4533  0.9236  0.5495
  930TIP3   OH2 2753   4.308   3.793   0.265  0.4844 -0.4295 -0.0096
  930TIP3    H1 2754   4.274   3.715   0.307  0.7112  0.6970  2.4475
  930TIP3    H2 2755   4.381   3.762   0.212  1.0675 -1.8275  1.5101
  931TIP3   OH2 2756   7.009   2.348   4.132  0.2820 -0.1785  0.4396
  931TIP3    H1 2757   6.936   2.357   4.070  1.3457  0.9917 -0.7099
  931TIP3    H2 2758   6.967   2.328   4.215 -1.2221 -1.6390 -0.5933
  932TIP3   OH2 2759   5.642   6.821   3.544 -0.5099 -0.1363  0.1075
  932TIP3    H1 2760   5.564   6.819   3.489 -0.3229 -0.9724 -0.1403
  932TIP3    H2 2761   5.634   6.744   3.601  0.1950 -0.3059 -0.0143
  933TIP3   OH2 2762   6.397   5.520   2.780  0.4592  0.1557 -0.1124
  933TIP3    H1 2763   6.308   5.499   2.810  0.8464 -1.0835  0.2236
  933TIP3    H2 2764   6.431   5.579   2.847 -0.4961  1.6070 -0.8412
  934TIP3   OH2 2765   0.118   2.706   3.044  0.5887  0.0575 -0.3053
  934TIP3    H1 2766   0.107   2.629   2.989 -2.4015 -0.4887  0.8252
  934TIP3    H2 2767   0.064   2.773   3.001 -2.1655 -0.5060  1.9290
  935TIP3   OH2 2768   5.485   4.169   5.552  0.2751 -0.4082  0.0563
  935TIP3    H1 2769   5.407   4.133   5.510  1.1655 -2.6884  0.1641
  935TIP3    H2 2770   5.551   4.169   5.483  0.6942 -0.3733  0.4561
  936TIP3   OH2 2771   6.689   2.970   5.209 -0.5240 -0.2971  0.6424
  936TIP3    H1 2772   6.777   2.970   5.247  1.0330  0.8643 -2.5554
  936TIP3    H2 2773   6.648   3.049   5.243  0.1975 -0.1233  1.1262
  937TIP3   OH2 2774   3.710   5.260   1.224 -0.0581  0.2123  0.0928
  937TIP3    H1 2775   3.785   5.232   1.276  0.4762 -1.4090 -1.4585
  937TIP3    H2 2776   3.727   5.227   1.136 -2.4405  0.0505 -0.3852
  938TIP3   OH2 2777   1.260   3.535   1.545  0.3922  0.5103 -0.3625
  938TIP3    H1 2778   1.174   3.501   1.568  0.2199  1.0570 -0.1814
  938TIP3    H2 2779   1.317   3.458   1.545 -0.1990  0.0511 -1.0214
  939TIP3   OH2 2780   0.871   2.390   4.467  0.0460 -0.7897  0.4955
  939TIP3    H1 2781   0.789   2.390   4.418 -0.9375  1.8635  1.9422
  939TIP3    H2 2782   0.845   2.404   4.558  2.0969  0.7909  0.9154
  940TIP3   OH2 2783   6.575   5.659   0.283  0.5317  0.7213 -0.3139
  940TIP3    H1 2784   6.608   5.721   0.218  0.0328  0.9555 -0.3509
  940TIP3    H2 2785   6.499   5.619   0.242  0.8718  0.0571 -0.2977
  941TIP3   OH2 2786   1.799   2.947   4.990  0.0099  0.2380  0.1273
  941TIP3    H1 2787   1.712   2.975   5.020 -0.1510 -0.6133  0.5068
  941TIP3    H2 2788   1.854   3.024   5.000 -0.6896  0.7698 -0.0471
  942TIP3   OH2 2789   1.413   0.789   3.109  0.4093  0.0593 -0.0530
  942TIP3    H1 2790   1.406   0.835   3.193 -0.9484 -0.8811  0.3955
  942TIP3    H2 2791   1.349   0.718   3.116 -0.2507  0.3735 -2.1545
  943TIP3   OH2 2792   2.701   1.756   3.960  0.1545  0.0206  0.5668
  943TIP3    H1 2793   2.727   1.845   3.983  0.0341 -0.3968  2.4807
  943TIP3    H2 2794   2.746   1.701   4.024 -1.3203 -1.1292  0.6568
  944TIP3   OH2 2795   0.791   0.214   4.741 -0.6065  0.0024  0.1429
  944TIP3    H1 2796   0.885   0.205   4.723 -0.5831  1.0185 -0.2955
  944TIP3    H2 2797   0.753   0.132   4.710  0.4986 -1.8381  3.1666
  945TIP3   OH2 2798   5.001   1.050   1.735  0.3848  0.1442 -0.3101
  945TIP3    H1 2799   4.960   0.974   1.693  0.8083  0.6575 -1.7213
  945TIP3    H2 2800   5.071   1.013   1.788  0.7274 -0.4546 -1.1544
  946TIP3   OH2 2801   3.100   4.757   1.869 -0.3069  0.0955  0.3395
  946TIP3    H1 2802   3.035   4.800   1.925  0.1472  1.4028 -0.1091
  946TIP3    H2 2803   3.165   4.825   1.850 -0.9350  0.0285 -2.5667
  947TIP3   OH2 2804   1.987   1.275   1.322  0.1850  0.7411 -0.2372
  947TIP3    H1 2805   1.928   1.350   1.329  0.3040  0.8984 -0.8597
  947TIP3    H2 2806   2.053   1.291   1.390 -0.8440  0.2196  0.9236
  948TIP3   OH2 2807   2.252   0.092   3.921 -0.4492  0.1315 -0.2552
  948TIP3    H1 2808   2.278   0.184   3.914 -2.4529  0.9900  2.2052
  948TIP3    H2 2809   2.165   0.089   3.880 -1.1955 -0.2249  1.3060
  949TIP3   OH2 2810   6.704   4.818   0.081  0.2508 -0.0427 -0.3165
  949TIP3    H1 2811   6.752   4.788   0.158 -1.6832  0.4854  1.1925
  949TIP3    H2 2812   6.612   4.821   0.109 -0.5422  0.1664 -2.6594
  950TIP3   OH2 2813   5.706   6.548   5.829  0.1181  0.2875  0.3890
  950TIP3    H1 2814   5.754   6.599   5.764 -0.5842  0.4461 -0.0159
  950TIP3    H2 2815   5.616   6.548   5.797 -0.0772 -0.3406  0.9287
  951TIP3   OH2 2816   4.203   2.974   4.528  0.3785  0.2581 -0.1751
  951TIP3    H1 2817   4.249   3.017   4.599 -0.6659  0.4832  0.3846
  951TIP3    H2 2818   4.164   2.896   4.568  0.1235  0.1665 -0.5888
  952TIP3   OH2 2819   6.820   5.083   3.859 -0.5264  0.2034  0.4338
  952TIP3    H1 2820   6.822   5.008   3.918  0.9274  1.4390  2.0702
  952TIP3    H2 2821   6.731   5.118   3.868 -0.4382  0.1471  1.6504
  953TIP3   OH2 2822   0.700   3.158   5.576  0.3818  0.0733  0.0886
  953TIP3    H1 2823   0.748   3.076   5.575  0.2947  0.0231 -0.0395
  953TIP3    H2 2824   0.753   3.217   5.629  0.3948 -0.0960  0.2660
  954TIP3   OH2 2825   5.253   6.341   0.274 -0.5544 -0.4401  0.2116
  954TIP3    H1 2826   5.229   6.248   0.267  0.8787 -0.7152 -2.1540
  954TIP3    H2 2827   5.170   6.387   0.285 -1.5111 -1.8398 -0.8452
  955TIP3   OH2 2828   2.774   2.126   1.511 -0.2605  0.4112 -0.1927
  955TIP3    H1 2829   2.700   2.179   1.481 -1.5535 -1.0797  0.1886
  955TIP3    H2 2830   2.852   2.176   1.487 -1.4014  2.1466 -0.3881
  956TIP3   OH2 2831   0.670   6.337   4.600 -0.0656  0.6516 -0.3240
  956TIP3    H1 2832   0.704   6.304   4.517 -0.4242  0.6289 -0.4649
  956TIP3    H2 2833   0.730   6.407   4.625  0.6061  0.0124 -0.1079
  957TIP3   OH2 2834   3.856   5.503   4.178 -0.3547 -0.4411 -0.1167
  957TIP3    H1 2835   3.851   5.471   4.088  1.6202  0.4610 -0.5986
  957TIP3    H2 2836   3.824   5.593   4.173 -1.4850 -0.7907  0.3689
  958TIP3   OH2 2837   5.537   1.402   4.351 -0.3109  0.3020  0.1739
  958TIP3    H1 2838   5.482   1.470   4.312 -1.4001 -0.6447  0.0359
  958TIP3    H2 2839   5.493   1.320   4.331 -0.9852 -0.2480  3.4445
  959TIP3   OH2 2840   3.122   1.994   4.437 -0.0509 -0.5470 -0.0808
  959TIP3    H1 2841   3.198   1.960   4.390  0.1164  0.6138 -0.7017
  959TIP3    H2 2842   3.097   2.072   4.387 -1.0894 -0.4039  0.6411
  960TIP3   OH2 2843   5.422   6.574   0.853 -0.7351 -0.0079 -0.1459
  960TIP3    H1 2844   5.420   6.621   0.769 -0.8563 -0.9064 -0.6598
  960TIP3    H2 2845   5.351   6.510   0.846 -0.1353 -0.7274  0.2659
  961TIP3   OH2 2846   6.179   3.295   0.542  0.7110 -0.1210 -0.0889
  961TIP3    H1 2847   6.267   3.258   0.530 -0.4224 -2.8305 -0.7136
  961TIP3    H2 2848   6.184   3.343   0.625  2.9548  0.4988 -0.5035
  962TIP3   OH2 2849   1.004   6.569   1.777 -0.1099  0.4652 -0.0548
  962TIP3    H1 2850   1.033   6.599   1.864 -1.1322  0.8093  0.1802
  962TIP3    H2 2851   1.010   6.474   1.782  1.1064  0.5229 -0.0689
  963TIP3   OH2 2852   4.140   1.110   3.016  0.1083  0.8131  0.1891
  963TIP3    H1 2853   4.124   1.016   3.012 -0.7625  0.9679 -0.2584
  963TIP3    H2 2854   4.180   1.124   3.102  1.0593 -0.0712 -0.0866
  964TIP3   OH2 2855   2.193   6.493   1.454  0.0229 -0.3547 -0.1429
  964TIP3    H1 2856   2.171   6.475   1.363  1.8287  0.1036 -0.7241
  964TIP3    H2 2857   2.234   6.580   1.452  0.0824 -0.3347  1.1001
  965TIP3   OH2 2858   5.636   3.869   3.074  0.0566  0.0887 -0.2719
  965TIP3    H1 2859   5.704   3.900   3.015  0.4977 -0.7193 -0.1885
  965TIP3    H2 2860   5.571   3.940   3.074  0.0762  0.1359 -1.6652
  966TIP3   OH2 2861   3.198   1.195   1.131  0.3835  0.2685 -0.3089
  966TIP3    H1 2862   3.155   1.171   1.049  0.3746 -2.1129  0.3020
  966TIP3    H2 2863   3.162   1.133   1.195  2.4148  0.2349  0.8706
  967TIP3   OH2 2864   4.809   2.449   1.128  0.1044 -0.1998 -0.6595
  967TIP3    H1 2865   4.825   2.533   1.086 -1.2182  0.4704  0.0878
  967TIP3    H2 2866   4.769   2.395   1.060 -1.0800  0.5334 -0.5733
  968TIP3   OH2 2867   5.996   4.928   1.924 -0.4994 -0.3457  0.4531
  968TIP3    H1 2868   5.928   4.862   1.937 -0.3895 -0.3680  0.9559
  968TIP3    H2 2869   5.996   4.979   2.005  0.6616 -0.8835  0.8173
  969TIP3   OH2 2870   2.429   6.336   1.326  0.2572 -0.3299  0.6462
  969TIP3    H1 2871   2.508   6.286   1.305 -0.1781 -1.3613  1.4009
  969TIP3    H2 2872   2.449   6.425   1.299  0.8475 -1.0039 -1.2532
  970TIP3   OH2 2873   6.131   4.051   0.513  0.1553 -0.1041 -0.3423
  970TIP3    H1 2874   6.173   4.023   0.431  0.0230  0.9682 -0.7921
  970TIP3    H2 2875   6.195   4.029   0.581  0.0387 -1.5230 -0.6473
  971TIP3   OH2 2876   3.379   5.607   0.034 -0.1452 -0.0765  0.1357
  971TIP3    H1 2877   3.465   5.645   0.017 -0.3817  0.6102  0.4464
  971TIP3    H2 2878   3.316   5.673   0.003 -0.5633  0.1636  1.4173
  972TIP3   OH2 2879   1.348   6.708   1.764  0.3260  0.1807  0.0687
  972TIP3    H1 2880   1.313   6.621   1.783 -0.3907  0.6202  0.8538
  972TIP3    H2 2881   1.282   6.749   1.707 -0.2668  0.8656  1.2166
  973TIP3   OH2 2882   6.153   3.557   1.262  0.1131 -0.7420 -0.2520
  973TIP3    H1 2883   6.232   3.503   1.254  1.2922  0.6336  1.2954
  973TIP3    H2 2884   6.096   3.506   1.320  0.9794 -0.6097  0.7545
  974TIP3   OH2 2885   4.912   4.963   1.331  0.5446  0.2518 -0.2219
  974TIP3    H1 2886   4.870   4.904   1.393  0.7072 -1.9829 -2.0904
  974TIP3    H2 2887   4.855   5.040   1.328 -1.6201 -1.2652 -0.2299
  975TIP3   OH2 2888   5.649   4.823   5.103 -0.0413 -0.3385  0.8860
  975TIP3    H1 2889   5.704   4.747   5.082 -0.9065 -1.2341  1.7239
  975TIP3    H2 2890   5.680   4.853   5.188 -1.1926 -1.2478  1.6733
  976TIP3   OH2 2891   4.310   1.850   1.354 -0.0519 -0.1129 -0.2181
  976TIP3    H1 2892   4.379   1.787   1.333 -0.6772 -0.9518  0.1821
  976TIP3    H2 2893   4.230   1.797   1.359 -0.4805  0.6032  0.7865
  977TIP3   OH2 2894   5.136   1.283   5.789 -0.4259  0.1459  0.2477
  977TIP3    H1 2895   5.058   1.245   5.750 -1.2666 -0.7216  2.6024
  977TIP3    H2 2896   5.103   1.355   5.843  0.5277  0.4503  0.4488
  978TIP3   OH2 2897   3.657   6.112   4.275  0.5689 -0.2930  0.1524
  978TIP3    H1 2898   3.590   6.180   4.266  1.4366  0.7636  1.3199
  978TIP3    H2 2899   3.734   6.158   4.308  1.3901 -1.7426  0.3422
  979TIP3   OH2 2900   2.696   6.501   2.284  0.1314  0.2531 -0.3396
  979TIP3    H1 2901   2.628   6.541   2.339 -0.0231 -0.4736  0.0138
  979TIP3    H2 2902   2.767   6.481   2.345 -0.4727 -1.5503 -0.1786
  980TIP3   OH2 2903   5.673   4.203   0.466  0.9602  0.3785 -0.1351
  980TIP3    H1 2904   5.605   4.140   0.490  1.3061 -1.0789 -2.5813
  980TIP3    H2 2905   5.629   4.288   0.469 -1.2036 -0.5531 -2.0977
  981TIP3   OH2 2906   5.169   6.430   5.359 -0.0462  0.6027 -0.1763
  981TIP3    H1 2907   5.194   6.497   5.295 -1.6669 -1.7561 -3.5519
  981TIP3    H2 2908   5.094   6.468   5.406  0.5280  1.9955 -0.3357
  982TIP3   OH2 2909   6.723   2.189   0.102  0.3843  0.9331 -0.9709
  982TIP3    H1 2910   6.631   2.215   0.107 -0.0486 -0.3086 -2.0516
  982TIP3    H2 2911   6.765   2.258   0.051 -0.0219  1.2976 -0.8165
  983TIP3   OH2 2912   3.253   6.479   2.938  0.2433  0.0554 -0.4459
  983TIP3    H1 2913   3.219   6.425   3.009 -3.3869  2.3458 -0.2187
  983TIP3    H2 2914   3.238   6.426   2.859 -0.2385 -0.5804  0.0611
  984TIP3   OH2 2915   4.811   4.933   1.986 -0.4046 -0.3047  0.4523
  984TIP3    H1 2916   4.781   4.896   2.070  1.4409 -1.2005  0.7718
  984TIP3    H2 2917   4.872   5.002   2.011 -1.9621  1.3840 -0.1844
  985TIP3   OH2 2918   4.256   1.730   3.674 -0.5619  0.1695 -0.4696
  985TIP3    H1 2919   4.232   1.808   3.723  0.9747  0.3534  0.0442
  985TIP3    H2 2920   4.182   1.715   3.615 -0.7206  2.2482 -0.8697
  986TIP3   OH2 2921   1.794   3.285   5.123  0.1650  0.4042  0.5048
  986TIP3    H1 2922   1.841   3.311   5.203 -0.0837 -1.2970  1.2536
  986TIP3    H2 2923   1.702   3.296   5.145  0.1047  0.2391  0.3333
  987TIP3   OH2 2924   0.629   2.726   0.270  0.1216  0.3698 -0.2527
  987TIP3    H1 2925   0.626   2.767   0.356  0.7684  0.6824 -0.3783
  987TIP3    H2 2926   0.539   2.696   0.255 -0.0723  0.6263  0.3768
  988TIP3   OH2 2927   1.135   1.299   4.628 -0.1694 -0.1249 -0.0231
  988TIP3    H1 2928   1.124   1.355   4.705 -1.1192 -0.1530 -0.1322
  988TIP3    H2 2929   1.096   1.349   4.556 -0.1361 -0.5055 -0.3106
  989TIP3   OH2 2930   0.162   2.490   5.183 -0.1166  0.3106  0.0855
  989TIP3    H1 2931   0.228   2.513   5.248 -0.0762  0.3584  0.0272
  989TIP3    H2 2932   0.199   2.518   5.099 -1.4412  3.1336  0.3351
  990TIP3   OH2 2933   3.261   0.100   3.491  0.2991 -0.0790 -0.0287
  990TIP3    H1 2934   3.283   0.033   3.426  0.1524 -0.5641  0.4084
  990TIP3    H2 2935   3.341   0.152   3.499  1.2697 -1.6524  1.3315
  991TIP3   OH2 2936   6.889   2.920   2.843  0.2408  0.0330 -0.0407
  991TIP3    H1 2937   6.853   2.832   2.854 -0.1972  0.3342  1.0767
  991TIP3    H2 2938   6.814   2.974   2.818  0.5088  0.0958 -0.7261
  992TIP3   OH2 2939   4.971   5.755   0.206  0.1093 -0.2826 -0.0718
  992TIP3    H1 2940   4.999   5.807   0.282  0.6666  1.5915 -1.4757
  992TIP3    H2 2941   5.047   5.756   0.148 -0.8588 -0.2189 -1.3714
  993TIP3   OH2 2942   4.471   4.693   1.670 -0.4075  0.5434  0.2551
  993TIP3    H1 2943   4.527   4.653   1.736 -2.6298  0.6092  2.3050
  993TIP3    H2 2944   4.395   4.636   1.666 -1.6440  2.1558 -0.0485
  994TIP3   OH2 2945   2.578   0.793   0.396 -0.3312 -0.4815 -0.1170
  994TIP3    H1 2946   2.572   0.734   0.471 -1.2662  1.9709  1.8728
  994TIP3    H2 2947   2.495   0.781   0.349 -0.1364 -1.3532 -0.2529
  995TIP3   OH2 2948   0.690   4.619   0.119 -0.2429 -0.5706  0.2405
  995TIP3    H1 2949   0.774   4.659   0.140 -0.3679 -0.4562  0.5341
  995TIP3    H2 2950   0.681   4.627   0.024 -0.0122 -0.4077  0.2334
  996TIP3   OH2 2951   2.084   3.362   2.860  0.2895 -0.2292 -0.2316
  996TIP3    H1 2952   2.005   3.404   2.827  0.8352 -0.5491 -2.0436
  996TIP3    H2 2953   2.088   3.278   2.814  1.5252 -0.3458  0.0568
  997TIP3   OH2 2954   1.064   4.187   3.750 -0.0776 -0.1369 -0.3358
  997TIP3    H1 2955   1.118   4.179   3.672 -0.6736  0.0937 -0.7835
  997TIP3    H2 2956   1.111   4.138   3.817  0.5252 -0.2006 -0.7942
  998TIP3   OH2 2957   1.596   6.346   1.925 -0.5712  0.0484 -0.8773
  998TIP3    H1 2958   1.624   6.426   1.879 -0.1875 -0.7168 -2.0426
  998TIP3    H2 2959   1.652   6.277   1.888  0.0466 -0.5586  1.0834
  999TIP3   OH2 2960   4.023   1.983   2.005 -0.0089 -0.4784 -0.1898
  999TIP3    H1 2961   4.005   2.076   1.988  1.1720 -0.2483 -0.2668
  999TIP3    H2 2962   4.020   1.976   2.100 -2.7581 -0.9599 -0.2120
 1000TIP3   OH2 2963   3.256   4.530   0.188  0.0223 -0.0561  0.1392
 1000TIP3    H1 2964   3.177   4.547   0.239  0.2921  2.4602 -0.1403
 1000TIP3    H2 2965   3.239   4.445   0.146 -0.9751 -1.3294  2.8470
 1001TIP3   OH2 2966   2.737   5.028   3.039  0.1508 -0.0694 -0.6288
 1001TIP3    H1 2967   2.644   5.005   3.045 -0.1136  0.7507 -1.4231
 1001TIP3    H2 2968   2.738   5.117   3.004  1.2745 -0.9394 -2.9887
 1002TIP3   OH2 2969   6.315   1.479   5.274  0.2945  0.6383 -0.0734
 1002TIP3    H1 2970   6.227   1.512   5.258 -1.0369 -2.6998 -0.3990
 1002TIP3    H2 2971   6.359   1.484   5.189 -0.6606 -0.4561 -0.6598
 1003TIP3   OH2 2972   1.207   3.003   3.251  0.3432 -0.9755 -0.1620
 1003TIP3    H1 2973   1.189   3.059   3.176  0.3319 -0.6303  0.0989
 1003TIP3    H2 2974   1.195   2.914   3.217  0.5695 -0.8331 -0.6302
 1004TIP3   OH2 2975   4.443   3.595   0.874 -0.0723 -0.1291 -0.0104
 1004TIP3    H1 2976   4.412   3.685   0.863 -1.7703 -0.6761  0.1327
 1004TIP3    H2 2977   4.508   3.601   0.944 -1.6195  0.7035  1.4169
 1005TIP3   OH2 2978   4.616   2.941   4.914 -0.2713  0.2388 -0.1254
 1005TIP3    H1 2979   4.697   2.906   4.952  0.4132  1.2977 -0.5723
 1005TIP3    H2 2980   4.563   2.864   4.896  1.3229 -0.6406 -1.3766
 1006TIP3   OH2 2981   3.840   0.044   3.539 -0.2756 -0.1686 -0.2300
 1006TIP3    H1 2982   3.898  -0.004   3.480 -1.0691 -2.1021  0.4624
 1006TIP3    H2 2983   3.760  -0.009   3.542 -1.2135  1.2100  0.6219
 1007TIP3   OH2 2984   4.356   6.668   1.103  0.3383 -0.4197 -0.6343
 1007TIP3    H1 2985   4.298   6.744   1.107 -1.2151 -1.4486 -2.1641
 1007TIP3    H2 2986   4.444   6.704   1.114 -0.4827  1.2928  0.9457
 1008TIP3   OH2 2987   2.838   3.381   4.492 -0.2055 -0.3317 -0.2913
 1008TIP3    H1 2988   2.848   3.376   4.587  2.8341  0.7110 -0.4740
 1008TIP3    H2 2989   2.743   3.384   4.478 -0.7517 -1.2193  2.6353
 1009TIP3   OH2 2990   1.085   5.099   3.365 -0.0744  0.2459  0.0949
 1009TIP3    H1 2991   1.139   5.040   3.313 -0.4231 -0.2499  0.2845
 1009TIP3    H2 2992   1.145   5.133   3.432 -0.2888 -1.3729  1.1661
 1010TIP3   OH2 2993   6.574   5.762   5.826  0.4773 -0.4285  0.1305
 1010TIP3    H1 2994   6.483   5.776   5.799  1.0082  2.2265 -0.5549
 1010TIP3    H2 2995   6.593   5.673   5.798 -1.6214 -0.7408 -0.5496
 1011TIP3   OH2 2996   0.764   1.551   3.792 -0.3982 -0.1962  0.1775
 1011TIP3    H1 2997   0.762   1.477   3.853 -3.0991  0.1862  0.7069
 1011TIP3    H2 2998   0.691   1.607   3.821  0.3795  1.7269 -1.3591
 1012TIP3   OH2 2999   0.065   5.805   1.727 -0.4775  0.2017  0.6799
 1012TIP3    H1 3000   0.100   5.895   1.732  1.2429 -0.3393 -0.5901
 1012TIP3    H2 3001  -0.023   5.816   1.689 -0.4148  1.3771  0.8225
 1013TIP3   OH2 3002   6.274   2.350   4.131  0.0322 -0.1429 -0.0367
 1013TIP3    H1 3003   6.323   2.403   4.193 -1.1210  1.2905 -0.2818
 1013TIP3    H2 3004   6.293   2.259   4.155  1.7642  0.3632  0.6409
 1014TIP3   OH2 3005   5.808   4.006   0.012 -0.0595  0.1173 -0.1497
 1014TIP3    H1 3006   5.837   3.949   0.084  0.6170  0.3211 -0.2527
 1014TIP3    H2 3007   5.766   4.080   0.056 -0.1950 -0.0545  0.0123
 1015TIP3   OH2 3008   1.973   0.486   5.360 -0.5178  0.3429 -0.1633
 1015TIP3    H1 3009   1.965   0.563   5.304 -0.2615  0.0991 -0.5383
 1015TIP3    H2 3010   2.061   0.453   5.344 -1.1650 -0.9630 -1.2174
 1016TIP3   OH2 3011   2.967   5.086   4.779  0.0869  0.1920  0.2424
 1016TIP3    H1 3012   2.901   5.016   4.777  0.4454 -0.1659 -1.8683
 1016TIP3    H2 3013   2.941   5.145   4.708 -0.1796  2.2447  1.9373
 1017TIP3   OH2 3014   1.428   3.329   1.557  0.0353  0.0049 -0.1956
 1017TIP3    H1 3015   1.461   3.246   1.593 -1.0370 -0.8635 -1.1387
 1017TIP3    H2 3016   1.447   3.323   1.464  0.9798  1.3482 -0.1122
 1018TIP3   OH2 3017   6.541   1.229   1.169 -0.1879 -0.2940  0.0068
 1018TIP3    H1 3018   6.540   1.236   1.074 -0.6260  0.8993  0.0853
 1018TIP3    H2 3019   6.523   1.137   1.186 -1.4486 -0.2680 -1.0462
 1019TIP3   OH2 3020   3.717   3.718   1.748 -0.2054 -0.0966  0.3537
 1019TIP3    H1 3021   3.682   3.732   1.835  0.2307 -1.1655  0.7147
 1019TIP3    H2 3022   3.640   3.700   1.694 -0.9234  4.0038 -0.3135
 1020TIP3   OH2 3023   3.275   5.074   0.681  0.0502  0.4705  0.2357
 1020TIP3    H1 3024   3.214   5.132   0.635  1.4098  0.8531 -1.1578
 1020TIP3    H2 3025   3.267   4.990   0.636 -1.6596 -0.4029  2.0291
 1021TIP3   OH2 3026   5.065   2.245   5.044 -0.4490  0.6502 -0.1983
 1021TIP3    H1 3027   5.021   2.186   4.984  2.8137 -1.7242 -0.5680
 1021TIP3    H2 3028   5.090   2.321   4.991 -2.3935  1.2027 -0.3743
 1022TIP3   OH2 3029   4.609   6.096   2.418 -0.1029 -0.4859  0.4877
 1022TIP3    H1 3030   4.597   6.118   2.325 -3.0685  0.1677  0.9186
 1022TIP3    H2 3031   4.655   6.172   2.454  1.7634 -1.0699 -0.5061
 1023TIP3   OH2 3032   0.388   4.808   1.298  0.2223 -0.1666  0.3790
 1023TIP3    H1 3033   0.306   4.763   1.279  0.6020 -0.4814 -0.5440
 1023TIP3    H2 3034   0.394   4.806   1.394 -0.5886 -0.5957  0.4324
 1024TIP3   OH2 3035   2.575   2.705   0.026  0.2921 -0.3282  0.2123
 1024TIP3    H1 3036   2.588   2.645   0.100  1.2169  1.9875  2.0605
 1024TIP3    H2 3037   2.506   2.764   0.054 -1.3155 -1.0206 -1.9829
 1025TIP3   OH2 3038   5.468   0.651   5.806  0.8032 -0.4336  0.2773
 1025TIP3    H1 3039   5.550   0.640   5.854  0.9227  1.7410  0.6799
 1025TIP3    H2 3040   5.489   0.716   5.738 -0.1796 -1.0626 -0.6504
 1026TIP3   OH2 3041   2.621   3.106   3.511  0.5151  0.5402 -0.1112
 1026TIP3    H1 3042   2.673   3.034   3.545  1.2427  0.9217 -0.3938
 1026TIP3    H2 3043   2.574   3.069   3.437 -0.1264  0.0261  0.5364
 1027TIP3   OH2 3044   0.318   5.471   5.675  0.2647  0.1785  0.0414
 1027TIP3    H1 3045   0.249   5.494   5.737  0.2064  1.3397 -0.4172
 1027TIP3    H2 3046   0.380   5.419   5.725 -0.5766 -0.2482  0.6519
 1028TIP3   OH2 3047   2.541   3.261   0.725 -0.7037 -0.1910 -0.0735
 1028TIP3    H1 3048   2.554   3.219   0.640  1.1105 -1.9463  0.9895
 1028TIP3    H2 3049   2.623   3.244   0.772 -2.3250 -0.8500  2.6809
 1029TIP3   OH2 3050   2.977   3.544   0.983 -0.5479 -0.0154  0.6965
 1029TIP3    H1 3051   3.011   3.610   0.923 -0.4323 -0.9453 -0.2767
 1029TIP3    H2 3052   3.052   3.488   1.003 -0.4546  0.5539  2.1296
 1030TIP3   OH2 3053   3.821   4.733   4.330 -0.3359  0.2102 -0.4739
 1030TIP3    H1 3054   3.773   4.765   4.407 -0.7889 -0.1203 -0.6165
 1030TIP3    H2 3055   3.886   4.801   4.313  1.1538 -0.6245  1.4311
 1031TIP3   OH2 3056   4.382   6.329   1.442 -0.2773 -0.0972 -0.7600
 1031TIP3    H1 3057   4.338   6.382   1.376  1.6463  1.7883 -0.6346
 1031TIP3    H2 3058   4.441   6.390   1.487 -0.5254 -1.5928  1.8186
 1032TIP3   OH2 3059   4.969   3.722   1.246 -0.3945 -0.0252 -0.2660
 1032TIP3    H1 3060   4.890   3.771   1.270  0.4128  0.4921  1.4420
 1032TIP3    H2 3061   5.010   3.775   1.177 -0.9066  0.3261 -0.3054
 1033TIP3   OH2 3062   5.692   3.873   0.524  0.3071  0.0482  0.4112
 1033TIP3    H1 3063   5.641   3.936   0.474  3.2439  1.7939 -0.5958
 1033TIP3    H2 3064   5.672   3.894   0.616 -0.9536  0.4539  0.0690
 1034TIP3   OH2 3065   3.417   2.102   1.607  0.2065  0.1689  0.4006
 1034TIP3    H1 3066   3.337   2.060   1.574  0.3988 -1.3528  1.7648
 1034TIP3    H2 3067   3.488   2.054   1.565  0.4269  0.3372  0.5793
 1035TIP3   OH2 3068   1.238   6.038   1.347  0.2930  0.3032  0.5988
 1035TIP3    H1 3069   1.188   6.094   1.288 -1.0979 -0.0579  1.3721
 1035TIP3    H2 3070   1.175   5.970   1.373  1.5885 -0.9436  0.5917
 1036TIP3   OH2 3071   2.869   5.799   5.299  0.0630  0.0816  0.0778
 1036TIP3    H1 3072   2.951   5.749   5.299 -0.8074 -1.4121  0.3770
 1036TIP3    H2 3073   2.879   5.862   5.371  0.5193 -0.8543  0.8634
 1037TIP3   OH2 3074   5.425   6.194   3.561  0.0335 -0.0605 -1.0133
 1037TIP3    H1 3075   5.373   6.271   3.539  0.8298  0.0382 -2.6492
 1037TIP3    H2 3076   5.501   6.229   3.608  1.7000  0.5110 -3.9384
 1038TIP3   OH2 3077   3.126   0.790   2.338 -0.1477 -0.0120  0.5467
 1038TIP3    H1 3078   3.113   0.863   2.399  1.2222  1.5783 -0.9350
 1038TIP3    H2 3079   3.040   0.775   2.300 -0.4816  0.8094  0.9444
 1039TIP3   OH2 3080   0.077   0.943   0.105 -0.1003 -0.4505  0.2234
 1039TIP3    H1 3081  -0.011   0.928   0.069 -0.0182 -2.3435  0.6606
 1039TIP3    H2 3082   0.135   0.894   0.047  0.3256 -1.4415  1.4337
 1040TIP3   OH2 3083   2.888   2.324   2.852 -0.2055  0.1787  0.5703
 1040TIP3    H1 3084   2.896   2.360   2.763  1.8781 -0.9762  0.2180
 1040TIP3    H2 3085   2.844   2.393   2.902 -2.0017  0.6049 -1.4559
 1041TIP3   OH2 3086   3.778   2.153   1.613  0.0905  0.0077  0.5575
 1041TIP3    H1 3087   3.845   2.099   1.572 -0.1090 -0.0136  0.2597
 1041TIP3    H2 3088   3.826   2.208   1.674  0.2548 -0.7656  1.1442
 1042TIP3   OH2 3089   4.097   6.741   3.039  0.5147 -0.1131  0.5263
 1042TIP3    H1 3090   4.038   6.722   3.112 -0.9019  2.3944  0.1692
 1042TIP3    H2 3091   4.110   6.836   3.043  0.8667  0.0301 -2.1156
 1043TIP3   OH2 3092   5.503   2.191   0.272  0.0374  0.4701 -0.2243
 1043TIP3    H1 3093   5.522   2.102   0.301 -0.4103  0.6317  0.5894
 1043TIP3    H2 3094   5.415   2.185   0.233  0.7551  0.1908 -1.8768
 1044TIP3   OH2 3095   1.233   2.814   1.874  0.1380 -0.3896  0.3975
 1044TIP3    H1 3096   1.203   2.813   1.965  0.2616 -0.6632  0.4358
 1044TIP3    H2 3097   1.325   2.839   1.879 -0.2264  1.0551  0.2343
 1045TIP3   OH2 3098   4.287   0.245   2.978  0.0162  0.2253  0.4362
 1045TIP3    H1 3099   4.354   0.296   3.025 -1.2051  1.0800  1.3039
 1045TIP3    H2 3100   4.214   0.305   2.967 -1.3894 -1.2347  1.2686
 1046TIP3   OH2 3101   4.418   3.675   5.690  0.2872 -0.0009 -0.6171
 1046TIP3    H1 3102   4.342   3.679   5.747  0.9275  2.2165  0.2029
 1046TIP3    H2 3103   4.473   3.606   5.727 -0.6979 -0.6799 -0.4074
 1047TIP3   OH2 3104   1.161   1.069   0.513 -0.0980 -0.3001  0.5301
 1047TIP3    H1 3105   1.127   1.004   0.451 -0.3360 -0.7674  1.1447
 1047TIP3    H2 3106   1.103   1.145   0.502 -0.2681 -0.4568  0.3286
 1048TIP3   OH2 3107   0.627   1.142   0.711  0.3089  0.2092  0.3359
 1048TIP3    H1 3108   0.614   1.117   0.803  1.4409 -0.4823  0.3316
 1048TIP3    H2 3109   0.556   1.099   0.664  1.8522 -2.6700  0.4143
 1049TIP3   OH2 3110   4.707   3.595   3.508  0.1785  0.2415 -0.2736
 1049TIP3    H1 3111   4.613   3.608   3.517 -0.0519 -0.3353 -1.6477
 1049TIP3    H2 3112   4.728   3.526   3.570 -0.3150  0.3230 -0.0129
 1050TIP3   OH2 3113   5.385   1.326   2.025 -0.4167 -0.2307 -0.5588
 1050TIP3    H1 3114   5.448   1.396   2.042 -0.4814 -0.2428 -0.2632
 1050TIP3    H2 3115   5.417   1.252   2.076 -1.5134  0.2298  0.8694
 1051TIP3   OH2 3116   6.131   1.230   1.360  0.1331  0.2838  0.0906
 1051TIP3    H1 3117   6.086   1.266   1.437  0.0906  1.0932 -0.3008
 1051TIP3    H2 3118   6.082   1.151   1.338  0.9452 -0.7470  1.7004
 1052TIP3   OH2 3119   2.887   3.526   2.305  0.6169 -0.0258 -0.1958
 1052TIP3    H1 3120   2.817   3.591   2.305 -0.1384 -0.8213  0.5326
 1052TIP3    H2 3121   2.967   3.577   2.290 -0.0165  0.9949 -0.1857
 1053TIP3   OH2 3122   1.418   3.693   1.752  0.1958 -0.7615 -0.2186
 1053TIP3    H1 3123   1.343   3.642   1.722  0.7813 -1.0183 -1.3268
 1053TIP3    H2 3124   1.409   3.695   1.847 -1.7149  0.0192 -0.3704
 1054TIP3   OH2 3125   5.385   3.690   0.652 -0.2659  0.3909  0.4268
 1054TIP3    H1 3126   5.478   3.676   0.667  0.0857  1.5551 -0.5657
 1054TIP3    H2 3127   5.358   3.614   0.600  0.6649  1.1361 -1.2409
 1055TIP3   OH2 3128   7.204   5.759   2.078  0.0436  0.2018  0.2189
 1055TIP3    H1 3129   7.119   5.734   2.043 -1.0737  2.0192  1.4802
 1055TIP3    H2 3130   7.260   5.766   2.000 -1.4035  0.6638 -0.8301
 1056TIP3   OH2 3131   1.598   0.010   1.252  0.0766  0.5206  0.0033
 1056TIP3    H1 3132   1.593   0.103   1.275 -0.3229  0.2436  1.0784
 1056TIP3    H2 3133   1.507  -0.019   1.246  0.1311 -0.4546  2.5715
 1057TIP3   OH2 3134   0.418   3.086   5.767  0.2516 -0.1661  0.2304
 1057TIP3    H1 3135   0.328   3.055   5.753 -1.0012  2.5256  1.6204
 1057TIP3    H2 3136   0.445   3.045   5.849  0.3886 -1.0541 -0.2366
 1058TIP3   OH2 3137   2.311   3.270   1.826  0.4356  0.0920  0.0417
 1058TIP3    H1 3138   2.301   3.206   1.897  0.0705  1.2843  1.0965
 1058TIP3    H2 3139   2.224   3.276   1.787  0.9270 -1.5415 -1.4193
 1059TIP3   OH2 3140   2.732   1.464   4.754  0.3411  0.4290 -0.7410
 1059TIP3    H1 3141   2.640   1.484   4.772  0.0116 -1.3901 -0.1116
 1059TIP3    H2 3142   2.781   1.536   4.793 -0.7072 -0.1740  1.8895
 1060TIP3   OH2 3143   1.815   4.644   5.867 -0.3784 -0.3292 -0.6044
 1060TIP3    H1 3144   1.865   4.715   5.827  2.0093 -1.7402 -0.2752
 1060TIP3    H2 3145   1.829   4.655   5.961 -2.2343  0.2678 -0.3365
 1061TIP3   OH2 3146   2.929   5.406   0.979  0.0690 -0.1928  0.3823
 1061TIP3    H1 3147   2.864   5.398   0.909  0.3916  2.1588 -0.2702
 1061TIP3    H2 3148   2.882   5.448   1.051 -0.0274 -1.8073  1.3146
 1062TIP3   OH2 3149   2.756   3.837   0.844  0.1504  0.2063 -0.6147
 1062TIP3    H1 3150   2.750   3.913   0.902  0.5303 -0.3761  0.1972
 1062TIP3    H2 3151   2.676   3.840   0.792 -0.8268  0.0202  0.8296
 1063TIP3   OH2 3152   6.318   3.627   5.566  0.2082 -0.4853 -0.2415
 1063TIP3    H1 3153   6.317   3.722   5.571  0.4141 -0.5358  1.0440
 1063TIP3    H2 3154   6.395   3.601   5.616  0.6434 -1.3045 -1.2944
 1064TIP3   OH2 3155   4.745   0.289   5.026  0.0516 -0.0141 -0.0610
 1064TIP3    H1 3156   4.677   0.235   4.986 -0.5043  0.8362 -0.3056
 1064TIP3    H2 3157   4.823   0.274   4.972 -0.6042  0.8556 -1.3003
 1065TIP3   OH2 3158   4.058   2.570   3.522 -0.1213  0.1603  0.0567
 1065TIP3    H1 3159   4.117   2.496   3.533  0.0747 -0.2305 -2.8893
 1065TIP3    H2 3160   4.115   2.643   3.498 -0.3941  1.1464  2.1852
 1066TIP3   OH2 3161   0.647   6.332   3.038 -0.3360  0.0031  0.8868
 1066TIP3    H1 3162   0.724   6.298   3.083  1.0850  2.8430  0.8349
 1066TIP3    H2 3163   0.663   6.427   3.032 -2.7887  0.3855 -1.1704
 1067TIP3   OH2 3164   2.141   6.508   1.188  0.4550  0.2676 -0.1251
 1067TIP3    H1 3165   2.189   6.546   1.114  1.3010 -1.2125 -0.3597
 1067TIP3    H2 3166   2.049   6.524   1.167  0.7269  0.8366 -0.9396
 1068TIP3   OH2 3167   0.808   1.985   4.875 -0.2957  0.4173 -0.0094
 1068TIP3    H1 3168   0.784   1.898   4.906 -0.4866  0.4997  0.0794
 1068TIP3    H2 3169   0.812   1.977   4.780  0.6277  0.0787  0.0515
 1069TIP3   OH2 3170   1.545   6.231   2.181 -0.3297  0.3154  0.0118
 1069TIP3    H1 3171   1.536   6.266   2.093  0.9610  1.0704  0.1521
 1069TIP3    H2 3172   1.462   6.188   2.199 -0.6421  0.2401 -1.5290
 1070TIP3   OH2 3173   5.161   2.783   4.985  0.7638  0.0937 -0.2700
 1070TIP3    H1 3174   5.209   2.812   5.062 -0.1618 -1.5832  0.9973
 1070TIP3    H2 3175   5.077   2.753   5.019  0.5500 -1.2304 -1.8447
 1071TIP3   OH2 3176   3.214   0.815   4.006 -0.6111 -0.5001  0.2637
 1071TIP3    H1 3177   3.290   0.870   3.987  0.2004 -1.1836  1.3356
 1071TIP3    H2 3178   3.248   0.725   4.002 -0.9862 -0.7698  2.1234
 1072TIP3   OH2 3179   5.602   1.316   5.514  0.6035 -0.3445 -0.6406
 1072TIP3    H1 3180   5.626   1.255   5.584 -1.2938  0.2189  0.5960
 1072TIP3    H2 3181   5.524   1.277   5.474  0.3850  0.4137 -0.9681
 1073TIP3   OH2 3182   6.382   0.213   1.743  0.1054  0.0449 -0.2427
 1073TIP3    H1 3183   6.308   0.153   1.731 -0.4803  0.4877  1.0104
 1073TIP3    H2 3184   6.343   0.294   1.776  0.9898  0.8308 -1.0301
 1074TIP3   OH2 3185   1.588   2.137   2.603 -0.3649 -0.4736  0.5721
 1074TIP3    H1 3186   1.565   2.184   2.523 -3.1563 -2.8545 -0.2125
 1074TIP3    H2 3187   1.673   2.097   2.584 -0.2705  0.2454 -0.6041
 1075TIP3   OH2 3188   0.619   4.522   5.010 -0.4784 -0.3890  0.3672
 1075TIP3    H1 3189   0.699   4.488   4.970 -0.2730  1.3355 -0.7952
 1075TIP3    H2 3190   0.556   4.524   4.938 -0.7908  0.6536  0.6500
 1076TIP3   OH2 3191   5.772   5.188   4.017 -0.5521 -0.4124  0.1158
 1076TIP3    H1 3192   5.733   5.262   3.969 -0.7727 -1.2634 -1.0628
 1076TIP3    H2 3193   5.855   5.172   3.973  0.1966  0.0541  1.3090
 1077TIP3   OH2 3194   4.500   6.232   2.181 -0.5180  0.1560  0.3497
 1077TIP3    H1 3195   4.470   6.212   2.092  0.4896  1.8933 -0.4324
 1077TIP3    H2 3196   4.455   6.314   2.203 -0.1366  0.1595  1.1308
 1078TIP3   OH2 3197   0.908   6.427   1.031  0.5547  0.6521 -0.1680
 1078TIP3    H1 3198   0.853   6.484   1.084  0.2373  0.8228 -0.6730
 1078TIP3    H2 3199   0.922   6.476   0.950  0.6724  0.2164 -0.4158
 1079TIP3   OH2 3200   1.638   3.594   0.362 -0.1425 -0.0821 -0.5023
 1079TIP3    H1 3201   1.669   3.599   0.453 -1.6936  3.4304  0.0001
 1079TIP3    H2 3202   1.716   3.612   0.309  0.9974 -3.1192 -0.0726
 1080TIP3   OH2 3203   7.016   6.718   4.671 -0.7299  0.3519  0.3353
 1080TIP3    H1 3204   6.936   6.695   4.719  0.1184 -1.5775  0.9445
 1080TIP3    H2 3205   7.086   6.713   4.737  0.0367  0.8389 -0.4233
 1081TIP3   OH2 3206   1.203   3.315   3.428 -0.6177 -0.7359 -0.2566
 1081TIP3    H1 3207   1.263   3.293   3.499  0.5907 -0.0537 -1.0291
 1081TIP3    H2 3208   1.126   3.351   3.472  1.1903  2.3468  0.7035
 1082TIP3   OH2 3209   6.976   4.680   0.893  0.1407 -0.6106 -0.0009
 1082TIP3    H1 3210   7.067   4.657   0.912 -0.1328 -2.4589 -0.7318
 1082TIP3    H2 3211   6.930   4.596   0.892 -1.8312  0.3578  1.5340
 1083TIP3   OH2 3212   6.209   1.329   4.437  0.5429 -0.4466 -0.8470
 1083TIP3    H1 3213   6.158   1.373   4.369 -0.2393  0.4776  0.2755
 1083TIP3    H2 3214   6.216   1.238   4.408 -1.2627 -0.4699 -1.3486
 1084TIP3   OH2 3215   7.078   5.887   4.576  0.0656 -0.9415  0.0184
 1084TIP3    H1 3216   7.020   5.961   4.556 -0.7758 -1.8087 -0.8869
 1084TIP3    H2 3217   7.166   5.922   4.561 -0.2578  0.1008  0.4025
 1085TIP3   OH2 3218   2.506   0.382   5.242 -0.7190 -0.7323 -0.3167
 1085TIP3    H1 3219   2.506   0.477   5.233 -0.9912 -0.5812  1.0776
 1085TIP3    H2 3220   2.522   0.349   5.153 -1.7239  0.5852 -1.0187
 1086TIP3   OH2 3221   5.905   0.926   4.293  0.2750  0.2341 -0.4000
 1086TIP3    H1 3222   5.904   1.021   4.285  1.5977  0.2939 -0.1685
 1086TIP3    H2 3223   5.981   0.908   4.349  0.3108 -0.9737 -0.8089
 1087TIP3   OH2 3224   6.168   2.772   0.078 -0.0597 -0.1038  0.0281
 1087TIP3    H1 3225   6.144   2.685   0.047 -0.5426 -1.1112  2.8692
 1087TIP3    H2 3226   6.260   2.782   0.053  0.4476 -2.1003  0.8350
 1088TIP3   OH2 3227   2.573   4.598   4.617 -0.2619 -0.1806 -0.4869
 1088TIP3    H1 3228   2.573   4.547   4.697 -0.0978  0.4766 -0.0558
 1088TIP3    H2 3229   2.496   4.655   4.624 -0.1935 -0.0503 -0.7495
 1089TIP3   OH2 3230   2.532   1.468   5.692  0.0773  0.6034 -0.1700
 1089TIP3    H1 3231   2.534   1.439   5.600  2.9359  0.0701 -0.0175
 1089TIP3    H2 3232   2.609   1.522   5.702  0.2204  0.0680  2.1075
 1090TIP3   OH2 3233   5.658   1.117   3.276  0.5570  0.2063  0.7194
 1090TIP3    H1 3234   5.736   1.061   3.283  2.5236  2.8196  1.0628
 1090TIP3    H2 3235   5.688   1.193   3.227 -1.4187  1.9271  2.0320
 1091TIP3   OH2 3236   0.115   5.069   2.070 -0.0269  0.8202  0.4687
 1091TIP3    H1 3237   0.127   5.056   1.976  2.1510 -0.2738  0.8347
 1091TIP3    H2 3238   0.020   5.069   2.083 -0.3484 -0.3308 -1.5600
 1092TIP3   OH2 3239   2.290   3.292   0.845 -0.0814  0.3208 -0.0595
 1092TIP3    H1 3240   2.296   3.265   0.936  1.3630 -0.0337 -0.2305
 1092TIP3    H2 3241   2.374   3.266   0.807 -0.6963  0.3545 -1.5201
 1093TIP3   OH2 3242   5.234   0.290   2.851  0.0227  0.4174  0.1566
 1093TIP3    H1 3243   5.207   0.269   2.941 -1.4959  0.3624 -0.2694
 1093TIP3    H2 3244   5.151   0.292   2.802  0.4817  3.3222 -0.6732
 1094TIP3   OH2 3245   4.270   1.283   0.048 -0.6073  0.3052 -0.6397
 1094TIP3    H1 3246   4.236   1.275   0.137 -0.2644 -0.7732 -0.5983
 1094TIP3    H2 3247   4.284   1.377   0.037 -1.0435  0.4926  0.2956
 1095TIP3   OH2 3248   4.650   0.739   3.001  0.4872 -0.0513 -0.2802
 1095TIP3    H1 3249   4.659   0.834   3.008 -0.7271  0.0188  0.5337
 1095TIP3    H2 3250   4.556   0.723   3.007  0.4720 -1.1611 -2.4890
 1096TIP3   OH2 3251   1.446  -0.009   2.203 -0.1938  0.7746 -0.2587
 1096TIP3    H1 3252   1.460   0.084   2.222 -0.6607  0.7450  0.2708
 1096TIP3    H2 3253   1.352  -0.016   2.183  0.1631  0.6943 -2.0283
 1097TIP3   OH2 3254   1.407   0.639   3.619  0.0837 -0.1719 -0.5630
 1097TIP3    H1 3255   1.457   0.720   3.621 -1.2152  0.6933 -1.6572
 1097TIP3    H2 3256   1.420   0.600   3.706 -0.5980  2.0174  0.5787
 1098TIP3   OH2 3257   0.758   2.151   1.765  0.4461  0.4483 -0.1836
 1098TIP3    H1 3258   0.732   2.074   1.815  1.1123  0.8013  0.7390
 1098TIP3    H2 3259   0.718   2.225   1.811  1.6901  0.8467  0.3118
 1099TIP3   OH2 3260   5.118   6.693   3.316 -0.2631 -0.4581  0.0210
 1099TIP3    H1 3261   5.134   6.786   3.301  1.3731 -0.8213 -0.7767
 1099TIP3    H2 3262   5.118   6.683   3.411 -0.9795  0.4282  0.1218
 1100TIP3   OH2 3263   5.231   5.393   0.733  0.2091 -0.6594  0.1968
 1100TIP3    H1 3264   5.267   5.472   0.774 -0.2760 -1.0467  1.4394
 1100TIP3    H2 3265   5.164   5.363   0.795 -2.3310  0.0564 -2.0182
 1101TIP3   OH2 3266   1.996   2.720   4.573 -0.2436  0.6007  0.5017
 1101TIP3    H1 3267   1.910   2.683   4.552 -0.3143  0.7234  0.5751
 1101TIP3    H2 3268   1.988   2.750   4.664 -0.0291  0.3358  0.6094
 1102TIP3   OH2 3269   6.225   5.748   2.041 -0.0606 -0.0324 -0.7537
 1102TIP3    H1 3270   6.247   5.762   1.949 -0.8477  0.7775 -0.8355
 1102TIP3    H2 3271   6.178   5.664   2.042  1.3187 -0.8417 -0.8374
 1103TIP3   OH2 3272   0.667   4.566   5.517 -0.1117  0.7411 -0.3433
 1103TIP3    H1 3273   0.733   4.539   5.581  2.7403  3.8996 -1.6301
 1103TIP3    H2 3274   0.650   4.487   5.465  1.1064 -0.6940  1.3250
 1104TIP3   OH2 3275   7.104   3.680   3.880 -0.1360 -0.3759  0.5190
 1104TIP3    H1 3276   7.199   3.678   3.870  0.0015 -1.1554  1.7592
 1104TIP3    H2 3277   7.079   3.766   3.848  0.9724 -0.1951  0.0724
 1105TIP3   OH2 3278   3.382   6.730   0.800 -0.3673 -0.0676 -0.4843
 1105TIP3    H1 3279   3.333   6.676   0.738  0.7595  1.0127 -2.4022
 1105TIP3    H2 3280   3.332   6.812   0.804 -0.7586 -0.3392  0.5487
 1106TIP3   OH2 3281   4.845   6.047   5.263 -0.3805 -0.0593 -0.2809
 1106TIP3    H1 3282   4.826   6.062   5.356 -1.2337  0.7380 -0.5678
 1106TIP3    H2 3283   4.897   6.123   5.237 -0.1993 -0.2483 -0.4722
 1107TIP3   OH2 3284   1.027   0.926   3.681  0.2296  0.1583  0.3782
 1107TIP3    H1 3285   1.078   0.845   3.678 -0.8660 -0.5416  0.2748
 1107TIP3    H2 3286   0.942   0.903   3.643 -0.4361  1.1123  1.2353
 1108TIP3   OH2 3287   0.416   2.134   4.279  0.0437  0.6761  0.2875
 1108TIP3    H1 3288   0.416   2.046   4.242  0.4651  0.7973 -0.0087
 1108TIP3    H2 3289   0.344   2.179   4.234 -0.4242  0.3735  0.7194
 1109TIP3   OH2 3290   4.291   2.939   2.249  0.2820 -0.1608 -0.4687
 1109TIP3    H1 3291   4.291   2.860   2.302  0.2667 -1.2682 -2.0596
 1109TIP3    H2 3292   4.223   2.925   2.184  0.4164  1.0827 -0.9146
 1110TIP3   OH2 3293   5.441   2.466   1.603  0.2838 -0.6437 -0.1268
 1110TIP3    H1 3294   5.482   2.393   1.557 -0.2237 -1.3850  0.5725
 1110TIP3    H2 3295   5.370   2.495   1.545  2.0793  1.0271 -1.6172
 1111TIP3   OH2 3296   0.568   3.597   4.519  0.3072 -0.3850 -0.1824
 1111TIP3    H1 3297   0.526   3.559   4.596 -0.7703  2.3308  0.6965
 1111TIP3    H2 3298   0.500   3.597   4.452  0.8560 -1.5933 -0.7590
 1112TIP3   OH2 3299   2.826   0.826   2.150  0.2966  0.2005 -0.5142
 1112TIP3    H1 3300   2.831   0.743   2.196 -1.0545 -0.0391 -0.7714
 1112TIP3    H2 3301   2.813   0.892   2.219  2.7433  0.4176 -0.1701
 1113TIP3   OH2 3302   0.944   4.793   2.027  0.3543 -0.0215 -0.0980
 1113TIP3    H1 3303   0.875   4.734   1.997 -0.0879  0.2222  0.4166
 1113TIP3    H2 3304   0.931   4.799   2.122  0.4119  0.8722 -0.1350
 1114TIP3   OH2 3305   5.943   0.674   4.627 -0.0670 -0.1648 -0.2024
 1114TIP3    H1 3306   5.916   0.765   4.617 -0.6039 -0.4620 -1.6492
 1114TIP3    H2 3307   5.980   0.670   4.716 -0.6158  1.2984  0.1249
 1115TIP3   OH2 3308   2.758   6.577   1.387 -0.3655  0.0408  0.0284
 1115TIP3    H1 3309   2.763   6.509   1.454 -0.1987 -1.4162 -1.4071
 1115TIP3    H2 3310   2.671   6.567   1.348 -0.3854  0.7294 -0.1152
 1116TIP3   OH2 3311   0.995   3.971   1.698  0.0937 -0.0214 -0.8168
 1116TIP3    H1 3312   1.025   3.941   1.784  0.0855  0.3449 -0.6839
 1116TIP3    H2 3313   1.066   3.948   1.638  0.1239 -0.2279 -0.7029
 1117TIP3   OH2 3314   3.721   0.267   4.823  0.4812  0.4739 -0.7394
 1117TIP3    H1 3315   3.770   0.293   4.745  1.6232  0.4456 -0.0553
 1117TIP3    H2 3316   3.737   0.338   4.886 -0.5521  0.5762 -0.5688
 1118TIP3   OH2 3317   3.605   4.859   5.596 -0.4385 -0.2926  0.2844
 1118TIP3    H1 3318   3.576   4.804   5.669 -1.1461  2.5423  2.3014
 1118TIP3    H2 3319   3.693   4.887   5.621  0.5823 -1.6775 -1.5105
 1119TIP3   OH2 3320   3.168   4.530   0.933 -0.5990 -0.2075 -0.7195
 1119TIP3    H1 3321   3.259   4.533   0.963 -0.9908  2.5838  0.5331
 1119TIP3    H2 3322   3.134   4.449   0.969  0.9093 -0.4101  0.3609
 1120TIP3   OH2 3323   3.069   5.544   2.604  0.0429  0.4749  0.5022
 1120TIP3    H1 3324   3.156   5.574   2.579  0.1859 -0.1985  0.1545
 1120TIP3    H2 3325   3.083   5.494   2.685  0.2134 -0.8268 -0.2966
 1121TIP3   OH2 3326   1.523   1.296   2.275 -0.2346  0.8758 -0.2239
 1121TIP3    H1 3327   1.518   1.204   2.247  0.0588  0.9493 -0.5298
 1121TIP3    H2 3328   1.435   1.317   2.305 -0.4776  0.6946 -0.7995
 1122TIP3   OH2 3329   0.755   5.691   3.493 -0.2325  0.1083 -0.1692
 1122TIP3    H1 3330   0.733   5.761   3.553  0.8196  0.3643 -0.0681
 1122TIP3    H2 3331   0.767   5.734   3.408  0.4787  0.0582 -0.0944
 1123TIP3   OH2 3332   0.979   1.144   1.601  0.2264  0.2033  0.1718
 1123TIP3    H1 3333   1.069   1.172   1.587  0.9782 -2.3778 -0.7044
 1123TIP3    H2 3334   0.935   1.161   1.518  0.3152  0.0007  0.0849
 1124TIP3   OH2 3335   1.016   3.688   5.150 -0.1695 -0.0582  0.3490
 1124TIP3    H1 3336   1.012   3.783   5.137 -0.4972 -0.1054  0.0675
 1124TIP3    H2 3337   1.072   3.656   5.079 -1.2254 -0.2204 -0.4438
 1125TIP3   OH2 3338   4.286   0.499   0.386  0.6110 -0.7492  0.0293
 1125TIP3    H1 3339   4.254   0.589   0.394  1.3372 -0.1682 -2.6100
 1125TIP3    H2 3340   4.222   0.456   0.329  0.1323 -2.0420  1.4747
 1126TIP3   OH2 3341   1.872   3.552   2.382  0.0478 -0.3807 -0.7631
 1126TIP3    H1 3342   1.831   3.599   2.309 -1.2160 -0.0604  0.1196
 1126TIP3    H2 3343   1.915   3.477   2.341 -1.6530 -0.8865 -1.7368
 1127TIP3   OH2 3344   0.898   6.375   2.065 -0.3792 -0.1028  0.1347
 1127TIP3    H1 3345   0.880   6.468   2.049  2.6922  0.5490 -0.0127
 1127TIP3    H2 3346   0.920   6.340   1.979  0.3001 -0.5176  0.4755
 1128TIP3   OH2 3347   5.064   4.687   3.897  0.4180 -0.6986 -0.7030
 1128TIP3    H1 3348   5.076   4.664   3.989  0.6174  0.0728 -0.5259
 1128TIP3    H2 3349   4.984   4.738   3.896  1.9455  1.9003 -0.4384
 1129TIP3   OH2 3350   5.111   5.762   5.497 -0.2712 -0.1249  0.4188
 1129TIP3    H1 3351   5.140   5.807   5.418 -0.8196  0.0691  0.3221
 1129TIP3    H2 3352   5.068   5.830   5.549  0.4916 -0.1479  1.1007
 1130TIP3   OH2 3353   0.849   4.601   2.712 -0.0051 -0.3429 -0.0841
 1130TIP3    H1 3354   0.933   4.564   2.739  0.9635  0.7537 -1.4199
 1130TIP3    H2 3355   0.813   4.537   2.651 -1.7263 -2.3405  2.7923
 1131TIP3   OH2 3356   1.151   5.341   4.522  0.7937  0.6223 -0.3439
 1131TIP3    H1 3357   1.143   5.315   4.431  2.3357  1.6952 -0.8382
 1131TIP3    H2 3358   1.235   5.303   4.550  1.1801  1.7441  0.0748
 1132TIP3   OH2 3359   2.974   0.727   5.380 -0.4863  0.1602  0.1059
 1132TIP3    H1 3360   2.938   0.643   5.407  0.4614 -0.3781 -0.2671
 1132TIP3    H2 3361   3.013   0.711   5.295  1.8961  0.3263  1.0823
 1133TIP3   OH2 3362   6.061   0.819   5.504 -0.2669  0.0565 -0.0800
 1133TIP3    H1 3363   5.968   0.801   5.512 -0.1701  0.0388  1.2814
 1133TIP3    H2 3364   6.069   0.874   5.426 -1.2086 -1.2397 -1.1354
 1134TIP3   OH2 3365   4.274   2.031   0.442  0.1418 -0.1546  0.4602
 1134TIP3    H1 3366   4.246   2.010   0.531 -1.6109 -0.0403 -0.0252
 1134TIP3    H2 3367   4.218   2.103   0.415  2.6887  1.8938  0.2868
 1135TIP3   OH2 3368   4.904   3.891   5.093 -0.5684 -0.5701 -0.3915
 1135TIP3    H1 3369   4.856   3.946   5.030 -0.7687 -0.1352  0.1297
 1135TIP3    H2 3370   4.996   3.912   5.077 -0.4523 -2.1406 -2.0742
 1136TIP3   OH2 3371   5.236   4.174   5.914  0.4213  0.3971  0.5464
 1136TIP3    H1 3372   5.205   4.258   5.881 -1.3020  0.3377  1.8604
 1136TIP3    H2 3373   5.203   4.110   5.851  2.9596  0.7363 -1.2528
 1137TIP3   OH2 3374   1.426   0.893   3.367 -0.2886  0.6392 -0.0361
 1137TIP3    H1 3375   1.441   0.954   3.439 -1.0786  0.2867  0.4523
 1137TIP3    H2 3376   1.332   0.875   3.371 -0.1424 -0.2798 -0.4281
 1138TIP3   OH2 3377   4.274   5.755   3.573  0.5749 -0.6803 -0.1001
 1138TIP3    H1 3378   4.366   5.729   3.568  1.2524  1.6698 -3.4737
 1138TIP3    H2 3379   4.232   5.705   3.503 -0.1011  0.2413 -0.3656
 1139TIP3   OH2 3380   5.161   1.053   3.790  0.0383 -0.7973 -0.0473
 1139TIP3    H1 3381   5.160   1.031   3.883 -1.3534 -0.6003  0.0050
 1139TIP3    H2 3382   5.147   0.970   3.745  0.1995 -0.8163 -0.0631
 1140TIP3   OH2 3383   6.013   4.235   0.312 -0.6189  0.4348 -0.0354
 1140TIP3    H1 3384   6.002   4.149   0.353 -0.9917 -0.8997 -2.7297
 1140TIP3    H2 3385   6.066   4.285   0.375  1.6949 -2.5351  0.5937
 1141TIP3   OH2 3386   2.041   2.786   1.732 -0.3864 -0.6385 -0.2510
 1141TIP3    H1 3387   2.017   2.825   1.648 -1.0309 -1.2045 -0.3295
 1141TIP3    H2 3388   2.005   2.846   1.797 -0.0499 -0.2988 -0.3743
 1142TIP3   OH2 3389   5.770   2.088   5.378  0.1455  0.0154  0.4340
 1142TIP3    H1 3390   5.855   2.068   5.419  1.6037  4.9436  0.4689
 1142TIP3    H2 3391   5.788   2.087   5.284 -0.5787 -1.5816  0.2802
 1143TIP3   OH2 3392   5.758   0.275   3.933 -0.2135  0.4307 -0.2864
 1143TIP3    H1 3393   5.772   0.182   3.951  1.3823  0.3736 -1.6482
 1143TIP3    H2 3394   5.720   0.310   4.014  0.8799 -1.0218  0.8911
 1144TIP3   OH2 3395   6.098   0.078   0.614 -0.0102  0.0648 -0.2582
 1144TIP3    H1 3396   6.176   0.023   0.608 -2.3019 -3.5102 -0.5543
 1144TIP3    H2 3397   6.064   0.061   0.702 -1.4053  0.0663 -0.7652
 1145TIP3   OH2 3398   1.243   0.156   0.325 -0.4008 -0.3797  0.0102
 1145TIP3    H1 3399   1.256   0.220   0.254 -2.8057  1.1474  0.8218
 1145TIP3    H2 3400   1.267   0.204   0.405 -0.5126 -1.1077  0.4849
 1146TIP3   OH2 3401   6.275   3.265   3.920  0.5825  0.0764 -0.2996
 1146TIP3    H1 3402   6.295   3.207   3.846  4.1869 -0.6565  1.0082
 1146TIP3    H2 3403   6.324   3.345   3.900  0.0135  0.6084  0.4134
 1147TIP3   OH2 3404   7.122   6.385   3.169 -0.6368  0.4655  0.3821
 1147TIP3    H1 3405   7.083   6.387   3.082 -1.1168  2.7181  0.5802
 1147TIP3    H2 3406   7.163   6.299   3.176 -1.3817 -0.0993 -1.7042
 1148TIP3   OH2 3407   0.941   6.517   1.469 -0.2419  0.2033 -0.0750
 1148TIP3    H1 3408   0.891   6.448   1.425  0.0338  1.0253 -1.7866
 1148TIP3    H2 3409   0.880   6.558   1.529 -0.8367 -0.5463 -0.1586
 1149TIP3   OH2 3410   3.985   5.649   2.934  0.7415 -0.0919  0.1281
 1149TIP3    H1 3411   3.911   5.654   2.873 -0.7588  1.5192  1.9401
 1149TIP3    H2 3412   4.039   5.725   2.912  1.5318 -0.8867 -0.7481
 1150TIP3   OH2 3413   0.177   4.548   3.459  0.1579 -0.0611  0.1948
 1150TIP3    H1 3414   0.140   4.631   3.429 -0.8425 -0.6013 -0.1042
 1150TIP3    H2 3415   0.267   4.570   3.484  0.4668  0.7780 -1.4851
 1151TIP3   OH2 3416   2.453   0.036   1.578 -0.1031  0.4762 -0.4870
 1151TIP3    H1 3417   2.535   0.068   1.542  0.3934  0.3698  0.5314
 1151TIP3    H2 3418   2.388   0.101   1.552  0.2794  0.5504 -1.3130
 1152TIP3   OH2 3419   6.346   5.500   3.177  0.2566 -0.0854  0.1366
 1152TIP3    H1 3420   6.320   5.592   3.170  0.3991 -0.0636 -0.0915
 1152TIP3    H2 3421   6.281   5.453   3.125  0.8105 -0.0073 -0.6366
 1153TIP3   OH2 3422   3.761   1.154   3.099  0.4338  0.0637 -0.8541
 1153TIP3    H1 3423   3.672   1.159   3.131  0.2377 -0.4381 -1.3059
 1153TIP3    H2 3424   3.756   1.181   3.007  0.3237 -2.2496 -1.5991
 1154TIP3   OH2 3425   3.798   3.255   3.490 -0.6051  0.0173  0.0334
 1154TIP3    H1 3426   3.709   3.255   3.455 -0.8116 -0.7495  0.5447
 1154TIP3    H2 3427   3.787   3.233   3.583  0.2609 -1.9987 -0.3016
 1155TIP3   OH2 3428   0.095   6.357   5.093 -0.6659 -0.4471  0.0296
 1155TIP3    H1 3429   0.072   6.288   5.156 -0.5860 -1.5083 -1.0627
 1155TIP3    H2 3430   0.174   6.325   5.050 -0.4780  0.4576 -0.3154
 1156TIP3   OH2 3431   3.878   0.303   3.713 -0.0947 -0.1286 -0.5593
 1156TIP3    H1 3432   3.856   0.211   3.699 -0.6222 -0.0828 -0.0461
 1156TIP3    H2 3433   3.971   0.309   3.690  0.3565 -1.1267  0.9029
 1157TIP3   OH2 3434   2.984   3.748   3.317  0.2778 -0.4821  0.3323
 1157TIP3    H1 3435   2.969   3.666   3.364 -0.7457 -1.3410 -1.3679
 1157TIP3    H2 3436   2.909   3.755   3.258  1.9750 -0.0410 -1.9129
 1158TIP3   OH2 3437   2.368   2.060   4.141  0.1255 -0.0732  0.1588
 1158TIP3    H1 3438   2.399   2.089   4.227 -2.2524  1.4637  0.5983
 1158TIP3    H2 3439   2.300   1.995   4.162 -0.2507  0.0818 -0.5722
 1159TIP3   OH2 3440   4.905   5.677   2.601  0.2511 -0.2064 -0.2173
 1159TIP3    H1 3441   4.960   5.686   2.679 -0.2009  1.5754 -0.0420
 1159TIP3    H2 3442   4.964   5.647   2.532  0.9264 -0.6058  0.5292
 1160TIP3   OH2 3443   3.441   0.278   5.627 -0.4380 -0.5754  0.7278
 1160TIP3    H1 3444   3.528   0.245   5.602  0.6025 -0.1889  3.5037
 1160TIP3    H2 3445   3.380   0.213   5.592  1.0676 -1.6553 -0.0021
 1161TIP3   OH2 3446   4.499   5.600   1.412 -0.2150 -0.0438  0.0818
 1161TIP3    H1 3447   4.408   5.580   1.433  0.6753 -2.6614  2.1577
 1161TIP3    H2 3448   4.518   5.550   1.333 -1.1009  2.4051 -1.8009
 1162TIP3   OH2 3449   2.521   6.482   0.570 -0.0869  0.2609 -0.0305
 1162TIP3    H1 3450   2.520   6.520   0.482 -1.5299  0.0890 -0.1176
 1162TIP3    H2 3451   2.432   6.449   0.583 -0.4257  1.7640  2.1333
 1163TIP3   OH2 3452   4.350   0.191   0.186  0.0442 -0.2053  0.6723
 1163TIP3    H1 3453   4.297   0.214   0.109 -1.9158 -1.6190  1.5262
 1163TIP3    H2 3454   4.440   0.186   0.152 -0.5117  0.8807 -1.1420
 1164TIP3   OH2 3455   6.750   4.491   2.562 -0.1173 -0.2629 -0.4790
 1164TIP3    H1 3456   6.679   4.507   2.624  0.4026  0.6353 -0.1105
 1164TIP3    H2 3457   6.723   4.538   2.483 -1.2398 -2.1716 -1.3205
 1165TIP3   OH2 3458   0.563   3.659   5.091 -0.1785  0.0850 -0.0146
 1165TIP3    H1 3459   0.479   3.665   5.135  0.5827 -1.0895  1.7197
 1165TIP3    H2 3460   0.621   3.617   5.155  1.8695  1.3035 -0.9461
 1166TIP3   OH2 3461   4.492   2.177   5.097  0.6086 -0.0687 -0.2245
 1166TIP3    H1 3462   4.549   2.236   5.147 -1.3351  0.6636  1.2935
 1166TIP3    H2 3463   4.527   2.090   5.116  1.1998  0.3456  0.7215
 1167TIP3   OH2 3464   0.707   5.922   1.386  0.2148 -0.3620 -0.3663
 1167TIP3    H1 3465   0.686   5.966   1.304  0.5860  1.0151  0.2575
 1167TIP3    H2 3466   0.637   5.948   1.446  0.1875 -1.0017 -0.1039
 1168TIP3   OH2 3467   4.514   0.258   1.895  0.3822  0.4849 -1.0746
 1168TIP3    H1 3468   4.609   0.245   1.897  0.2317 -0.5915 -0.6967
 1168TIP3    H2 3469   4.496   0.315   1.969  0.7169  0.6166 -1.0917
 1169TIP3   OH2 3470   2.155   6.055   3.760 -0.3624  0.0751  0.4012
 1169TIP3    H1 3471   2.115   6.135   3.792 -1.9988 -0.3990 -0.3336
 1169TIP3    H2 3472   2.131   6.051   3.667 -1.6148 -1.9714  0.7415
 1170TIP3   OH2 3473   6.188   2.028   2.159 -0.2652 -0.2262 -0.7280
 1170TIP3    H1 3474   6.206   2.118   2.131 -0.7526 -0.1799 -0.9087
 1170TIP3    H2 3475   6.134   2.038   2.238  1.5071 -0.3486  0.5535
 1171TIP3   OH2 3476   3.141   1.637   2.992 -0.2337  0.0435 -0.1774
 1171TIP3    H1 3477   3.189   1.576   3.047 -2.2032 -0.3744  1.2123
 1171TIP3    H2 3478   3.185   1.721   3.005  1.0673 -0.6133 -0.2321
 1172TIP3   OH2 3479   0.797   6.777   0.551  0.0888 -0.2571 -0.0584
 1172TIP3    H1 3480   0.795   6.872   0.560  1.3125 -0.3546  1.8078
 1172TIP3    H2 3481   0.885   6.752   0.579 -1.1292 -2.1740  2.5116
 1173TIP3   OH2 3482   6.485   2.006   1.832 -0.0166  0.3018  0.2126
 1173TIP3    H1 3483   6.409   1.948   1.837 -0.9570  1.3721 -1.1675
 1173TIP3    H2 3484   6.547   1.968   1.895 -1.5584 -0.7455  1.1830
 1174TIP3   OH2 3485   5.288   1.740   5.288 -0.3149 -0.3633  0.0099
 1174TIP3    H1 3486   5.232   1.817   5.289  0.4743  0.2102  0.7839
 1174TIP3    H2 3487   5.231   1.668   5.317 -1.2038 -0.2091 -1.2519
 1175TIP3   OH2 3488   0.395   5.490   5.291 -0.4310  0.0154  0.3994
 1175TIP3    H1 3489   0.332   5.420   5.273 -0.5488  0.3429 -0.5139
 1175TIP3    H2 3490   0.478   5.456   5.257 -0.5463  0.4263 -0.3064
 1176TIP3   OH2 3491   2.336   4.836   3.259 -0.1150  0.7405  0.1803
 1176TIP3    H1 3492   2.270   4.828   3.328  0.9525 -0.6043  1.1002
 1176TIP3    H2 3493   2.329   4.753   3.211  2.0703 -0.2492  1.4214
 1177TIP3   OH2 3494   4.534   5.862   2.257  0.2471 -0.3463  0.4722
 1177TIP3    H1 3495   4.543   5.927   2.327  1.7395 -0.6834  0.6150
 1177TIP3    H2 3496   4.456   5.812   2.282 -1.1573  1.5858  0.1642
 1178TIP3   OH2 3497   1.029   0.437   0.291  0.2198  0.0731  0.1318
 1178TIP3    H1 3498   1.113   0.469   0.259 -0.5815  2.6022  0.3314
 1178TIP3    H2 3499   0.985   0.401   0.213  1.1875 -0.6670 -0.0917
 1179TIP3   OH2 3500   2.214   4.506   1.065  0.0588 -0.9973 -0.4872
 1179TIP3    H1 3501   2.308   4.518   1.058  0.2727 -2.1220  0.3023
 1179TIP3    H2 3502   2.202   4.452   1.143 -1.1777 -1.5601 -1.0426
 1180TIP3   OH2 3503   5.343   4.635   5.750  0.2652  0.1004  0.1422
 1180TIP3    H1 3504   5.279   4.697   5.717 -0.7434 -0.3681  1.1360
 1180TIP3    H2 3505   5.378   4.592   5.672  0.2148  1.1627 -0.4839
 1181TIP3   OH2 3506   3.513   6.642   1.654  0.3956 -0.3733 -0.3315
 1181TIP3    H1 3507   3.527   6.563   1.706  1.6933  0.2926  0.3792
 1181TIP3    H2 3508   3.521   6.714   1.716 -1.0253  0.3364 -0.9158
 1182TIP3   OH2 3509   0.182   5.604   4.922 -0.1784 -0.0663  0.1330
 1182TIP3    H1 3510   0.257   5.660   4.903 -0.8532  0.9402  0.3795
 1182TIP3    H2 3511   0.208   5.517   4.889  1.0145  0.3010  0.0734
 1183TIP3   OH2 3512   2.264   3.100   2.043 -0.7807 -0.4468 -0.2311
 1183TIP3    H1 3513   2.322   3.116   2.118 -2.1892  0.8765  0.6462
 1183TIP3    H2 3514   2.286   3.012   2.014  0.6235 -0.5467  1.0146
 1184TIP3   OH2 3515   3.750   1.811   0.203  0.2430  0.0703 -0.8739
 1184TIP3    H1 3516   3.693   1.885   0.224 -0.4509 -1.0767  1.6692
 1184TIP3    H2 3517   3.827   1.824   0.258 -0.2553 -1.4716  0.2464
 1185TIP3   OH2 3518   7.067   0.524   3.843  0.0436  0.0533  0.1390
 1185TIP3    H1 3519   6.996   0.461   3.830  0.3281 -0.0337 -1.0637
 1185TIP3    H2 3520   7.100   0.505   3.931 -1.3851  0.0695  0.6994
 1186TIP3   OH2 3521   2.965   2.072   0.827 -0.0781  0.5123  0.5241
 1186TIP3    H1 3522   3.036   2.042   0.884 -0.3750 -3.1643 -0.7569
 1186TIP3    H2 3523   2.892   2.090   0.886  0.2338 -1.2687  1.5257
 1187TIP3   OH2 3524   2.581   2.294   4.364 -0.4829  0.4248 -0.0689
 1187TIP3    H1 3525   2.621   2.372   4.401 -0.1764 -0.1624  0.8630
 1187TIP3    H2 3526   2.653   2.250   4.318 -0.3224 -0.0113  0.5843
 1188TIP3   OH2 3527   1.756   0.974   4.727  0.3267 -0.4332  0.7391
 1188TIP3    H1 3528   1.668   0.980   4.689  0.7408 -1.7161 -0.5156
 1188TIP3    H2 3529   1.769   0.880   4.741  2.2038 -0.4761 -0.9136
 1189TIP3   OH2 3530   0.910   3.649   1.124 -0.1622 -0.0094 -0.9962
 1189TIP3    H1 3531   0.877   3.642   1.035 -0.5518  0.8779 -0.9302
 1189TIP3    H2 3532   0.939   3.740   1.133  0.5338 -0.2727 -0.4419
 1190TIP3   OH2 3533   2.020   2.157   5.804 -1.2632  0.4214  0.0223
 1190TIP3    H1 3534   1.964   2.087   5.770 -0.3468 -0.9410  1.1858
 1190TIP3    H2 3535   2.068   2.116   5.877  0.6785  1.7437 -0.4389
 1191TIP3   OH2 3536   3.307   6.630   4.912 -0.3312 -0.3482 -0.0514
 1191TIP3    H1 3537   3.380   6.573   4.888 -0.4621 -0.9295  0.8707
 1191TIP3    H2 3538   3.240   6.571   4.945 -0.3236  0.3524  1.2826
 1192TIP3   OH2 3539   2.460   4.911   5.687  0.0872  0.3135 -0.0697
 1192TIP3    H1 3540   2.376   4.906   5.641 -0.1083 -0.8595  0.3806
 1192TIP3    H2 3541   2.437   4.929   5.778  0.0578 -3.1908  0.7283
 1193TIP3   OH2 3542   6.855   0.232   3.200 -0.6738 -0.5591 -0.2741
 1193TIP3    H1 3543   6.803   0.311   3.217 -1.0796 -0.6939 -0.8719
 1193TIP3    H2 3544   6.802   0.161   3.236  0.2306 -0.4711  1.3661
 1194TIP3   OH2 3545   4.527   0.390   4.624  0.3397 -0.1744  0.0753
 1194TIP3    H1 3546   4.620   0.388   4.650  0.3799  2.9912  0.6254
 1194TIP3    H2 3547   4.529   0.381   4.529  1.3123  0.6516 -0.0064
 1195TIP3   OH2 3548   2.161   6.255   2.468  0.5991 -0.2128  0.3243
 1195TIP3    H1 3549   2.255   6.238   2.475  0.6202 -0.4907 -0.5172
 1195TIP3    H2 3550   2.146   6.270   2.374 -0.4702 -1.8896  0.1864
 1196TIP3   OH2 3551   2.264   3.737   5.781  0.1927 -0.2670 -0.0699
 1196TIP3    H1 3552   2.184   3.726   5.831 -0.3387  1.1090 -0.5620
 1196TIP3    H2 3553   2.331   3.692   5.832 -0.7738 -0.9102  0.6580
 1197TIP3   OH2 3554   4.433   1.165   4.799  0.3643  0.1124 -0.0153
 1197TIP3    H1 3555   4.342   1.181   4.774  0.4237 -1.0264 -1.0696
 1197TIP3    H2 3556   4.429   1.086   4.853  0.6778  0.3986  0.4396
 1198TIP3   OH2 3557   1.358   0.162   0.704  0.2630 -0.1815 -0.0169
 1198TIP3    H1 3558   1.287   0.109   0.741  0.6344 -0.9075 -0.3413
 1198TIP3    H2 3559   1.317   0.211   0.633 -0.3802  0.9606  1.0997
 1199TIP3   OH2 3560   4.433   3.009   1.014 -0.5167 -0.3388  0.1554
 1199TIP3    H1 3561   4.482   2.951   0.955  0.1878 -1.2433  1.5775
 1199TIP3    H2 3562   4.360   2.956   1.046 -1.2181  0.3224 -0.3044
 1200TIP3   OH2 3563   5.931   1.512   2.401 -0.9767 -0.2932 -0.0781
 1200TIP3    H1 3564   5.856   1.480   2.350 -0.5114 -1.5798  0.0038
 1200TIP3    H2 3565   5.928   1.460   2.481 -0.1069 -0.2210  0.0041
 1201TIP3   OH2 3566   7.221   6.626   0.747  0.1060 -0.2770 -0.0734
 1201TIP3    H1 3567   7.161   6.643   0.819  1.9867 -0.6790  1.6896
 1201TIP3    H2 3568   7.202   6.695   0.684 -1.6062  0.0930  0.7897
 1202TIP3   OH2 3569   5.861   6.039   4.621 -0.5292 -0.2293 -0.1439
 1202TIP3    H1 3570   5.948   6.052   4.660 -0.4430  0.5980 -0.5819
 1202TIP3    H2 3571   5.874   5.970   4.555 -0.2361 -0.2108 -0.1065
 1203TIP3   OH2 3572   5.428   1.497   4.977 -0.1351  0.3901  0.2942
 1203TIP3    H1 3573   5.356   1.555   5.002 -2.5198 -2.6845  1.1918
 1203TIP3    H2 3574   5.461   1.462   5.060  1.9441  1.1422 -0.1559
 1204TIP3   OH2 3575   2.530   0.363   4.272  0.4515 -0.6739  0.0490
 1204TIP3    H1 3576   2.445   0.326   4.247  1.2331 -0.5463 -3.2150
 1204TIP3    H2 3577   2.584   0.287   4.293 -0.1118 -0.8098  1.1084
 1205TIP3   OH2 3578   4.490   0.986   5.452 -0.0299 -0.2263  0.0082
 1205TIP3    H1 3579   4.538   0.915   5.495 -0.4397 -1.2826 -1.1972
 1205TIP3    H2 3580   4.556   1.053   5.435  1.1491 -1.7249 -1.8032
 1206TIP3   OH2 3581   5.435   6.593   5.695  0.2921 -0.6200 -0.0513
 1206TIP3    H1 3582   5.344   6.617   5.713  0.3916 -0.3251  0.0516
 1206TIP3    H2 3583   5.451   6.623   5.606  1.1096  1.7482  0.8349
 1207TIP3   OH2 3584   0.959   0.276   5.756  0.2269  0.1071 -0.4980
 1207TIP3    H1 3585   0.931   0.185   5.740 -2.1322  0.8403 -0.8951
 1207TIP3    H2 3586   0.996   0.274   5.844  1.3194 -1.4515 -0.9464
 1208TIP3   OH2 3587   5.906   6.663   1.108 -0.6304  0.5553  0.1019
 1208TIP3    H1 3588   5.812   6.642   1.105 -1.3359  3.2593  0.8434
 1208TIP3    H2 3589   5.910   6.758   1.100  2.1084  0.4909 -0.2591
 1209TIP3   OH2 3590   5.074   1.252   2.658  0.2885  0.4182 -0.3416
 1209TIP3    H1 3591   5.104   1.212   2.577 -1.2481 -0.6508 -0.3983
 1209TIP3    H2 3592   5.149   1.244   2.717  0.5371 -1.1262 -0.8416
 1210TIP3   OH2 3593   3.794   0.668   1.327  0.0950 -0.1015 -0.0512
 1210TIP3    H1 3594   3.812   0.759   1.304  0.0273 -0.1532 -0.3072
 1210TIP3    H2 3595   3.764   0.628   1.246  0.1591 -0.3622  0.0530
 1211TIP3   OH2 3596   3.247   1.652   4.513  0.1803 -0.1793  0.3918
 1211TIP3    H1 3597   3.156   1.638   4.487  0.3232  2.0731 -1.6541
 1211TIP3    H2 3598   3.286   1.564   4.512 -1.4894 -0.9495 -0.6258
 1212TIP3   OH2 3599   6.854   5.243   2.919  0.1246 -0.0103  0.4766
 1212TIP3    H1 3600   6.799   5.230   2.843  0.1204 -1.2064  0.6630
 1212TIP3    H2 3601   6.798   5.286   2.984  0.1280  0.9989 -0.1690
 1213TIP3   OH2 3602   3.894   2.344   1.334  0.1286 -0.0658 -0.2529
 1213TIP3    H1 3603   3.914   2.300   1.251 -0.1724 -1.5043  0.4079
 1213TIP3    H2 3604   3.813   2.302   1.364 -0.2592  1.0651  0.3416
 1214TIP3   OH2 3605   6.929   1.121   3.620  0.2387 -0.2660  0.1943
 1214TIP3    H1 3606   6.972   1.036   3.614 -0.7512 -0.7107 -1.2665
 1214TIP3    H2 3607   6.867   1.121   3.547  1.1459  2.2471 -0.6744
 1215TIP3   OH2 3608   1.169   1.114   3.237  0.1861  0.2514 -0.0729
 1215TIP3    H1 3609   1.118   1.174   3.183 -0.0065 -1.1344 -1.4841
 1215TIP3    H2 3610   1.252   1.159   3.251 -0.2529  1.1903 -0.3929
 1216TIP3   OH2 3611   3.079   3.410   4.811  0.3760 -0.0204  0.3703
 1216TIP3    H1 3612   3.107   3.463   4.736 -1.3115  0.4954  0.0534
 1216TIP3    H2 3613   3.074   3.473   4.883  0.4458 -0.1911  0.5235
 1217TIP3   OH2 3614   2.179   5.768   0.415  0.1769 -0.2101  0.1068
 1217TIP3    H1 3615   2.190   5.676   0.388  1.5626  0.0401 -0.2506
 1217TIP3    H2 3616   2.087   5.774   0.441  0.4779 -2.2048  2.0068
 1218TIP3   OH2 3617   1.970   2.826   0.799  0.0949  0.2392  0.5364
 1218TIP3    H1 3618   1.875   2.816   0.800 -0.0711  1.5734  1.7429
 1218TIP3    H2 3619   2.002   2.746   0.757 -1.6154  0.4224 -1.2513
 1219TIP3   OH2 3620   3.781   5.292   1.924  0.0116  0.7987  0.5975
 1219TIP3    H1 3621   3.763   5.217   1.867 -1.2422  1.3727  0.1892
 1219TIP3    H2 3622   3.759   5.261   2.012  3.1805 -0.5112  1.0595
 1220TIP3   OH2 3623   4.777   6.736   5.584  0.2748 -0.3843  0.7136
 1220TIP3    H1 3624   4.826   6.756   5.504 -1.8787 -1.3772 -0.9514
 1220TIP3    H2 3625   4.727   6.658   5.563 -2.1991  0.6726  2.2144
 1221TIP3   OH2 3626   5.051   1.933   5.125 -0.5501 -0.0751 -0.1978
 1221TIP3    H1 3627   4.997   1.910   5.200 -0.0858  0.6499  0.3760
 1221TIP3    H2 3628   5.089   2.018   5.148 -0.6728  0.3253 -1.4039
 1222TIP3   OH2 3629   3.779   2.059   2.514  0.0260  0.4791  0.0330
 1222TIP3    H1 3630   3.725   2.108   2.452  1.0928  0.4292 -0.9721
 1222TIP3    H2 3631   3.730   2.062   2.596 -1.8444 -0.1559 -0.9795
 1223TIP3   OH2 3632   2.108   5.283   1.877 -0.3826  0.6667  0.7189
 1223TIP3    H1 3633   2.027   5.328   1.852 -0.6091 -0.3004 -0.3799
 1223TIP3    H2 3634   2.079   5.196   1.905  0.3418 -0.0969 -0.7748
 1224TIP3   OH2 3635   4.423   3.581   3.907  0.6329 -0.3228  0.9879
 1224TIP3    H1 3636   4.328   3.592   3.903  0.5292 -1.2369  0.6054
 1224TIP3    H2 3637   4.447   3.553   3.818  1.2635 -0.0917  1.0804
 1225TIP3   OH2 3638   3.592   0.184   2.997 -0.2850 -0.1593  0.2887
 1225TIP3    H1 3639   3.540   0.112   2.962 -0.3770  1.6158 -3.6890
 1225TIP3    H2 3640   3.539   0.262   2.982  1.5227  1.2010  0.6133
 1226TIP3   OH2 3641   2.624   1.857   1.476 -0.2785  0.2428 -0.0458
 1226TIP3    H1 3642   2.718   1.844   1.490  0.2194 -0.3391 -3.2385
 1226TIP3    H2 3643   2.615   1.950   1.458 -0.2746  0.2442 -0.0407
 1227TIP3   OH2 3644   6.429   4.818   2.403  0.4268  0.1294 -0.3347
 1227TIP3    H1 3645   6.383   4.740   2.435 -0.4336  1.3829  1.6850
 1227TIP3    H2 3646   6.394   4.832   2.315 -0.2084 -1.1310 -0.3086
 1228TIP3   OH2 3647   4.076   5.294   0.288 -0.4853 -0.3838  0.1157
 1228TIP3    H1 3648   4.170   5.284   0.272 -1.1023 -3.0891 -2.9922
 1228TIP3    H2 3649   4.052   5.218   0.340 -1.0638 -0.1721  0.1634
 1229TIP3   OH2 3650   5.589   1.076   2.539  0.2497  0.4452 -0.2686
 1229TIP3    H1 3651   5.541   1.020   2.478  0.9833  0.9284 -1.3298
 1229TIP3    H2 3652   5.565   1.044   2.626  0.1400 -1.0721 -0.8364
 1230TIP3   OH2 3653   6.139   6.676   5.543 -1.0603  0.0965 -0.1740
 1230TIP3    H1 3654   6.157   6.680   5.636  0.1668 -0.7972 -0.3634
 1230TIP3    H2 3655   6.222   6.653   5.502 -1.5342  0.6090 -1.5120
 1231TIP3   OH2 3656   3.067   3.243   0.600 -0.3630  0.3573 -0.5099
 1231TIP3    H1 3657   3.015   3.164   0.584  0.9212 -0.7982  0.7497
 1231TIP3    H2 3658   3.157   3.217   0.578  0.1955  1.2103  0.6661
 1232TIP3   OH2 3659   5.900   1.800   3.419  0.1257 -0.1871 -0.2030
 1232TIP3    H1 3660   5.898   1.704   3.423  0.7439 -0.2258 -0.7638
 1232TIP3    H2 3661   5.969   1.824   3.481  0.7156 -0.1661 -0.8515
 1233TIP3   OH2 3662   0.702   6.740   2.076 -0.2489  0.0209  0.0880
 1233TIP3    H1 3663   0.688   6.680   2.149  0.0038  1.3681  1.2961
 1233TIP3    H2 3664   0.796   6.738   2.061 -0.3173 -0.3652 -0.3189
 1234TIP3   OH2 3665   4.996   2.586   1.808 -0.3521  0.0115 -0.2104
 1234TIP3    H1 3666   5.073   2.532   1.823  0.2815  1.1263  0.7562
 1234TIP3    H2 3667   4.922   2.528   1.822  0.2383 -1.5414 -2.8049
 1235TIP3   OH2 3668   2.800   4.869   4.770  0.5886 -0.7198  0.1648
 1235TIP3    H1 3669   2.718   4.854   4.817  1.2183 -0.0048  1.5660
 1235TIP3    H2 3670   2.826   4.782   4.738 -0.1961 -1.1133  0.5659
 1236TIP3   OH2 3671   0.087   1.833   0.792 -0.2691 -0.6196 -0.2275
 1236TIP3    H1 3672   0.108   1.768   0.859 -1.2127 -0.9263 -0.2094
 1236TIP3    H2 3673   0.032   1.785   0.730 -0.7364  0.0911 -0.3669
 1237TIP3   OH2 3674   0.072   2.554   2.482  0.0381 -0.4160 -1.0173
 1237TIP3    H1 3675   0.132   2.480   2.483  0.1071 -0.4111  1.5752
 1237TIP3    H2 3676  -0.015   2.514   2.491  0.0618 -0.2467  0.1822
 1238TIP3   OH2 3677   0.075   5.534   5.468 -0.2497 -0.0453 -0.1797
 1238TIP3    H1 3678   0.125   5.463   5.507  0.2893 -0.5643 -1.7385
 1238TIP3    H2 3679   0.141   5.600   5.446 -0.7345  0.9346  1.1815
 1239TIP3   OH2 3680   2.951   4.612   0.601  0.6222  0.3914 -1.0106
 1239TIP3    H1 3681   2.943   4.647   0.690 -0.3678  0.9213 -1.2930
 1239TIP3    H2 3682   2.978   4.521   0.613 -1.7582 -0.2626 -0.0356
 1240TIP3   OH2 3683   2.036   4.347   5.522  0.1641  0.2518 -0.1895
 1240TIP3    H1 3684   1.982   4.364   5.599  0.4022  0.0516  0.0233
 1240TIP3    H2 3685   2.073   4.432   5.500  2.2281 -0.1082  1.5249
 1241TIP3   OH2 3686   1.178   3.605   4.327 -0.0078 -0.4826 -0.0496
 1241TIP3    H1 3687   1.247   3.538   4.327  0.3607 -0.1783  1.8688
 1241TIP3    H2 3688   1.215   3.678   4.276 -0.6328 -1.8596 -2.6460
 1242TIP3   OH2 3689   7.006   1.897   4.960 -0.1034  0.1772 -0.2987
 1242TIP3    H1 3690   6.993   1.990   4.940  0.3653  0.8489  2.1925
 1242TIP3    H2 3691   7.077   1.869   4.903  1.0879  1.9163  0.2591
 1243TIP3   OH2 3692   3.325   3.164   3.311 -0.3272  0.2481  0.0732
 1243TIP3    H1 3693   3.246   3.186   3.262 -0.3953  0.7529  0.4072
 1243TIP3    H2 3694   3.389   3.142   3.243 -0.3151  1.2846 -0.2792
 1244TIP3   OH2 3695   1.423   0.908   4.746 -0.3547  0.1327  0.5205
 1244TIP3    H1 3696   1.412   0.932   4.838 -0.0545  0.6153  0.4375
 1244TIP3    H2 3697   1.382   0.981   4.698  2.6724  1.7817  0.2009
 1245TIP3   OH2 3698   3.735   3.290   2.538  0.1111  0.1711 -0.0348
 1245TIP3    H1 3699   3.719   3.335   2.621 -1.7792 -1.3127  0.4878
 1245TIP3    H2 3700   3.829   3.275   2.537  0.3561  1.3804  1.2071
 1246TIP3   OH2 3701   5.985   6.674   0.390 -0.0872 -0.1115  1.0434
 1246TIP3    H1 3702   6.033   6.758   0.388 -0.0412 -0.1039  2.0213
 1246TIP3    H2 3703   6.040   6.615   0.339  0.2443  0.2707  0.9435
 1247TIP3   OH2 3704   0.190   2.032   3.735 -0.5049  0.0258 -0.2624
 1247TIP3    H1 3705   0.271   2.065   3.774 -1.3842 -0.9213  2.6595
 1247TIP3    H2 3706   0.141   2.111   3.713  0.4159  0.6161 -0.2448
 1248TIP3   OH2 3707   1.371   3.367   0.305  0.1796  0.4583 -0.5610
 1248TIP3    H1 3708   1.419   3.438   0.347 -1.3645  0.8801  0.5766
 1248TIP3    H2 3709   1.310   3.336   0.372  0.6867 -1.8554 -1.0772
 1249TIP3   OH2 3710   4.708   0.123   5.302  0.0846 -0.5217  0.0744
 1249TIP3    H1 3711   4.736   0.199   5.251 -1.2467  0.0536  0.1460
 1249TIP3    H2 3712   4.705   0.051   5.238 -2.4904  0.3980 -0.9765
 1250TIP3   OH2 3713   2.839   4.910   3.355  0.4052  0.2592 -0.0307
 1250TIP3    H1 3714   2.871   4.840   3.411  0.6188  0.9282  0.7052
 1250TIP3    H2 3715   2.807   4.866   3.276  0.9470 -0.6153  0.2303
 1251TIP3   OH2 3716   5.531   3.490   2.340  0.1061  0.0662  0.5381
 1251TIP3    H1 3717   5.510   3.541   2.262  1.3491 -0.2923 -0.0611
 1251TIP3    H2 3718   5.476   3.528   2.409 -1.2172  0.2041 -0.5522
 1252TIP3   OH2 3719   5.243   3.604   2.000 -0.3432  0.0330  0.5203
 1252TIP3    H1 3720   5.186   3.534   2.030 -0.8311  0.1954  0.0051
 1252TIP3    H2 3721   5.184   3.663   1.952 -0.2686  1.6829  2.3678
 1253TIP3   OH2 3722   1.183   4.358   2.043 -0.2411  0.6602 -0.3902
 1253TIP3    H1 3723   1.162   4.312   1.962 -0.1498  1.1543 -0.6965
 1253TIP3    H2 3724   1.122   4.323   2.107 -1.0807  1.0898 -0.9463
 1254TIP3   OH2 3725   5.851   4.964   1.472  0.0763 -0.5633 -0.2954
 1254TIP3    H1 3726   5.845   5.060   1.468 -0.8946 -0.6523 -1.4657
 1254TIP3    H2 3727   5.816   4.942   1.558 -1.8931  0.0114 -0.8908
 1255TIP3   OH2 3728   2.934   2.032   5.346  0.0296  0.1088 -0.2274
 1255TIP3    H1 3729   2.996   2.005   5.278  0.2446 -0.0828  0.0452
 1255TIP3    H2 3730   2.853   2.049   5.298  0.1753 -0.0430 -0.5325
 1256TIP3   OH2 3731   2.910   2.263   2.255 -0.3545  0.4486  0.1665
 1256TIP3    H1 3732   2.940   2.354   2.247  1.6405 -0.2418 -0.9694
 1256TIP3    H2 3733   2.838   2.257   2.192 -0.2837  1.1667  0.0019
 1257TIP3   OH2 3734   0.511   4.857   1.587  0.3762  0.4180 -0.0601
 1257TIP3    H1 3735   0.486   4.919   1.655  1.1521 -0.9719  1.5659
 1257TIP3    H2 3736   0.602   4.880   1.566  0.8085 -0.4140  0.8578
 1258TIP3   OH2 3737   0.839   2.050   4.098  0.1621 -0.0446 -0.1176
 1258TIP3    H1 3738   0.849   1.999   4.017 -0.6119 -1.2672  0.5314
 1258TIP3    H2 3739   0.918   2.104   4.102  1.1833 -1.4324 -0.6805
 1259TIP3   OH2 3740   2.501   6.613   4.963  0.4458  0.4506  0.0459
 1259TIP3    H1 3741   2.424   6.599   4.907  0.1925 -0.0378  0.5084
 1259TIP3    H2 3742   2.466   6.635   5.049  0.7875 -1.0419  0.5943
 1260TIP3   OH2 3743   0.420   1.304   3.931  0.0900 -0.3167 -0.6041
 1260TIP3    H1 3744   0.477   1.326   3.858  0.4915 -0.8222 -0.4444
 1260TIP3    H2 3745   0.470   1.241   3.983 -0.2200 -0.0276  0.0623
 1261TIP3   OH2 3746   5.643   6.504   5.151 -0.7868 -0.3261 -0.2495
 1261TIP3    H1 3747   5.713   6.440   5.139 -0.9157 -1.4975  3.7674
 1261TIP3    H2 3748   5.564   6.451   5.163 -1.3168  0.6589  0.8566
 1262TIP3   OH2 3749   4.021   6.615   1.878  0.2277 -0.4380 -0.3671
 1262TIP3    H1 3750   3.987   6.525   1.883 -0.7804 -0.1285 -1.2254
 1262TIP3    H2 3751   3.995   6.655   1.961  1.3547 -1.1409  0.3518
 1263TIP3   OH2 3752   5.747   3.762   0.881  0.2076  0.2461 -0.1216
 1263TIP3    H1 3753   5.737   3.857   0.876 -1.5162  0.1073 -0.1280
 1263TIP3    H2 3754   5.743   3.742   0.975  3.9039  0.4082  0.1937
 1264TIP3   OH2 3755   4.088   3.467   1.601  0.5284  0.5602 -0.5285
 1264TIP3    H1 3756   4.081   3.422   1.686  0.0578  1.5284 -0.0309
 1264TIP3    H2 3757   4.118   3.399   1.540 -0.0408 -0.3866  0.2117
 1265TIP3   OH2 3758   0.869   2.894   1.489  0.1536 -0.3095  0.3459
 1265TIP3    H1 3759   0.936   2.884   1.557  0.2740 -1.7672  0.0492
 1265TIP3    H2 3760   0.913   2.869   1.408  0.8099  3.9558 -0.8209
 1266TIP3   OH2 3761   5.502   3.291   0.208 -0.3881 -0.3534 -0.7743
 1266TIP3    H1 3762   5.528   3.370   0.257 -2.7032 -0.8983  1.5683
 1266TIP3    H2 3763   5.540   3.219   0.259  2.4374 -0.8874 -3.3611
 1267TIP3   OH2 3764   4.042   6.676   4.465 -0.3982  0.6603 -0.1277
 1267TIP3    H1 3765   3.988   6.603   4.496 -0.3467  1.0381  0.8991
 1267TIP3    H2 3766   4.132   6.644   4.475 -0.3931  0.5208 -0.5856
 1268TIP3   OH2 3767   4.275   0.358   2.151 -0.0265 -0.5622  0.2044
 1268TIP3    H1 3768   4.233   0.373   2.066  0.5391  0.3736  0.0736
 1268TIP3    H2 3769   4.211   0.390   2.215 -0.3627 -1.0653  0.1222
 1269TIP3   OH2 3770   2.834   5.773   5.006 -0.7301 -0.3976  0.3551
 1269TIP3    H1 3771   2.852   5.778   5.099 -0.7037 -1.3918  0.4178
 1269TIP3    H2 3772   2.876   5.692   4.978 -0.3274  0.1350 -0.6165
 1270TIP3   OH2 3773   3.764   2.569   3.999  0.0208  0.4146  0.1334
 1270TIP3    H1 3774   3.763   2.633   3.928 -0.0312 -0.6446 -0.8461
 1270TIP3    H2 3775   3.808   2.614   4.072  0.8641  1.2276 -0.8509
 1271TIP3   OH2 3776   3.197   1.254   1.730  0.1876  0.1747 -0.2710
 1271TIP3    H1 3777   3.151   1.211   1.658  0.7778 -0.2658 -0.3896
 1271TIP3    H2 3778   3.192   1.192   1.802 -2.2789  1.4677  0.8011
 1272TIP3   OH2 3779   5.266   5.493   4.984 -0.3702 -0.9940 -0.0924
 1272TIP3    H1 3780   5.199   5.426   4.974 -0.0374 -1.3230 -0.1235
 1272TIP3    H2 3781   5.217   5.574   5.000 -0.8306 -1.0071 -1.3327
 1273TIP3   OH2 3782   2.080   4.658   2.866  0.2861 -0.0241  0.0919
 1273TIP3    H1 3783   2.008   4.696   2.916  0.4267  2.1242 -1.2163
 1273TIP3    H2 3784   2.159   4.698   2.904  0.5475 -0.0135 -0.4514
 1274TIP3   OH2 3785   5.677   6.583   1.020 -0.2503 -0.2962  0.5279
 1274TIP3    H1 3786   5.676   6.489   1.001  0.3444 -0.4806  1.3367
 1274TIP3    H2 3787   5.586   6.611   1.011 -0.4545 -0.9874  0.4288
 1275TIP3   OH2 3788   6.670   3.064   1.173 -0.1507 -0.1695 -0.1494
 1275TIP3    H1 3789   6.736   3.018   1.121  0.1849  1.6755 -1.4843
 1275TIP3    H2 3790   6.720   3.106   1.244 -0.2911 -0.9127  0.3966
 1276TIP3   OH2 3791   3.751   1.656   5.221 -0.0553  0.0271 -0.4320
 1276TIP3    H1 3792   3.758   1.652   5.125  0.1671 -1.9366 -0.3711
 1276TIP3    H2 3793   3.781   1.570   5.251 -0.6476  0.4129  1.3802
 1277TIP3   OH2 3794   2.058   4.086   2.158  0.5125  0.0842  0.3903
 1277TIP3    H1 3795   2.085   4.041   2.238 -1.0255  0.2641  1.0459
 1277TIP3    H2 3796   1.963   4.091   2.164  0.4010  0.5520 -1.2249
 1278TIP3   OH2 3797   3.437   2.765   4.750  0.7469 -0.4130 -0.4896
 1278TIP3    H1 3798   3.366   2.759   4.814  1.0467 -1.3965 -0.2294
 1278TIP3    H2 3799   3.435   2.682   4.704  2.2335 -0.8012  0.0791
 1279TIP3   OH2 3800   0.873   2.110   5.118 -0.2686  0.5616 -0.0951
 1279TIP3    H1 3801   0.823   2.063   5.184 -0.8156  0.8198 -0.3210
 1279TIP3    H2 3802   0.846   2.070   5.035  0.4459  0.2059 -0.1670
 1280TIP3   OH2 3803   1.807   5.605   1.382  0.9583 -0.0273  0.0401
 1280TIP3    H1 3804   1.802   5.582   1.475 -0.1381 -1.4885 -0.3458
 1280TIP3    H2 3805   1.844   5.527   1.340 -1.9421 -0.8813 -1.2013
 1281TIP3   OH2 3806   5.972   0.532   0.645  0.6284 -0.2896  0.3730
 1281TIP3    H1 3807   5.979   0.525   0.741 -0.9643 -1.8817  0.4190
 1281TIP3    H2 3808   6.045   0.480   0.612  1.3686  0.5173  0.7023
 1282TIP3   OH2 3809   6.952   4.987   1.477  0.0248 -0.1526  0.0350
 1282TIP3    H1 3810   6.913   5.059   1.527  1.0519  0.8212 -0.5274
 1282TIP3    H2 3811   6.877   4.932   1.452 -0.9638  1.4475 -0.6734
 1283TIP3   OH2 3812   0.408   4.329   4.553  0.1979  0.1664 -0.2915
 1283TIP3    H1 3813   0.396   4.271   4.628 -1.1734 -2.3925 -2.3245
 1283TIP3    H2 3814   0.319   4.352   4.525  0.4729 -1.4458 -2.8440
 1284TIP3   OH2 3815   0.416   5.494   1.323  0.0724  0.0336 -0.0893
 1284TIP3    H1 3816   0.448   5.559   1.260  0.0746 -1.2813 -1.5127
 1284TIP3    H2 3817   0.446   5.411   1.288 -0.6148 -0.8114  1.2601
 1285TIP3   OH2 3818   7.162   1.665   0.618 -0.1965 -0.0591  0.4474
 1285TIP3    H1 3819   7.220   1.592   0.597 -0.9581 -0.5503 -0.0168
 1285TIP3    H2 3820   7.074   1.626   0.618 -1.0349  1.4040 -3.0924
 1286TIP3   OH2 3821   4.184   3.349   3.255 -0.0080 -0.7426  0.1573
 1286TIP3    H1 3822   4.222   3.415   3.197 -0.3732  0.5778  1.3715
 1286TIP3    H2 3823   4.252   3.331   3.319 -1.0644  1.0779  1.8935
 1287TIP3   OH2 3824   0.143   0.043   1.241 -0.7747  0.4207  0.2260
 1287TIP3    H1 3825   0.217   0.088   1.200 -0.8286 -0.3942 -0.8333
 1287TIP3    H2 3826   0.153  -0.049   1.213 -2.9457  0.5281 -1.1567
 1288TIP3   OH2 3827   4.151   5.792   2.736  0.4102  0.0726  0.3029
 1288TIP3    H1 3828   4.087   5.739   2.689  1.4809 -0.2053 -0.8910
 1288TIP3    H2 3829   4.221   5.806   2.673  1.1454  1.0772  1.3132
 1289TIP3   OH2 3830   1.413   0.861   4.259  0.1159 -0.1193  0.2185
 1289TIP3    H1 3831   1.458   0.805   4.322 -1.8426  0.0084  1.8206
 1289TIP3    H2 3832   1.477   0.929   4.237  2.2886 -2.4079 -1.1671
 1290TIP3   OH2 3833   6.327   6.024   2.960  0.0222  0.2415 -0.5348
 1290TIP3    H1 3834   6.332   6.114   2.929 -0.7480  0.5258  0.1183
 1290TIP3    H2 3835   6.255   5.985   2.911  1.0011 -0.3312 -1.5428
 1291TIP3   OH2 3836   1.131   3.990   2.212 -0.2188  0.6288 -0.1885
 1291TIP3    H1 3837   1.144   4.058   2.277  1.6636  0.1707 -0.0484
 1291TIP3    H2 3838   1.218   3.954   2.197 -0.8966 -0.4927 -1.6306
 1292TIP3   OH2 3839   1.002   0.614   5.737 -0.2352 -0.1564  0.4252
 1292TIP3    H1 3840   0.961   0.531   5.759 -0.9497 -0.2438 -1.0818
 1292TIP3    H2 3841   0.961   0.640   5.654 -1.1722  2.4923  1.6170
 1293TIP3   OH2 3842   5.981   5.867   1.264 -0.0863 -0.7505  0.8884
 1293TIP3    H1 3843   6.077   5.876   1.259 -0.0684 -1.6139 -1.4215
 1293TIP3    H2 3844   5.963   5.783   1.223 -1.9784  0.2049 -0.3576
 1294TIP3   OH2 3845   0.898   1.517   4.734 -0.6626 -0.1521 -0.4426
 1294TIP3    H1 3846   0.823   1.559   4.777 -0.0675 -0.2043  0.6961
 1294TIP3    H2 3847   0.941   1.588   4.687 -1.7331 -0.2335 -1.5743
 1295TIP3   OH2 3848   1.304   3.099   5.509  0.0943 -0.0409  0.3735
 1295TIP3    H1 3849   1.224   3.066   5.468 -0.1042  0.2776  0.5004
 1295TIP3    H2 3850   1.304   3.193   5.490 -0.5737  0.3253  2.0183
 1296TIP3   OH2 3851   6.917   1.253   2.863  0.4530  0.7181 -0.2285
 1296TIP3    H1 3852   6.891   1.189   2.930 -0.1717  1.3465  0.1350
 1296TIP3    H2 3853   6.855   1.325   2.872  1.6775  1.7871 -0.0548
 1297TIP3   OH2 3854   1.601   3.181   0.884 -0.0316 -0.2777  0.3860
 1297TIP3    H1 3855   1.553   3.115   0.834  0.0954 -0.1663  0.1147
 1297TIP3    H2 3856   1.658   3.222   0.820  0.3781 -0.3623  0.6900
 1298TIP3   OH2 3857   3.235   4.160   1.292  0.3820  0.6950 -0.4511
 1298TIP3    H1 3858   3.254   4.252   1.273  1.1727  0.6014 -0.1634
 1298TIP3    H2 3859   3.291   4.140   1.367  1.2300 -0.4006 -1.3463
 1299TIP3   OH2 3860   4.289   2.574   3.826  0.4012 -0.6342 -0.0242
 1299TIP3    H1 3861   4.310   2.567   3.732 -1.5073 -1.6634 -0.4236
 1299TIP3    H2 3862   4.323   2.493   3.863  1.6808  0.0356  0.3131
 1300TIP3   OH2 3863   2.437   5.780   3.235 -0.9840 -0.1033 -0.1250
 1300TIP3    H1 3864   2.404   5.838   3.304 -1.3416 -1.5611  1.0104
 1300TIP3    H2 3865   2.515   5.740   3.274 -0.3127  0.1672 -1.1718
 1301TIP3   OH2 3866   5.490   2.621   1.992  0.3678 -0.4879  0.4398
 1301TIP3    H1 3867   5.467   2.583   2.077 -1.3468  0.3908  0.3960
 1301TIP3    H2 3868   5.558   2.685   2.013  2.0328 -2.2197  0.7289
 1302TIP3   OH2 3869   6.136   2.743   3.725 -0.0409  0.2407 -0.1288
 1302TIP3    H1 3870   6.208   2.694   3.684 -0.0468 -1.6786  1.9888
 1302TIP3    H2 3871   6.058   2.715   3.678 -0.2006 -2.8052  1.7338
 1303TIP3   OH2 3872   3.230   2.147   3.750 -0.0395 -0.0172  0.2727
 1303TIP3    H1 3873   3.315   2.121   3.787 -0.0647  1.2229  1.2630
 1303TIP3    H2 3874   3.252   2.204   3.676 -0.0104 -0.4785 -0.0781
 1304TIP3   OH2 3875   3.137   6.643   2.270 -0.1236 -0.3748 -0.1570
 1304TIP3    H1 3876   3.158   6.688   2.352 -1.1254  0.9167 -0.5916
 1304TIP3    H2 3877   3.046   6.616   2.279  0.0517 -1.1072 -0.4639
 1305TIP3   OH2 3878   1.597   0.946   3.962  0.4907  0.0031  0.0424
 1305TIP3    H1 3879   1.623   0.958   4.053 -0.7915 -0.4361  0.4814
 1305TIP3    H2 3880   1.591   1.035   3.927 -0.7384  0.2764  0.8981
 1306TIP3   OH2 3881   1.817   5.698   3.869  0.5940 -0.5900  0.3090
 1306TIP3    H1 3882   1.896   5.646   3.857 -0.4804 -2.4978  1.1577
 1306TIP3    H2 3883   1.755   5.639   3.910 -0.3940  1.6221  2.2539
 1307TIP3   OH2 3884   0.857   0.753   1.220  0.4377 -0.3662  0.4320
 1307TIP3    H1 3885   0.919   0.796   1.161  1.9636 -0.0633  2.1921
 1307TIP3    H2 3886   0.843   0.667   1.180  1.8851 -0.3867 -0.0859
 1308TIP3   OH2 3887   2.342   4.408   4.441 -0.2442  0.2234  0.0039
 1308TIP3    H1 3888   2.267   4.348   4.441 -0.7614  0.7725 -2.1624
 1308TIP3    H2 3889   2.335   4.455   4.525 -0.5409 -1.8276  1.1798
 1309TIP3   OH2 3890   2.956   1.881   4.598  0.3609 -0.0541 -0.6129
 1309TIP3    H1 3891   3.010   1.927   4.534 -0.3492 -0.1380 -1.2833
 1309TIP3    H2 3892   2.929   1.948   4.660  1.7344 -0.1171  0.1054
 1310TIP3   OH2 3893   5.057   5.325   0.055  0.4648  0.2097  0.1588
 1310TIP3    H1 3894   4.981   5.302   0.107  0.0164  0.8664 -0.1819
 1310TIP3    H2 3895   5.035   5.411   0.017  0.7399 -0.2688 -1.1448
 1311TIP3   OH2 3896   0.434   6.327   0.740 -0.4439 -0.3918 -0.5843
 1311TIP3    H1 3897   0.474   6.381   0.671 -2.2357 -0.5798 -1.8510
 1311TIP3    H2 3898   0.375   6.387   0.786 -0.1172 -0.5504  0.0497
 1312TIP3   OH2 3899   1.835   2.225   0.247 -0.0096 -0.0214 -0.2042
 1312TIP3    H1 3900   1.839   2.143   0.199 -0.1576 -0.3277  0.3029
 1312TIP3    H2 3901   1.820   2.292   0.180  2.0612 -0.1535 -0.8814
 1313TIP3   OH2 3902   0.751   4.800   1.380 -0.1562 -0.3443 -0.4166
 1313TIP3    H1 3903   0.750   4.887   1.342 -0.8642 -0.0982  0.1495
 1313TIP3    H2 3904   0.844   4.775   1.382  0.2145  1.0142  0.8003
 1314TIP3   OH2 3905   6.775   0.185   5.649 -0.4206 -0.3956 -0.1620
 1314TIP3    H1 3906   6.857   0.234   5.655 -0.5672 -0.1409 -0.2286
 1314TIP3    H2 3907   6.715   0.230   5.708 -0.5247 -0.5571 -0.1440
 1315TIP3   OH2 3908   3.873   0.384   2.431  0.1128  0.3325  0.3030
 1315TIP3    H1 3909   3.823   0.466   2.426 -1.2200 -0.4087  1.0357
 1315TIP3    H2 3910   3.881   0.355   2.340 -2.4090 -0.4480  0.2539
 1316TIP3   OH2 3911   6.683   6.442   1.251  0.4003 -0.1816 -0.0806
 1316TIP3    H1 3912   6.669   6.531   1.219  0.3800 -0.8846 -2.1290
 1316TIP3    H2 3913   6.600   6.418   1.294 -0.3016  0.1099 -1.2361
 1317TIP3   OH2 3914   2.588   0.330   1.226 -0.2588 -0.7439  0.0576
 1317TIP3    H1 3915   2.667   0.369   1.188  0.6325 -0.7546  1.7956
 1317TIP3    H2 3916   2.519   0.395   1.208 -0.2054 -1.2683 -2.5252
 1318TIP3   OH2 3917   5.682   5.848   0.607  0.5283  0.2770 -0.0152
 1318TIP3    H1 3918   5.611   5.913   0.606 -0.0693 -0.3718 -1.3332
 1318TIP3    H2 3919   5.733   5.866   0.529 -0.6599 -1.8913 -1.3780
 1319TIP3   OH2 3920   3.846   3.741   5.002  0.2057 -0.2635 -0.2758
 1319TIP3    H1 3921   3.894   3.660   5.017 -1.1856 -1.1568 -0.5415
 1319TIP3    H2 3922   3.762   3.714   4.966 -0.0600  1.3337 -0.9579
 1320TIP3   OH2 3923   4.905   0.365   0.156 -0.2569  0.0375 -0.0735
 1320TIP3    H1 3924   4.972   0.307   0.190  0.0713 -0.7191 -1.8628
 1320TIP3    H2 3925   4.843   0.377   0.228  1.5305  0.3826  1.4573
 1321TIP3   OH2 3926   2.979   5.186   5.639  0.2135  0.9026  0.4554
 1321TIP3    H1 3927   3.069   5.192   5.673  0.1397  1.8473  0.4956
 1321TIP3    H2 3928   2.927   5.159   5.715  0.4107  0.6449  0.5028
 1322TIP3   OH2 3929   6.739   1.821   1.479 -0.0560 -0.1150  0.6258
 1322TIP3    H1 3930   6.658   1.771   1.488  0.2647 -0.7952 -0.1925
 1322TIP3    H2 3931   6.791   1.797   1.556 -0.1221 -0.6188  0.5133
 1323TIP3   OH2 3932   6.344   0.729   1.940 -0.0590 -0.2014 -0.0376
 1323TIP3    H1 3933   6.426   0.708   1.984  0.7721  0.4849 -1.2305
 1323TIP3    H2 3934   6.369   0.786   1.868 -1.6717  0.6601  0.0422
 1324TIP3   OH2 3935   1.543   3.680   1.401  0.3580 -0.5437 -0.0168
 1324TIP3    H1 3936   1.511   3.671   1.491 -1.4327 -0.5407 -0.6273
 1324TIP3    H2 3937   1.494   3.615   1.351 -0.6509  1.2417 -1.4660
 1325TIP3   OH2 3938   6.288   1.065   1.476 -0.4875  0.4972 -0.0708
 1325TIP3    H1 3939   6.241   1.131   1.425 -0.6491  0.6664  0.2942
 1325TIP3    H2 3940   6.296   1.104   1.563 -2.8247 -0.9809  0.9016
 1326TIP3   OH2 3941   1.241   4.412   3.435 -0.2496 -0.3391 -0.0369
 1326TIP3    H1 3942   1.197   4.459   3.365 -0.9290 -0.8559  0.0332
 1326TIP3    H2 3943   1.274   4.480   3.493  2.2888  0.2548 -1.9476
 1327TIP3   OH2 3944   2.975   1.933   2.016 -0.0817  0.4990  0.7536
 1327TIP3    H1 3945   2.963   1.999   2.084 -0.9013  2.0547 -0.8088
 1327TIP3    H2 3946   2.987   1.984   1.935  1.8066 -1.2438 -0.1529
 1328TIP3   OH2 3947   4.414   2.416   0.690  0.0575  0.1279 -0.2089
 1328TIP3    H1 3948   4.461   2.400   0.608  0.0467 -0.2454 -0.1430
 1328TIP3    H2 3949   4.419   2.511   0.702 -1.6012  0.4438 -1.6467
 1329TIP3   OH2 3950   4.887   0.618   0.676  0.4795 -0.1647 -0.7882
 1329TIP3    H1 3951   4.878   0.701   0.724  2.4232 -1.6841  2.5242
 1329TIP3    H2 3952   4.981   0.613   0.655  0.6482 -2.0480  0.2334
 1330TIP3   OH2 3953   4.040   3.461   5.381  0.3306  0.2096 -0.0272
 1330TIP3    H1 3954   4.132   3.476   5.404  0.2102  0.5694  0.2191
 1330TIP3    H2 3955   4.035   3.484   5.288  0.6710 -0.6109 -0.2514
 1331TIP3   OH2 3956   0.814   2.477   1.425  0.7078 -1.2082 -0.1296
 1331TIP3    H1 3957   0.796   2.496   1.333 -1.1063 -0.5663  0.3050
 1331TIP3    H2 3958   0.894   2.526   1.445  1.0250 -1.2245 -1.3174
 1332TIP3   OH2 3959   1.285   4.423   4.665  0.2574  0.0099  0.2178
 1332TIP3    H1 3960   1.236   4.369   4.604  0.8060 -1.1926  0.8009
 1332TIP3    H2 3961   1.251   4.399   4.751  0.6518  0.4431  0.4996
 1333TIP3   OH2 3962   5.470   3.019   2.216 -0.2279  0.3592 -1.2823
 1333TIP3    H1 3963   5.537   3.011   2.149 -0.7231  0.1947 -1.7724
 1333TIP3    H2 3964   5.495   3.096   2.267 -0.1767  0.8666 -2.0514
 1334TIP3   OH2 3965   2.841   6.083   0.951  0.0925  0.3413  0.7181
 1334TIP3    H1 3966   2.868   6.131   1.029  0.1957  2.4393 -0.5214
 1334TIP3    H2 3967   2.920   6.080   0.896 -0.8220  2.1967 -0.8383
 1335TIP3   OH2 3968   3.094   6.414   1.437 -0.0460 -0.4273  0.2597
 1335TIP3    H1 3969   3.101   6.332   1.486  2.4737  0.6606  1.9479
 1335TIP3    H2 3970   3.182   6.453   1.442 -0.4952  1.2529 -2.5683
 1336TIP3   OH2 3971   4.965   3.848   1.593 -0.2829  0.0365  0.1451
 1336TIP3    H1 3972   5.050   3.885   1.619 -0.5810  0.0936  1.0564
 1336TIP3    H2 3973   4.938   3.901   1.519 -0.2548  1.0397  0.8390
 1337TIP3   OH2 3974   3.959   6.760   2.148  0.0911  0.2615  0.4552
 1337TIP3    H1 3975   3.905   6.684   2.171 -0.4184  0.9694  1.7009
 1337TIP3    H2 3976   3.905   6.836   2.171  1.1547  0.9980  0.6273
 1338TIP3   OH2 3977   0.729   3.109   3.673  0.3673 -0.2967 -0.1103
 1338TIP3    H1 3978   0.691   3.162   3.743 -0.2460 -1.0064  0.1061
 1338TIP3    H2 3979   0.784   3.045   3.719  0.1423 -0.6220 -0.2923
 1339TIP3   OH2 3980   1.355   1.276   4.901 -0.3483 -0.0450  0.1926
 1339TIP3    H1 3981   1.292   1.336   4.862  0.6473  0.8253 -0.1103
 1339TIP3    H2 3982   1.310   1.242   4.979 -1.4986 -0.0985 -0.4691
 1340TIP3   OH2 3983   1.987   5.295   2.367  0.1771 -0.3393  0.1271
 1340TIP3    H1 3984   2.077   5.323   2.383  1.9004 -3.8472 -2.1659
 1340TIP3    H2 3985   1.947   5.369   2.321  2.2108  0.9327  0.2744
 1341TIP3   OH2 3986   0.742   2.353   5.642  0.1956 -0.0799 -0.7824
 1341TIP3    H1 3987   0.756   2.333   5.735 -0.3730  0.2178 -0.6286
 1341TIP3    H2 3988   0.717   2.445   5.641  1.1475  0.1911 -1.3316
 1342TIP3   OH2 3989   2.896   4.874   0.288  0.5266 -0.0639 -0.0370
 1342TIP3    H1 3990   2.925   4.861   0.198  1.0364  1.5229 -0.1322
 1342TIP3    H2 3991   2.966   4.924   0.330  0.0832 -0.3560  1.1075
 1343TIP3   OH2 3992   2.703   5.145   4.574  0.2417  0.0129 -0.3249
 1343TIP3    H1 3993   2.633   5.082   4.557  0.8116 -0.1726 -2.2353
 1343TIP3    H2 3994   2.769   5.126   4.507  1.2211  1.5064  0.1650
 1344TIP3   OH2 3995   1.671   0.615   1.107 -0.4021  0.4115  0.0435
 1344TIP3    H1 3996   1.749   0.639   1.056 -0.5587  1.3895  0.2363
 1344TIP3    H2 3997   1.677   0.520   1.118 -0.4310  0.1472 -1.9106
 1345TIP3   OH2 3998   6.814   2.608   5.632  0.3087 -0.5825  0.1579
 1345TIP3    H1 3999   6.754   2.555   5.580  1.5401 -2.3760  0.4375
 1345TIP3    H2 4000   6.890   2.551   5.646  0.5365  0.2501  2.9072
 1346TIP3   OH2 4001   3.211   4.663   2.221  0.4541 -1.0584  0.3015
 1346TIP3    H1 4002   3.121   4.632   2.230  0.4729 -1.1954  0.0264
 1346TIP3    H2 4003   3.209   4.753   2.253 -0.1039 -0.5546 -1.0864
 1347TIP3   OH2 4004   6.137   2.449   5.349  0.1135  0.1529  0.2611
 1347TIP3    H1 4005   6.158   2.517   5.413  0.7648 -0.6593  0.9475
 1347TIP3    H2 4006   6.097   2.495   5.276 -1.9984  0.9992  1.8383
 1348TIP3   OH2 4007   4.092   0.965   5.857  0.3254 -0.1027 -0.4080
 1348TIP3    H1 4008   4.128   0.878   5.872  0.1164 -0.1833 -0.3793
 1348TIP3    H2 4009   4.168   1.023   5.862  0.0127  0.1884  3.2186
 1349TIP3   OH2 4010   1.475   2.834   1.150  0.3683  0.0395 -0.0191
 1349TIP3    H1 4011   1.462   2.779   1.073 -0.6725  0.4141 -0.1201
 1349TIP3    H2 4012   1.522   2.777   1.212 -0.0681 -0.7331 -0.3849
 1350TIP3   OH2 4013   5.558   4.449   0.208  0.1744  0.6319  0.0792
 1350TIP3    H1 4014   5.524   4.533   0.175  0.1593 -0.5465 -3.2673
 1350TIP3    H2 4015   5.483   4.390   0.203  0.2023  0.3222  2.3472
 1351TIP3   OH2 4016   2.580   1.834   1.106  0.4554  0.3722  0.3179
 1351TIP3    H1 4017   2.668   1.821   1.142  0.7037  0.8946 -0.0664
 1351TIP3    H2 4018   2.546   1.746   1.094  0.8330  0.1670  0.7011
 1352TIP3   OH2 4019   6.315   5.229   5.364 -0.0207  0.0650  0.3742
 1352TIP3    H1 4020   6.326   5.140   5.396  0.2430  0.4922  1.5141
 1352TIP3    H2 4021   6.241   5.264   5.414 -1.5707 -0.1865 -1.6116
 1353TIP3   OH2 4022   0.178   2.357   3.173 -0.0072 -0.3659  0.1130
 1353TIP3    H1 4023   0.188   2.282   3.232 -0.5014 -1.3832 -1.0398
 1353TIP3    H2 4024   0.241   2.340   3.103 -0.4321  0.0699 -0.3821
 1354TIP3   OH2 4025   5.831   2.267   0.412 -0.0692 -0.1784 -0.5968
 1354TIP3    H1 4026   5.827   2.283   0.318  1.1678  0.6221 -0.5411
 1354TIP3    H2 4027   5.918   2.231   0.427  0.3602  1.1766  0.4283
 1355TIP3   OH2 4028   4.615   4.624   2.561 -0.1927  0.2729  0.0509
 1355TIP3    H1 4029   4.520   4.613   2.558 -0.0458 -2.0058  1.3576
 1355TIP3    H2 4030   4.647   4.575   2.485  0.0290 -0.8363  0.8457
 1356TIP3   OH2 4031   0.522   5.421   4.611  0.3339 -0.1856  0.4826
 1356TIP3    H1 4032   0.516   5.381   4.698  0.6703  0.8919  1.0195
 1356TIP3    H2 4033   0.614   5.447   4.602  0.3703 -0.5595 -0.3277
 1357TIP3   OH2 4034   6.685   3.414   1.187  0.2371  0.6226 -0.0066
 1357TIP3    H1 4035   6.689   3.357   1.110  0.0869 -0.3322  0.6764
 1357TIP3    H2 4036   6.683   3.354   1.261  1.5563  1.5369  0.8083
 1358TIP3   OH2 4037   2.892   3.319   2.996  0.3199 -0.3522  0.3907
 1358TIP3    H1 4038   2.821   3.298   3.057 -0.5685 -1.5783 -1.0030
 1358TIP3    H2 4039   2.857   3.390   2.942 -0.4721 -1.9344 -1.2584
 1359TIP3   OH2 4040   0.224   1.555   0.244 -0.3006  0.2594 -0.2937
 1359TIP3    H1 4041   0.150   1.495   0.232 -1.6465  1.8130 -0.0017
 1359TIP3    H2 4042   0.296   1.498   0.271 -1.8039 -1.1355  1.0047
 1360TIP3   OH2 4043   2.656   6.216   4.500  0.2711 -1.0429 -0.1922
 1360TIP3    H1 4044   2.749   6.201   4.486  0.4635 -0.6559  0.6073
 1360TIP3    H2 4045   2.651   6.253   4.588 -0.6384 -1.0678 -0.2275
 1361TIP3   OH2 4046   0.992   0.527   3.375 -0.9731  0.7906 -0.1991
 1361TIP3    H1 4047   1.044   0.593   3.420 -0.8818 -0.3016  1.3733
 1361TIP3    H2 4048   0.902   0.560   3.380 -0.8670  1.0384  0.1135
 1362TIP3   OH2 4049   3.805   3.893   0.689 -0.1057  0.1447 -0.6085
 1362TIP3    H1 4050   3.891   3.866   0.657  0.2543 -0.4904  0.8198
 1362TIP3    H2 4051   3.818   3.906   0.783 -1.4009  0.7754 -0.5034
 1363TIP3   OH2 4052   7.124   4.951   1.060  0.5721 -0.5258  0.2040
 1363TIP3    H1 4053   7.100   5.032   1.015 -1.8957 -0.2772  1.8083
 1363TIP3    H2 4054   7.069   4.884   1.020 -0.1257 -0.6800  1.3698
 1364TIP3   OH2 4055   2.669   1.928   0.018 -0.3053  0.5831 -0.2679
 1364TIP3    H1 4056   2.656   1.886   0.103  1.4905  1.4028  0.4568
 1364TIP3    H2 4057   2.588   1.909  -0.031 -1.2503 -0.1395  1.4949
 1365TIP3   OH2 4058   0.073   5.335   1.576  0.4447  0.1970  0.0248
 1365TIP3    H1 4059   0.090   5.425   1.547 -2.0068  1.0021  0.7674
 1365TIP3    H2 4060   0.030   5.294   1.501  0.9792 -0.1581 -0.0886
 1366TIP3   OH2 4061   3.691   5.023   2.117  0.0087 -0.0735 -0.0330
 1366TIP3    H1 4062   3.764   4.966   2.143 -1.3410 -1.2207  1.4667
 1366TIP3    H2 4063   3.686   5.088   2.187  0.2863  0.7146 -0.7259
 1367TIP3   OH2 4064   3.118   5.045   3.111  0.4024 -0.0386  0.2655
 1367TIP3    H1 4065   3.096   5.124   3.160 -0.8401 -0.7635  0.9272
 1367TIP3    H2 4066   3.033   5.007   3.089  0.9791 -0.9260 -0.4907
 1368TIP3   OH2 4067   7.012   3.195   5.833 -0.5307 -0.0642  0.8378
 1368TIP3    H1 4068   6.959   3.185   5.754 -1.3588 -1.2883  1.5302
 1368TIP3    H2 4069   6.949   3.200   5.905  0.1931  1.4619  1.4255
 1369TIP3   OH2 4070   4.556   5.465   1.145 -0.4516 -0.2961  0.1670
 1369TIP3    H1 4071   4.608   5.386   1.130 -0.2471 -0.4059  1.3684
 1369TIP3    H2 4072   4.478   5.452   1.091  0.8559  0.0118 -1.8976
 1370TIP3   OH2 4073   3.543   3.971   0.815  0.3451  0.7218 -0.4245
 1370TIP3    H1 4074   3.505   3.887   0.788  0.4640  1.3718 -2.8389
 1370TIP3    H2 4075   3.618   3.983   0.757  1.9398  1.3297  1.6263
 1371TIP3   OH2 4076   4.655   4.571   3.759  0.7366  0.1904 -0.9754
 1371TIP3    H1 4077   4.589   4.542   3.821 -0.5059  0.0215 -2.3069
 1371TIP3    H2 4078   4.706   4.636   3.806  0.2190 -0.3659  0.3884
 1372TIP3   OH2 4079   2.650   4.217   0.208  0.4364 -0.2642 -0.3302
 1372TIP3    H1 4080   2.656   4.160   0.285 -2.7786  0.5728  0.7024
 1372TIP3    H2 4081   2.684   4.301   0.237  0.2020 -0.2280 -0.1613
 1373TIP3   OH2 4082   2.923   2.434   5.387  0.0015 -0.4136 -0.5388
 1373TIP3    H1 4083   2.890   2.513   5.431  1.8527  0.4157 -0.5543
 1373TIP3    H2 4084   2.869   2.427   5.308 -1.4802 -0.3079  0.4116
 1374TIP3   OH2 4085   5.202   3.269   1.644 -0.0636 -0.5040  0.4470
 1374TIP3    H1 4086   5.203   3.177   1.618  2.0003 -0.5511  0.5382
 1374TIP3    H2 4087   5.212   3.267   1.740  0.3890 -0.1768  0.4063
 1375TIP3   OH2 4088   4.397   4.091   1.929  0.2237 -0.2399 -0.5294
 1375TIP3    H1 4089   4.433   4.010   1.966  0.8369 -0.0536 -0.7140
 1375TIP3    H2 4090   4.416   4.085   1.836  0.4438  0.2147 -0.5121
 1376TIP3   OH2 4091   5.222   2.930   5.440  0.4571 -0.4881 -0.0255
 1376TIP3    H1 4092   5.255   2.871   5.508  0.9759 -0.1601  0.0132
 1376TIP3    H2 4093   5.214   3.015   5.484  2.4746  0.1582 -0.7808
 1377TIP3   OH2 4094   3.376   5.926   0.991 -0.1188  0.3726 -0.0240
 1377TIP3    H1 4095   3.284   5.944   1.011 -0.3989 -0.8990 -0.1191
 1377TIP3    H2 4096   3.397   5.848   1.042  0.5272 -0.1340 -1.0406
 1378TIP3   OH2 4097   4.792   5.852   2.145 -0.1530 -0.6029  0.1326
 1378TIP3    H1 4098   4.843   5.856   2.226 -1.5258 -1.8720  1.1143
 1378TIP3    H2 4099   4.701   5.853   2.174 -0.7602  2.0830 -1.5968
 1379TIP3   OH2 4100   5.948   3.639   2.243  0.2476 -0.1038  0.8466
 1379TIP3    H1 4101   5.968   3.712   2.302 -2.2753  1.8992 -0.5725
 1379TIP3    H2 4102   5.910   3.681   2.166 -2.4333 -2.9522  0.4362
 1380TIP3   OH2 4103   2.509   1.364   3.778  0.0100  0.4463 -0.0165
 1380TIP3    H1 4104   2.457   1.414   3.715 -0.3141  0.5300  0.3164
 1380TIP3    H2 4105   2.448   1.299   3.814  0.9605 -1.7983 -2.1349
 1381TIP3   OH2 4106   5.973   2.976   3.571 -0.0067  0.1909  0.3487
 1381TIP3    H1 4107   6.019   2.948   3.650 -0.8536 -2.1997  0.0657
 1381TIP3    H2 4108   5.891   2.928   3.572 -0.3042  0.5535 -1.6884
 1382TIP3   OH2 4109   3.848   3.431   1.436  0.2077 -0.1707  0.3792
 1382TIP3    H1 4110   3.904   3.506   1.457  1.7914 -1.7946  2.2854
 1382TIP3    H2 4111   3.874   3.406   1.347  1.9714 -0.3759  0.9098
 1383TIP3   OH2 4112   4.155   1.213   0.593 -0.6432 -0.2092 -0.6443
 1383TIP3    H1 4113   4.100   1.167   0.657 -1.4137  0.4019 -0.8472
 1383TIP3    H2 4114   4.235   1.233   0.641 -0.7082 -0.8655 -0.2522
 1384TIP3   OH2 4115   3.926   5.591   4.564 -0.0220  0.0703  0.3804
 1384TIP3    H1 4116   4.008   5.545   4.578  0.1649  0.1612 -0.3763
 1384TIP3    H2 4117   3.943   5.681   4.593 -0.0614 -0.0635  0.8351
 1385TIP3   OH2 4118   2.601   4.364   2.507  0.1543 -0.4235  0.0556
 1385TIP3    H1 4119   2.624   4.388   2.417 -0.9504 -0.7247 -0.3154
 1385TIP3    H2 4120   2.598   4.269   2.507 -0.4603 -0.4060  0.2577
 1386TIP3   OH2 4121   2.208   6.661   5.332 -0.7641 -0.1480  0.0857
 1386TIP3    H1 4122   2.202   6.680   5.426 -2.1812  1.7024 -0.3234
 1386TIP3    H2 4123   2.263   6.583   5.327  0.4890  0.5112  2.3496
 1387TIP3   OH2 4124   5.593   5.585   3.499 -0.2539  0.5567 -0.3612
 1387TIP3    H1 4125   5.659   5.580   3.568  3.0898  0.6448 -3.2843
 1387TIP3    H2 4126   5.556   5.673   3.507  0.1268  0.5999  1.1829
 1388TIP3   OH2 4127   3.513   3.604   5.148  0.3996 -0.1188 -0.1966
 1388TIP3    H1 4128   3.430   3.559   5.135 -1.0654  2.7668 -1.8986
 1388TIP3    H2 4129   3.547   3.618   5.060  1.0281  1.5423  0.2699
 1389TIP3   OH2 4130   1.569   6.561   0.952 -0.1745 -0.4458  0.1365
 1389TIP3    H1 4131   1.622   6.641   0.957 -1.1946  0.2136  0.9754
 1389TIP3    H2 4132   1.479   6.593   0.949 -0.5808 -1.5681  0.0647
 1390TIP3   OH2 4133   4.401   5.711   2.872 -0.1346  0.2715 -0.5383
 1390TIP3    H1 4134   4.352   5.661   2.937  0.3761  0.1366 -0.2482
 1390TIP3    H2 4135   4.348   5.706   2.792 -0.8170  0.5187 -0.1101
 1391TIP3   OH2 4136   2.782   1.856   3.214 -0.0472 -0.0468  0.3475
 1391TIP3    H1 4137   2.742   1.785   3.165  0.3246  0.9984 -1.5905
 1391TIP3    H2 4138   2.826   1.813   3.287 -1.1388 -1.6184  0.1308
 1392TIP3   OH2 4139   4.710   3.900   1.835  0.2543 -0.0646  0.3064
 1392TIP3    H1 4140   4.634   3.938   1.790 -0.1411 -0.4389  0.6468
 1392TIP3    H2 4141   4.751   3.844   1.769 -1.7400 -2.5914  1.0445
 1393TIP3   OH2 4142   3.243   5.254   3.599 -0.3842 -0.1134  0.1214
 1393TIP3    H1 4143   3.310   5.196   3.634 -0.2971 -0.8771 -1.2556
 1393TIP3    H2 4144   3.177   5.196   3.563  0.1680  0.5686 -2.1834
 1394TIP3   OH2 4145   3.482   4.912   0.551  0.0871 -0.4219  0.2499
 1394TIP3    H1 4146   3.422   4.868   0.491 -1.0653  0.9771  0.3013
 1394TIP3    H2 4147   3.492   4.852   0.624  1.8672 -2.3626 -1.4715
 1395TIP3   OH2 4148   4.742   3.621   4.280 -0.0866  0.4968 -0.1573
 1395TIP3    H1 4149   4.658   3.622   4.326 -0.0742 -1.4354 -0.0135
 1395TIP3    H2 4150   4.719   3.610   4.188  0.0167 -0.3984 -0.0767
 1396TIP3   OH2 4151   6.715   6.720   2.211 -0.1175 -0.1656 -0.0618
 1396TIP3    H1 4152   6.643   6.735   2.149  0.6299 -0.6327 -1.0638
 1396TIP3    H2 4153   6.793   6.754   2.168  0.1155  1.5721  1.5725
 1397TIP3   OH2 4154   4.423   6.289   1.925 -0.3218  0.2850  0.0715
 1397TIP3    H1 4155   4.471   6.364   1.889  1.5486 -1.6649 -1.8907
 1397TIP3    H2 4156   4.403   6.235   1.848 -3.1494 -0.4477  1.2109
 1398TIP3   OH2 4157   5.824   2.828   0.947  0.1077 -0.7299  0.1360
 1398TIP3    H1 4158   5.777   2.806   0.867  0.6070 -0.7576 -0.1551
 1398TIP3    H2 4159   5.879   2.903   0.923  1.0275 -1.3882  0.1714
 1399TIP3   OH2 4160   1.127   6.499   4.222 -0.2605  0.9709 -0.3613
 1399TIP3    H1 4161   1.203   6.549   4.194  0.0613  0.6664 -0.0390
 1399TIP3    H2 4162   1.113   6.434   4.153  0.9261 -0.2054  0.4484
 1400TIP3   OH2 4163   2.014   6.283   3.819  0.1366  0.2382 -0.8573
 1400TIP3    H1 4164   1.941   6.337   3.790 -0.2785  1.0302  1.4625
 1400TIP3    H2 4165   2.092   6.335   3.799 -0.1693  0.9841 -0.1718
 1401TIP3   OH2 4166   6.355   1.528   5.696 -0.1447  0.1867  0.6069
 1401TIP3    H1 4167   6.400   1.613   5.688 -0.1887  0.1297 -0.3847
 1401TIP3    H2 4168   6.272   1.549   5.738 -0.4364  0.7467 -0.2255
 1402TIP3   OH2 4169   2.932   6.307   3.223 -0.1829  0.3148 -0.4431
 1402TIP3    H1 4170   2.975   6.380   3.180 -1.6060  0.2596 -2.0392
 1402TIP3    H2 4171   2.922   6.241   3.155 -1.5951 -0.1823  0.2142
 1403TIP3   OH2 4172   4.548   2.820   3.670  0.1667 -0.0752  0.2761
 1403TIP3    H1 4173   4.643   2.833   3.678  0.1003  0.1929  0.7000
 1403TIP3    H2 4174   4.519   2.803   3.760 -0.2038 -0.0403  0.1649
 1404TIP3   OH2 4175   6.641   1.197   5.403  0.0636  0.5897 -0.8020
 1404TIP3    H1 4176   6.655   1.182   5.310 -0.8825  0.7162 -0.9739
 1404TIP3    H2 4177   6.591   1.279   5.407 -0.0806  0.4780 -0.1931
 1405TIP3   OH2 4178   4.664   0.458   2.319  0.0335 -0.0671  0.3643
 1405TIP3    H1 4179   4.631   0.487   2.404 -1.0246 -0.6289  0.1625
 1405TIP3    H2 4180   4.740   0.403   2.339  1.1049  1.5167  0.8257
 1406TIP3   OH2 4181   5.430   5.938   4.095 -0.1133 -0.5677  0.5346
 1406TIP3    H1 4182   5.467   6.026   4.104 -0.8589 -0.2037  0.2130
 1406TIP3    H2 4183   5.480   5.898   4.024  1.5308 -1.1296  1.9532
 1407TIP3   OH2 4184   1.692   4.920   1.005 -0.0834 -0.4283  0.0938
 1407TIP3    H1 4185   1.744   4.883   1.076  0.0548  0.7041  0.5949
 1407TIP3    H2 4186   1.698   4.855   0.934  0.1740 -1.3389  0.9309
 1408TIP3   OH2 4187   1.916   2.778   3.203  0.4603  0.4020  0.3242
 1408TIP3    H1 4188   1.826   2.746   3.211  1.1421 -1.9934 -0.5907
 1408TIP3    H2 4189   1.939   2.763   3.111  0.2840  5.6172 -0.8870
 1409TIP3   OH2 4190   3.555   0.451   2.891 -0.2827  0.0260 -0.4402
 1409TIP3    H1 4191   3.513   0.528   2.852 -0.7671  0.2892  0.5656
 1409TIP3    H2 4192   3.611   0.487   2.960 -1.3177 -0.5603  0.7489
 1410TIP3   OH2 4193   5.690   3.305   1.366  0.2635  0.2039 -0.2125
 1410TIP3    H1 4194   5.711   3.347   1.449  1.8295 -0.7891 -0.0771
 1410TIP3    H2 4195   5.599   3.331   1.349  0.2123  1.1753  1.3328
 1411TIP3   OH2 4196   3.054   6.638   5.283 -0.5999 -0.2416 -0.1465
 1411TIP3    H1 4197   3.122   6.574   5.304  1.5260  1.6112 -0.9496
 1411TIP3    H2 4198   3.047   6.692   5.361 -1.1456 -0.3938 -0.0849
 1412TIP3   OH2 4199   4.583   2.817   4.332 -0.5818 -0.1377 -0.1663
 1412TIP3    H1 4200   4.633   2.737   4.344 -1.2022 -0.5331 -0.1433
 1412TIP3    H2 4201   4.643   2.888   4.357 -0.7134 -0.7217  2.0978
 1413TIP3   OH2 4202   5.340   1.152   1.317 -0.2502  0.2229  0.3122
 1413TIP3    H1 4203   5.326   1.172   1.409  1.2870 -0.8557  0.8232
 1413TIP3    H2 4204   5.273   1.086   1.296 -1.2126  1.1616  0.3661
 1414TIP3   OH2 4205   1.280   3.873   1.567 -0.3517 -0.1536  0.3518
 1414TIP3    H1 4206   1.357   3.913   1.527 -0.4226  1.1746  1.4557
 1414TIP3    H2 4207   1.312   3.791   1.605  0.0382 -0.6575 -1.0361
 1415TIP3   OH2 4208   2.752   6.064   3.683  0.3313  0.5105  0.3098
 1415TIP3    H1 4209   2.748   6.052   3.778  0.9239  2.7720  0.6822
 1415TIP3    H2 4210   2.845   6.052   3.662  0.3599  0.9363  0.1805
 1416TIP3   OH2 4211   3.562   1.159   4.156 -0.1159  0.2061  0.1538
 1416TIP3    H1 4212   3.655   1.157   4.179 -0.0894  0.3355  0.0579
 1416TIP3    H2 4213   3.517   1.149   4.240 -0.0181  0.7506  0.2749
 1417TIP3   OH2 4214   0.100   4.305   2.034 -0.5830 -0.3139 -0.4012
 1417TIP3    H1 4215   0.141   4.331   2.117 -3.4435  1.0361  0.7291
 1417TIP3    H2 4216   0.019   4.262   2.061 -0.6042 -1.7448 -2.5220
 1418TIP3   OH2 4217   2.786   0.173   3.986 -0.6904  0.5949  0.7436
 1418TIP3    H1 4218   2.718   0.111   3.963 -0.2246  1.1921 -2.8119
 1418TIP3    H2 4219   2.857   0.119   4.021 -1.2040 -0.5951 -0.0005
 1419TIP3   OH2 4220   2.041   0.605   3.037  0.0316 -0.3615 -0.3843
 1419TIP3    H1 4221   2.091   0.593   3.117 -0.4750 -0.8934 -0.1449
 1419TIP3    H2 4222   2.107   0.623   2.970  0.3882  1.3006  0.3633
 1420TIP3   OH2 4223   2.235   5.241   4.008 -0.0041 -0.5090  0.3590
 1420TIP3    H1 4224   2.252   5.334   3.995  1.4786 -0.8860 -0.7328
 1420TIP3    H2 4225   2.287   5.198   3.940  0.0733 -2.1797  1.4203
 1421TIP3   OH2 4226   4.971   2.245   0.633  0.0453  0.7191 -0.5092
 1421TIP3    H1 4227   4.883   2.279   0.612  0.8871  2.2655 -1.7566
 1421TIP3    H2 4228   4.958   2.152   0.647 -1.9120  1.0178 -0.0173
 1422TIP3   OH2 4229   0.434   5.932   0.251 -0.1397  0.7045  0.0175
 1422TIP3    H1 4230   0.495   5.861   0.237  0.3431  1.3424 -1.1751
 1422TIP3    H2 4231   0.357   5.909   0.200  0.1206  1.1603 -0.5875
 1423TIP3   OH2 4232   4.424   6.475   3.115 -0.2260  0.1138  0.4922
 1423TIP3    H1 4233   4.419   6.565   3.084 -0.4873 -0.2320 -0.4821
 1423TIP3    H2 4234   4.403   6.481   3.209 -1.8092  0.8633  0.1136
 1424TIP3   OH2 4235   3.116   0.677   5.738  0.2297 -0.2309  0.1500
 1424TIP3    H1 4236   3.085   0.704   5.651 -1.1350 -0.6543  0.4839
 1424TIP3    H2 4237   3.207   0.706   5.740 -0.0984  0.9939 -0.9173
 1425TIP3   OH2 4238   5.808   2.268   1.263  0.0592 -0.5575  0.3598
 1425TIP3    H1 4239   5.822   2.198   1.198 -0.7659 -0.3155 -0.0886
 1425TIP3    H2 4240   5.871   2.249   1.332  0.3523 -1.3280 -0.1062
 1426TIP3   OH2 4241   6.246   0.551   1.105 -0.1461  0.9053 -0.0698
 1426TIP3    H1 4242   6.327   0.600   1.086 -0.3565  1.3562  0.1791
 1426TIP3    H2 4243   6.276   0.474   1.152  0.0874  1.4458  0.6953
 1427TIP3   OH2 4244   5.910   2.985   3.137 -0.1146  0.6203 -0.8457
 1427TIP3    H1 4245   5.975   3.006   3.204  0.0083  0.3974 -0.8940
 1427TIP3    H2 4246   5.896   3.067   3.090 -0.5536  0.8964 -0.2477
 1428TIP3   OH2 4247   2.959   6.184   5.366  0.1404  0.0859 -0.1938
 1428TIP3    H1 4248   2.924   6.117   5.307 -1.0983  1.1385 -0.6972
 1428TIP3    H2 4249   2.896   6.255   5.361  0.6482  0.6901  1.4954
 1429TIP3   OH2 4250   4.847   3.468   1.210  0.3850 -0.2094  0.5315
 1429TIP3    H1 4251   4.875   3.454   1.119  1.2557 -1.2114  0.9337
 1429TIP3    H2 4252   4.906   3.534   1.243 -1.4540  1.9973 -0.2965
 1430TIP3   OH2 4253   6.371   4.565   3.366  0.4113 -0.2268 -0.8245
 1430TIP3    H1 4254   6.433   4.561   3.293 -0.3791 -2.3184 -1.4410
 1430TIP3    H2 4255   6.377   4.479   3.407 -1.1573 -0.0241 -0.1151
 1431TIP3   OH2 4256   2.882   1.031   3.300 -0.1523  0.5073 -0.0127
 1431TIP3    H1 4257   2.893   1.022   3.205  1.7948 -0.6445  0.2751
 1431TIP3    H2 4258   2.804   0.979   3.320 -0.1706  0.1840 -0.8848
 1432TIP3   OH2 4259   5.503   2.172   5.366  0.0759  0.3526 -0.3650
 1432TIP3    H1 4260   5.522   2.266   5.373  0.9634  0.1936 -0.5038
 1432TIP3    H2 4261   5.583   2.129   5.397 -0.2470 -0.3598 -0.4953
 1433TIP3   OH2 4262   2.249   1.376   4.608 -0.1520 -0.2181  0.5462
 1433TIP3    H1 4263   2.165   1.404   4.569 -0.7126  0.1886  1.9931
 1433TIP3    H2 4264   2.260   1.286   4.578  0.0553  0.4383 -1.5401
 1434TIP3   OH2 4265   4.048   5.317   2.126 -0.0834 -0.0132  0.5948
 1434TIP3    H1 4266   4.001   5.314   2.042  0.3080 -0.1952  0.3781
 1434TIP3    H2 4267   4.082   5.229   2.138 -0.3471 -0.0489  1.0689
 1435TIP3   OH2 4268   5.950   2.548   0.449  0.2781  0.2001 -0.4694
 1435TIP3    H1 4269   5.953   2.531   0.355  0.8425 -0.4141 -0.3438
 1435TIP3    H2 4270   5.866   2.513   0.477 -0.8263  2.1973 -1.0762
 1436TIP3   OH2 4271   5.677   5.236   0.234 -0.7067  0.3418 -0.1840
 1436TIP3    H1 4272   5.590   5.208   0.263 -0.2564 -0.4899  0.3876
 1436TIP3    H2 4273   5.723   5.259   0.315 -0.2499  0.3691 -0.4472
 1437TIP3   OH2 4274   0.042   6.050   2.336  0.7850 -0.3482 -0.6545
 1437TIP3    H1 4275  -0.020   6.113   2.299  2.7242  2.1676  0.0960
 1437TIP3    H2 4276   0.024   6.052   2.430  0.2286 -1.7206 -0.7110
 1438TIP3   OH2 4277   5.763   3.620   5.608  0.2761 -0.2704  0.4514
 1438TIP3    H1 4278   5.850   3.581   5.600  0.6780  0.7183 -0.1825
 1438TIP3    H2 4279   5.715   3.587   5.533  0.9951  1.3454 -0.7746
 1439TIP3   OH2 4280   4.286   0.915   3.470 -0.5063  0.4941 -0.0549
 1439TIP3    H1 4281   4.246   0.946   3.551 -2.0826 -0.5188 -0.4001
 1439TIP3    H2 4282   4.223   0.852   3.435  0.3464  0.5841 -1.8445
 1440TIP3   OH2 4283   0.781   3.490   0.690  0.2810  0.5426  0.0636
 1440TIP3    H1 4284   0.704   3.453   0.734 -0.5247  3.2378  1.1695
 1440TIP3    H2 4285   0.747   3.521   0.605  0.9892 -1.2666 -0.9415
 1441TIP3   OH2 4286   4.788   1.166   2.068 -0.0240 -0.3062  0.1097
 1441TIP3    H1 4287   4.806   1.199   1.980  0.6776 -2.4980 -0.6446
 1441TIP3    H2 4288   4.869   1.183   2.117  0.1776 -0.5136 -0.1460
 1442TIP3   OH2 4289   0.960   3.638   1.736  0.1406  0.2291 -0.6762
 1442TIP3    H1 4290   0.894   3.707   1.727  0.8437  1.0597  0.2729
 1442TIP3    H2 4291   0.963   3.620   1.830  2.2412  1.2390 -0.4988
 1443TIP3   OH2 4292   7.119   4.241   4.533 -0.1568  0.0258 -0.6209
 1443TIP3    H1 4293   7.038   4.262   4.488 -0.0761 -3.0705 -2.5228
 1443TIP3    H2 4294   7.092   4.187   4.608  0.0482  0.4718 -0.2208
 1444TIP3   OH2 4295   1.389   5.309   4.881 -0.1878 -0.5351 -0.3671
 1444TIP3    H1 4296   1.295   5.299   4.895 -0.4414 -0.7271 -2.0540
 1444TIP3    H2 4297   1.412   5.236   4.823  1.2491 -1.2131  0.9839
 1445TIP3   OH2 4298   1.607   3.755   4.050  0.3520 -0.2296  0.1658
 1445TIP3    H1 4299   1.672   3.702   4.005  1.3131  0.1593  1.0608
 1445TIP3    H2 4300   1.638   3.760   4.140 -1.5600 -1.0236  0.9134
 1446TIP3   OH2 4301   0.175   6.080   1.777 -0.0922 -0.5394 -0.1276
 1446TIP3    H1 4302   0.244   6.136   1.743  0.0991  0.0547  1.1883
 1446TIP3    H2 4303   0.108   6.140   1.808 -0.5713 -1.0804 -0.0968
 1447TIP3   OH2 4304   4.212   3.367   4.595  0.7579 -0.0208 -0.5602
 1447TIP3    H1 4305   4.142   3.380   4.532  0.8877  0.6546 -0.5759
 1447TIP3    H2 4306   4.249   3.454   4.608  0.5007 -0.0836  0.7279
 1448TIP3   OH2 4307   3.688   1.650   2.999  0.3649  0.2561  0.4619
 1448TIP3    H1 4308   3.759   1.682   3.054  0.0899 -0.3131  1.1783
 1448TIP3    H2 4309   3.619   1.716   3.008  0.3481  0.2000  0.7518
 1449TIP3   OH2 4310   2.138   2.561   5.598  0.4806 -0.3960 -0.1515
 1449TIP3    H1 4311   2.155   2.560   5.504 -0.4271 -1.1733 -0.3193
 1449TIP3    H2 4312   2.224   2.548   5.638  0.8756 -0.0330 -0.8674
 1450TIP3   OH2 4313   4.120   2.864   3.991  0.3301  0.4998 -0.1490
 1450TIP3    H1 4314   4.164   2.886   3.909  0.6506 -1.0348 -0.4209
 1450TIP3    H2 4315   4.179   2.896   4.059  1.1604 -0.1992 -0.5201
 1451TIP3   OH2 4316   3.955   0.798   2.258  0.0808 -0.2368  0.3552
 1451TIP3    H1 4317   3.996   0.776   2.175 -0.6701 -1.3993  0.2660
 1451TIP3    H2 4318   3.965   0.719   2.311  1.2364  0.7494  1.6677
 1452TIP3   OH2 4319   6.600   0.871   2.738 -0.2115 -0.3302  0.7722
 1452TIP3    H1 4320   6.598   0.921   2.820  2.2521  1.3539 -0.0773
 1452TIP3    H2 4321   6.562   0.930   2.673 -0.6620 -1.0251  0.3932
 1453TIP3   OH2 4322   1.413   5.586   0.318 -0.4319 -0.1516 -0.5204
 1453TIP3    H1 4323   1.471   5.521   0.278 -0.4201 -0.3440 -0.1921
 1453TIP3    H2 4324   1.446   5.596   0.407 -2.3119 -2.0076  0.4433
 1454TIP3   OH2 4325   4.985   3.153   4.736 -0.0813 -0.3417 -0.2944
 1454TIP3    H1 4326   4.977   3.204   4.656  1.0557  1.4234  0.6514
 1454TIP3    H2 4327   5.078   3.131   4.741 -0.5795 -2.9438 -0.8693
 1455TIP3   OH2 4328   4.033   2.697   5.651  0.0051  0.6317 -0.2028
 1455TIP3    H1 4329   4.028   2.602   5.661 -0.6501  0.7525  0.6858
 1455TIP3    H2 4330   4.106   2.711   5.590 -0.5563 -0.4867 -1.1759
 1456TIP3   OH2 4331   1.939   6.758   5.679  0.3939 -0.3699 -0.4050
 1456TIP3    H1 4332   1.961   6.832   5.735 -0.2932 -1.0952  0.8930
 1456TIP3    H2 4333   1.931   6.684   5.740  1.3675 -1.5872 -1.6820
 1457TIP3   OH2 4334   1.579   2.977   4.098  0.5048 -0.1340  0.3103
 1457TIP3    H1 4335   1.619   2.940   4.019 -0.4681  0.4186 -0.4591
 1457TIP3    H2 4336   1.652   2.989   4.158  0.9510 -2.9023  0.4651
 1458TIP3   OH2 4337   6.171   5.203   0.192  0.3132  0.2083 -0.1998
 1458TIP3    H1 4338   6.118   5.283   0.190 -2.0996 -1.2938 -0.1785
 1458TIP3    H2 4339   6.126   5.145   0.254  0.5070 -2.1186 -2.0832
 1459TIP3   OH2 4340   4.892   5.866   4.710  0.3183 -0.7235 -0.0245
 1459TIP3    H1 4341   4.974   5.847   4.757  2.0971  0.0482 -2.6282
 1459TIP3    H2 4342   4.882   5.961   4.716 -0.0548 -0.7464 -0.2750
 1460TIP3   OH2 4343   6.699   2.097   1.503 -0.3910  0.1229  0.3215
 1460TIP3    H1 4344   6.786   2.109   1.541  0.2343  0.1252 -1.0487
 1460TIP3    H2 4345   6.698   2.005   1.475 -1.0826 -0.0585  0.9150
 1461TIP3   OH2 4346   6.733   3.591   2.915 -0.4725 -0.0426 -0.3589
 1461TIP3    H1 4347   6.738   3.513   2.971  1.2114  0.1468 -0.1819
 1461TIP3    H2 4348   6.757   3.663   2.974  1.6782  0.1243 -1.3352
 1462TIP3   OH2 4349   3.406   1.465   0.042 -0.2404  0.1497  0.0555
 1462TIP3    H1 4350   3.330   1.469  -0.015  0.0425 -0.4523 -0.3704
 1462TIP3    H2 4351   3.472   1.416  -0.008  0.3053  0.3612  0.5530
 1463TIP3   OH2 4352   4.087   0.633   4.656  0.2293 -0.1134  0.1946
 1463TIP3    H1 4353   4.173   0.608   4.623  0.4060  0.0126  0.5578
 1463TIP3    H2 4354   4.087   0.729   4.655  0.9414 -0.0403  2.3002
 1464TIP3   OH2 4355   5.095   4.016   3.919 -0.2368 -0.3189  0.0981
 1464TIP3    H1 4356   5.035   4.059   3.981 -0.7627 -1.1455  0.1758
 1464TIP3    H2 4357   5.082   4.064   3.837 -1.4679 -0.8677 -0.0473
 1465TIP3   OH2 4358   2.705   2.534   4.479 -0.0851 -0.3772  0.4264
 1465TIP3    H1 4359   2.759   2.585   4.419 -1.0563 -1.5431 -1.5664
 1465TIP3    H2 4360   2.647   2.599   4.520 -0.1653  0.3428 -0.7749
 1466TIP3   OH2 4361   3.161   3.631   4.649  0.5165 -0.2060 -0.2234
 1466TIP3    H1 4362   3.089   3.694   4.647 -0.1873 -0.9541  0.4653
 1466TIP3    H2 4363   3.196   3.638   4.738  0.0605 -1.1754  0.0466
 1467TIP3   OH2 4364   3.484   6.393   1.272 -0.5063 -0.0279 -0.2474
 1467TIP3    H1 4365   3.411   6.424   1.218  0.1580 -0.2809 -1.3293
 1467TIP3    H2 4366   3.560   6.442   1.239  0.0723 -0.8489 -0.1505
 1468TIP3   OH2 4367   3.842   4.572   1.283  0.1852  0.3628  0.2075
 1468TIP3    H1 4368   3.779   4.560   1.212  1.8679  0.5151 -1.3878
 1468TIP3    H2 4369   3.843   4.487   1.328  0.3055 -0.2988 -0.9996
 1469TIP3   OH2 4370   4.330   2.687   5.343 -0.2640 -0.5561  0.5634
 1469TIP3    H1 4371   4.395   2.647   5.284 -1.2622  1.5605 -2.2082
 1469TIP3    H2 4372   4.250   2.636   5.329 -0.6853  0.3616 -0.5285
 1470TIP3   OH2 4373   0.471   2.201   2.588 -0.0553  0.0170 -0.0400
 1470TIP3    H1 4374   0.538   2.202   2.656  0.5417 -0.7814 -0.6003
 1470TIP3    H2 4375   0.393   2.165   2.631 -0.4254  1.7284  0.8440
 1471TIP3   OH2 4376   2.784   5.185   2.214 -0.2962 -0.5819  0.1352
 1471TIP3    H1 4377   2.727   5.258   2.239 -0.4202 -0.0630 -1.5425
 1471TIP3    H2 4378   2.837   5.168   2.292 -1.6783 -0.0641  1.2267
 1472TIP3   OH2 4379   4.808   1.164   4.511  0.2471 -0.3993  0.4725
 1472TIP3    H1 4380   4.799   1.249   4.468 -2.1292 -0.4721  0.7015
 1472TIP3    H2 4381   4.744   1.107   4.467  2.2950 -2.3436 -0.2019
 1473TIP3   OH2 4382   5.891   3.380   4.650  0.3833 -0.3564 -0.5247
 1473TIP3    H1 4383   5.940   3.299   4.663 -0.2117 -0.9609 -1.8306
 1473TIP3    H2 4384   5.802   3.351   4.629 -0.4167  0.7024  1.2059
 1474TIP3   OH2 4385   7.015   3.537   2.894 -0.0506 -0.0047  0.2465
 1474TIP3    H1 4386   6.972   3.455   2.870  1.2598 -0.3722 -0.9674
 1474TIP3    H2 4387   6.943   3.593   2.924 -1.2291 -0.9670 -0.6418
 1475TIP3   OH2 4388   2.038   5.014   2.000 -0.1687  0.0287 -0.3470
 1475TIP3    H1 4389   1.950   4.985   1.976  0.0817 -2.0822  1.0078
 1475TIP3    H2 4390   2.096   4.961   1.947  0.2953 -1.3296  1.4371
 1476TIP3   OH2 4391   6.665   5.912   2.485  0.6972  0.6940 -0.2487
 1476TIP3    H1 4392   6.585   5.950   2.448  0.7648 -1.1494 -2.5287
 1476TIP3    H2 4393   6.735   5.971   2.459  0.3314  1.2037 -0.0906
 1477TIP3   OH2 4394   2.454   6.279   2.440 -0.0574  0.1937  0.3718
 1477TIP3    H1 4395   2.524   6.328   2.397 -0.8195  1.9635  1.0412
 1477TIP3    H2 4396   2.445   6.321   2.525 -0.5855 -1.3284  1.1075
 1478TIP3   OH2 4397   4.440   6.306   3.623  0.4439  0.2875  0.3401
 1478TIP3    H1 4398   4.529   6.285   3.649  0.4394  0.1905  0.2766
 1478TIP3    H2 4399   4.389   6.228   3.644  0.5039  0.0753 -0.2824
 1479TIP3   OH2 4400   1.475   3.102   0.622 -0.0360  0.9464 -0.9081
 1479TIP3    H1 4401   1.566   3.105   0.592  0.0224  0.6987 -0.7564
 1479TIP3    H2 4402   1.433   3.176   0.578  0.7417  2.3994  0.6533
 1480TIP3   OH2 4403   6.259   5.853   5.574 -0.5982 -0.6979 -0.1340
 1480TIP3    H1 4404   6.187   5.916   5.563  0.6646  0.7099 -0.6042
 1480TIP3    H2 4405   6.249   5.794   5.499  1.4306  2.3073 -3.0717
 1481TIP3   OH2 4406   6.988   6.617   4.040 -0.1348 -0.2380  0.0932
 1481TIP3    H1 4407   7.048   6.596   4.112 -0.9884 -0.0686  0.8768
 1481TIP3    H2 4408   7.023   6.698   4.002 -0.5513  0.5681  1.3617
 1482TIP3   OH2 4409   6.845   6.147   3.401 -0.1249  0.1583 -0.3619
 1482TIP3    H1 4410   6.898   6.084   3.353  0.7530  0.2760  0.4327
 1482TIP3    H2 4411   6.901   6.177   3.472 -0.8767  1.1059 -0.1461
 1483TIP3   OH2 4412   5.155   0.834   0.750 -0.0916  0.1950  0.1499
 1483TIP3    H1 4413   5.240   0.853   0.790 -0.2252  0.0829  0.4874
 1483TIP3    H2 4414   5.129   0.917   0.711  1.2767 -0.3187 -2.0799
 1484TIP3   OH2 4415   6.437   6.521   0.790 -0.5624  0.4723  0.4651
 1484TIP3    H1 4416   6.505   6.585   0.814 -0.7045  1.3637 -1.3479
 1484TIP3    H2 4417   6.357   6.572   0.781 -0.7935 -0.0358 -0.5038
 1485TIP3   OH2 4418   5.239   2.308   3.316 -0.4049  0.2115 -0.6327
 1485TIP3    H1 4419   5.149   2.328   3.288 -0.3083  0.4013 -0.8059
 1485TIP3    H2 4420   5.286   2.390   3.306 -0.3315  0.2507 -0.0475
 1486TIP3   OH2 4421   0.691   2.810   3.706 -0.0018  0.1967 -0.5239
 1486TIP3    H1 4422   0.630   2.844   3.772  0.6259 -0.8814  0.6614
 1486TIP3    H2 4423   0.641   2.810   3.624 -0.7609  1.6708 -0.0901
 1487TIP3   OH2 4424   1.595   1.638   0.517  0.2380 -0.0225 -0.3837
 1487TIP3    H1 4425   1.540   1.679   0.450  0.6822  0.4310 -0.4764
 1487TIP3    H2 4426   1.640   1.567   0.471  0.2829  0.0714 -0.4855
 1488TIP3   OH2 4427   3.485   1.572   1.706  0.0490 -0.9055  0.2132
 1488TIP3    H1 4428   3.463   1.531   1.790 -0.8082  0.2119  0.5608
 1488TIP3    H2 4429   3.417   1.543   1.646 -2.8336  2.7143  1.3383
 1489TIP3   OH2 4430   6.762   4.100   3.946  0.2985 -0.5419  0.5663
 1489TIP3    H1 4431   6.821   4.062   4.011  0.5720  0.6797  1.0535
 1489TIP3    H2 4432   6.692   4.035   3.937  1.4789 -1.8348  0.2637
 1490TIP3   OH2 4433   0.523   4.097   0.783  0.4823 -0.2366 -0.0296
 1490TIP3    H1 4434   0.499   4.186   0.760  2.6519 -0.0798 -2.0613
 1490TIP3    H2 4435   0.484   4.043   0.714  0.3299 -0.7318  0.4283
 1491TIP3   OH2 4436   5.189   3.827   2.539  0.2241  0.2580 -0.4489
 1491TIP3    H1 4437   5.099   3.838   2.509  0.1442 -0.4873 -0.5248
 1491TIP3    H2 4438   5.188   3.852   2.631 -0.3070 -0.7581 -0.1624
 1492TIP3   OH2 4439   0.576   3.612   5.433 -0.2237 -0.2456  0.2541
 1492TIP3    H1 4440   0.639   3.600   5.362 -1.8281 -0.9694 -1.1362
 1492TIP3    H2 4441   0.550   3.522   5.456 -0.2260  0.0149  1.2836
 1493TIP3   OH2 4442   2.566   4.758   1.599 -0.2284  0.6765  0.1148
 1493TIP3    H1 4443   2.599   4.846   1.617 -0.7536  1.0338 -0.6093
 1493TIP3    H2 4444   2.570   4.750   1.504  1.5034 -0.7722  0.2666
 1494TIP3   OH2 4445   5.933   2.601   4.029 -0.2134 -0.5290 -0.3338
 1494TIP3    H1 4446   5.905   2.635   4.114  0.5312  0.0400 -0.3077
 1494TIP3    H2 4447   5.953   2.509   4.046  1.1561 -0.1131  0.4124
 1495TIP3   OH2 4448   6.489   0.958   1.281 -0.2051  0.3095 -0.7677
 1495TIP3    H1 4449   6.427   0.995   1.344 -0.6198  0.9902 -1.5455
 1495TIP3    H2 4450   6.466   0.866   1.276 -1.9100  0.7336 -1.8147
 1496TIP3   OH2 4451   1.968   1.772   5.014 -0.2171  0.1025 -0.0697
 1496TIP3    H1 4452   1.917   1.847   5.044 -1.7813 -0.0707 -2.0865
 1496TIP3    H2 4453   1.975   1.715   5.090 -0.9181  1.2651  0.8910
 1497TIP3   OH2 4454   6.171   1.756   2.189  0.4285  0.6278 -0.3673
 1497TIP3    H1 4455   6.265   1.738   2.180  0.4295  0.9092 -1.0121
 1497TIP3    H2 4456   6.159   1.839   2.141  0.1547  1.5038  1.1555
 1498TIP3   OH2 4457   4.565   5.383   0.806  0.0862 -0.0492 -0.0663
 1498TIP3    H1 4458   4.617   5.312   0.844 -0.4211 -0.8930 -0.9245
 1498TIP3    H2 4459   4.474   5.357   0.819 -0.1397  0.9943  0.6149
 1499TIP3   OH2 4460   1.074   3.226   0.266  0.4158  0.0053 -0.8348
 1499TIP3    H1 4461   1.133   3.216   0.191 -0.3185 -0.9447 -1.3187
 1499TIP3    H2 4462   1.105   3.160   0.329 -0.1460 -0.5462 -1.1199
 1500TIP3   OH2 4463   2.608   1.194   1.921 -0.2663  0.1337 -0.2208
 1500TIP3    H1 4464   2.617   1.284   1.890 -1.6146  0.5185  0.4083
 1500TIP3    H2 4465   2.681   1.181   1.981 -0.5704  1.1230  0.3759
 1501TIP3   OH2 4466   3.837   2.061   3.311 -0.2470 -0.1907 -0.0975
 1501TIP3    H1 4467   3.756   2.024   3.277 -0.8018  2.3341 -1.8616
 1501TIP3    H2 4468   3.855   2.135   3.253  1.6778  1.2019  2.0930
 1502TIP3   OH2 4469   5.967   5.302   2.449  0.0054  0.2223 -0.0930
 1502TIP3    H1 4470   5.928   5.218   2.472 -0.2663  0.6066  0.8788
 1502TIP3    H2 4471   5.917   5.367   2.498  0.7048  0.8866 -0.2310
 1503TIP3   OH2 4472   0.924   5.785   2.797  0.5290 -0.1514  0.3639
 1503TIP3    H1 4473   0.959   5.763   2.710  2.0713  1.2572  0.5690
 1503TIP3    H2 4474   1.001   5.816   2.846 -0.6948  1.1969  1.5130
 1504TIP3   OH2 4475   5.591   0.989   5.868 -0.2660 -0.3289 -0.1298
 1504TIP3    H1 4476   5.680   1.007   5.896 -0.4627  1.0518 -0.3449
 1504TIP3    H2 4477   5.592   1.002   5.773 -0.8433  0.3801 -0.0474
 1505TIP3   OH2 4478   3.104   3.189   1.377 -0.8723 -0.5251  0.0501
 1505TIP3    H1 4479   3.189   3.175   1.336 -0.8864 -1.0797  0.1970
 1505TIP3    H2 4480   3.116   3.161   1.468 -1.0984 -0.2059  0.1812
 1506TIP3   OH2 4481   2.521   4.442   1.527 -0.0513  0.6311 -0.5481
 1506TIP3    H1 4482   2.448   4.483   1.574  0.4031  1.3782 -0.5001
 1506TIP3    H2 4483   2.495   4.350   1.520 -0.2515  0.5582  0.9250
 1507TIP3   OH2 4484   2.992   3.783   5.314 -0.5339  0.0939  0.0189
 1507TIP3    H1 4485   2.948   3.700   5.333  0.9603 -1.5548 -2.9377
 1507TIP3    H2 4486   2.979   3.796   5.220  2.2059  1.3658 -0.2768
 1508TIP3   OH2 4487   4.860   5.752   3.426  0.0646  0.1843  0.1012
 1508TIP3    H1 4488   4.850   5.666   3.466 -6.2661 -0.6929 -2.2276
 1508TIP3    H2 4489   4.898   5.735   3.340 -0.9346 -0.3293 -0.2536
 1509TIP3   OH2 4490   1.873   2.668   1.270  0.1522 -0.5137  0.0973
 1509TIP3    H1 4491   1.920   2.663   1.187  0.4459 -1.1997  0.2986
 1509TIP3    H2 4492   1.917   2.604   1.326 -1.3964 -1.6011  0.1127
 1510TIP3   OH2 4493   1.065   4.102   5.409 -0.0778  0.0497  0.1636
 1510TIP3    H1 4494   1.047   4.008   5.411 -0.8332  0.1926  0.4083
 1510TIP3    H2 4495   0.985   4.140   5.373  0.4203  0.5589 -0.4268
 1511TIP3   OH2 4496   4.109   4.401   1.800  0.3062 -0.0222  0.1825
 1511TIP3    H1 4497   4.039   4.467   1.797  0.1149 -0.2573 -1.2994
 1511TIP3    H2 4498   4.162   4.426   1.876 -1.4071  0.1383  1.3837
 1512TIP3   OH2 4499   5.657   0.234   4.512 -0.3414  0.3796 -0.3810
 1512TIP3    H1 4500   5.687   0.170   4.577 -3.2429  0.6202  1.3624
 1512TIP3    H2 4501   5.591   0.286   4.558 -0.9481  2.0185 -2.9185
 1513TIP3   OH2 4502   5.066   0.827   3.429  0.1919 -0.7083  0.0215
 1513TIP3    H1 4503   5.075   0.811   3.523  0.7279  0.0448  0.1110
 1513TIP3    H2 4504   5.122   0.761   3.388  0.9228 -0.2633  0.2913
 1514TIP3   OH2 4505   5.477   0.936   5.240  0.0961  0.1244  0.1673
 1514TIP3    H1 4506   5.437   0.851   5.256  3.3230 -2.3957 -3.2838
 1514TIP3    H2 4507   5.500   0.935   5.148  4.4313  2.7635  0.9179
 1515TIP3   OH2 4508   1.059   1.019   2.433  0.0865  0.5103 -0.4144
 1515TIP3    H1 4509   1.140   0.975   2.407  0.1230  0.5426 -0.3566
 1515TIP3    H2 4510   1.083   1.068   2.512 -0.4851 -1.1824  0.8825
 1516TIP3   OH2 4511   2.641   6.311   1.644  0.1638 -0.2048  0.0762
 1516TIP3    H1 4512   2.615   6.272   1.728 -0.4786 -1.4517 -0.6795
 1516TIP3    H2 4513   2.725   6.354   1.663  0.3665 -1.0466  1.2026
 1517TIP3   OH2 4514   2.505   0.238   1.774  0.1935  0.3715  0.2391
 1517TIP3    H1 4515   2.473   0.243   1.865  2.3967  1.2473  1.0301
 1517TIP3    H2 4516   2.425   0.234   1.722 -1.2112  1.4244  2.1376
 1518TIP3   OH2 4517   5.298   5.477   1.936 -0.2274  0.2330 -0.3146
 1518TIP3    H1 4518   5.290   5.536   1.861  0.3020 -0.1961 -0.7180
 1518TIP3    H2 4519   5.390   5.451   1.937 -0.2360  0.2068  0.4721
 1519TIP3   OH2 4520   2.175   6.068   4.913  0.2869 -0.1707  0.2559
 1519TIP3    H1 4521   2.160   6.149   4.963  1.0121  0.6125 -0.7510
 1519TIP3    H2 4522   2.257   6.034   4.948 -0.1530 -0.6147  0.8601
 1520TIP3   OH2 4523   5.715   0.863   1.499 -0.3560 -0.1664  0.5676
 1520TIP3    H1 4524   5.713   0.910   1.415 -0.8912  0.3470  0.8635
 1520TIP3    H2 4525   5.635   0.811   1.499 -1.6625  1.7032  1.7976
 1521TIP3   OH2 4526   1.316   4.120   5.231  0.5737  0.0638 -0.3011
 1521TIP3    H1 4527   1.257   4.057   5.273  0.3191 -1.1053 -2.2999
 1521TIP3    H2 4528   1.335   4.082   5.145  0.9833  2.3927 -1.3212
 1522TIP3   OH2 4529   1.627   5.923   3.801 -0.3873 -0.8260  0.2617
 1522TIP3    H1 4530   1.706   5.870   3.809 -0.0361 -0.3670 -0.1201
 1522TIP3    H2 4531   1.632   5.985   3.874  0.1740 -0.0685 -0.4069
 1523TIP3   OH2 4532   1.803   3.337   2.960  0.2088  0.4514 -0.6866
 1523TIP3    H1 4533   1.838   3.248   2.963  1.3543  0.7921 -2.1978
 1523TIP3    H2 4534   1.840   3.381   3.036 -0.4943 -0.3772  0.1604
 1524TIP3   OH2 4535   2.018   6.220   2.728  0.1559 -0.0541  0.5408
 1524TIP3    H1 4536   2.069   6.259   2.658 -0.6230  1.9811  1.0338
 1524TIP3    H2 4537   1.953   6.166   2.683 -0.1707  1.0215 -0.3191
 1525TIP3   OH2 4538   0.307   2.915   3.267  0.0906 -0.3174  1.1743
 1525TIP3    H1 4539   0.223   2.950   3.297 -0.6748  0.6439 -1.7189
 1525TIP3    H2 4540   0.286   2.828   3.234  0.6694 -0.8757  2.2287
 1526TIP3   OH2 4541   4.618   4.281   1.897  0.4249 -0.5678 -0.5384
 1526TIP3    H1 4542   4.689   4.227   1.933  2.3019  1.6599 -0.6349
 1526TIP3    H2 4543   4.592   4.237   1.816  1.0560 -1.9082 -0.0393
 1527TIP3   OH2 4544   6.633   6.354   5.842  0.0596 -0.0707 -0.2356
 1527TIP3    H1 4545   6.574   6.345   5.916 -0.6413  1.5620 -0.5538
 1527TIP3    H2 4546   6.721   6.347   5.879 -0.2623 -2.6787  0.2232
 1528TIP3   OH2 4547   1.837   5.915   3.001  0.5982  0.6184 -0.7936
 1528TIP3    H1 4548   1.790   5.885   2.923  2.2419  1.8961 -2.3847
 1528TIP3    H2 4549   1.927   5.929   2.970  1.2853  1.2794  1.3304
 1529TIP3   OH2 4550   5.000   0.500   2.636  0.4717 -0.3602  0.5848
 1529TIP3    H1 4551   5.016   0.592   2.614 -0.8520 -0.2350  0.0676
 1529TIP3    H2 4552   4.955   0.502   2.720  0.5716 -0.5556  0.6463
 1530TIP3   OH2 4553   3.247   6.571   0.083 -0.3335 -0.3206 -0.3144
 1530TIP3    H1 4554   3.253   6.477   0.070 -2.0193 -0.5758  0.4869
 1530TIP3    H2 4555   3.258   6.583   0.177 -0.7280  0.2104 -0.3304
 1531TIP3   OH2 4556   2.088   5.566   4.099  0.0507 -0.3642  0.3175
 1531TIP3    H1 4557   2.048   5.642   4.141  1.8550 -0.4869  2.4531
 1531TIP3    H2 4558   2.021   5.498   4.103 -0.3070  0.0396  1.8901
 1532TIP3   OH2 4559   6.714   4.243   2.291 -0.0415  0.6067 -0.0650
 1532TIP3    H1 4560   6.666   4.321   2.264  0.5797  0.3030 -2.2231
 1532TIP3    H2 4561   6.710   4.244   2.387 -1.6813  2.2256 -0.1052
 1533TIP3   OH2 4562   3.647   5.650   3.039  1.0480  0.1909 -0.2591
 1533TIP3    H1 4563   3.712   5.709   3.003  1.7102 -0.5261 -0.2487
 1533TIP3    H2 4564   3.635   5.680   3.130  2.4649 -0.5729  0.2069
 1534TIP3   OH2 4565   2.212   0.594   0.877 -0.1518 -0.1755  0.2086
 1534TIP3    H1 4566   2.228   0.688   0.872  0.3935 -0.2927 -0.3615
 1534TIP3    H2 4567   2.297   0.557   0.899  0.0682 -0.6881 -1.4093
 1535TIP3   OH2 4568   6.734   4.284   5.726  0.3736 -0.0770 -0.1739
 1535TIP3    H1 4569   6.759   4.372   5.754 -0.6026  0.1261  0.0662
 1535TIP3    H2 4570   6.753   4.229   5.802 -0.8168  0.2345  0.3675
 1536TIP3   OH2 4571   3.090   5.539   4.065  0.1563 -0.3444  0.3336
 1536TIP3    H1 4572   3.048   5.612   4.110 -1.8697 -2.0819  1.4461
 1536TIP3    H2 4573   3.056   5.544   3.975  0.3048  0.2448  0.3038
 1537TIP3   OH2 4574   2.179   1.758   0.436  0.3958  0.0509  0.5400
 1537TIP3    H1 4575   2.246   1.782   0.500 -1.8584 -0.2838  3.2471
 1537TIP3    H2 4576   2.113   1.826   0.443 -0.3767 -0.5119 -0.7657
 1538TIP3   OH2 4577   5.698   3.691   4.261 -0.0648 -0.1999  0.4005
 1538TIP3    H1 4578   5.782   3.678   4.305 -0.7367 -0.6450  1.6203
 1538TIP3    H2 4579   5.651   3.753   4.318 -1.0399 -0.9509  0.4377
 1539TIP3   OH2 4580   6.137   3.925   5.836 -0.5597 -0.0899  0.4636
 1539TIP3    H1 4581   6.115   4.012   5.869 -0.8475  0.8342 -1.9556
 1539TIP3    H2 4582   6.112   3.928   5.743  1.7667 -1.8856 -0.3149
 1540TIP3   OH2 4583   6.660   4.517   2.151 -0.6433 -0.0332 -0.4095
 1540TIP3    H1 4584   6.637   4.590   2.208 -1.0931 -0.3893 -0.1296
 1540TIP3    H2 4585   6.720   4.555   2.087  0.0206  0.3254  0.4070
 1541TIP3   OH2 4586   4.970   0.815   1.130  0.4048 -0.2034  0.0102
 1541TIP3    H1 4587   5.020   0.858   1.061 -0.4246  0.2297 -0.3284
 1541TIP3    H2 4588   4.928   0.741   1.087  1.9175 -1.4922  0.6097
 1542TIP3   OH2 4589   1.630   2.503   2.519  0.8143 -0.3387 -0.1470
 1542TIP3    H1 4590   1.633   2.545   2.606 -1.6652 -0.4912  0.0950
 1542TIP3    H2 4591   1.611   2.411   2.538  2.3076 -0.8196 -0.8253
 1543TIP3   OH2 4592   6.905   1.295   5.128 -0.0018 -0.1560 -0.0770
 1543TIP3    H1 4593   6.840   1.226   5.140  0.0472 -0.1762  0.0746
 1543TIP3    H2 4594   6.966   1.260   5.063  0.3205 -0.4717  0.3839
 1544TIP3   OH2 4595   5.746   6.280   1.868  0.3703  0.4521 -0.0253
 1544TIP3    H1 4596   5.811   6.284   1.797  0.0225  2.5461 -0.2985
 1544TIP3    H2 4597   5.788   6.228   1.936  2.1883  1.3371 -0.3875
 1545TIP3   OH2 4598   2.345   3.829   3.195 -0.3870 -0.0310 -0.2901
 1545TIP3    H1 4599   2.373   3.849   3.284 -0.6240 -0.7239 -0.0558
 1545TIP3    H2 4600   2.398   3.753   3.170 -0.5318 -0.0194 -0.6358
 1546TIP3   OH2 4601   0.510   0.263   0.684  0.0418 -0.2718 -0.6524
 1546TIP3    H1 4602   0.580   0.313   0.641 -1.3677  1.4083 -1.0783
 1546TIP3    H2 4603   0.530   0.271   0.778  1.2718 -1.1619 -0.8039
 1547TIP3   OH2 4604   2.888   5.798   3.151 -0.1488 -0.2312  0.1896
 1547TIP3    H1 4605   2.839   5.771   3.229  1.1788 -0.1869  1.0880
 1547TIP3    H2 4606   2.956   5.731   3.141  0.4423  0.4077 -0.1909
 1548TIP3   OH2 4607   6.136   5.713   0.570  0.1339  0.3306 -1.0675
 1548TIP3    H1 4608   6.087   5.675   0.643  1.3776 -0.2122 -0.4816
 1548TIP3    H2 4609   6.079   5.700   0.494 -0.3264 -0.9242 -0.5397
 1549TIP3   OH2 4610   6.781   6.520   5.273 -0.2518 -0.4254  0.0237
 1549TIP3    H1 4611   6.713   6.453   5.273 -0.4131 -0.2628  0.0023
 1549TIP3    H2 4612   6.742   6.594   5.318 -0.2921 -0.1285 -0.4848
 1550TIP3   OH2 4613  -0.018   1.640   0.955 -0.4314  0.3619 -0.0996
 1550TIP3    H1 4614   0.057   1.594   0.916  1.2605  2.4668  0.4891
 1550TIP3    H2 4615  -0.038   1.590   1.034  1.0372  0.3007  0.2636
 1551TIP3   OH2 4616   4.018   5.171   5.427 -0.1300  0.6724  0.2868
 1551TIP3    H1 4617   4.046   5.226   5.501 -0.6577  0.0051  0.9935
 1551TIP3    H2 4618   4.100   5.137   5.391  0.0862  0.2141  1.1861
 1552TIP3   OH2 4619   4.972   3.936   0.445 -0.0889 -0.1200  0.7671
 1552TIP3    H1 4620   5.062   3.968   0.455  0.5008 -1.3962 -0.1028
 1552TIP3    H2 4621   4.923   4.012   0.416  0.5936  0.7317  1.7688
 1553TIP3   OH2 4622   6.185   4.121   4.991  0.3212  1.0797 -0.1297
 1553TIP3    H1 4623   6.272   4.116   5.030  0.4190  1.7219 -0.2656
 1553TIP3    H2 4624   6.130   4.160   5.059 -0.3541 -1.2286  0.7662
 1554TIP3   OH2 4625   4.244   2.800   1.144  0.7763 -0.0773  0.7491
 1554TIP3    H1 4626   4.216   2.765   1.059  1.1613  0.5177  0.3696
 1554TIP3    H2 4627   4.202   2.743   1.208 -0.0499 -0.1478  0.1700
 1555TIP3   OH2 4628   5.207   1.932   1.250 -0.4274  0.3888  0.3721
 1555TIP3    H1 4629   5.213   2.028   1.241  0.0067  0.2861 -0.5650
 1555TIP3    H2 4630   5.227   1.916   1.343  1.1829  1.1046  0.1963
 1556TIP3   OH2 4631   3.348   4.958   2.442 -0.4799 -0.2442 -0.1989
 1556TIP3    H1 4632   3.309   4.960   2.355  0.1790 -1.7612 -0.5588
 1556TIP3    H2 4633   3.292   4.899   2.492 -0.1415 -0.3719  0.0361
 1557TIP3   OH2 4634   2.683   1.782   3.675 -0.1200  0.3239  0.0292
 1557TIP3    H1 4635   2.684   1.787   3.770  0.9174 -0.3662  0.0690
 1557TIP3    H2 4636   2.616   1.717   3.655  0.8038 -0.7552  0.3701
 1558TIP3   OH2 4637   3.917   2.212   4.891  0.0599  0.0799  0.3656
 1558TIP3    H1 4638   3.919   2.136   4.832  2.6723  0.6122 -0.3699
 1558TIP3    H2 4639   3.865   2.182   4.966 -1.1150 -1.5371 -1.0019
 1559TIP3   OH2 4640   7.168   2.981   2.469 -0.2420 -0.0356  0.3894
 1559TIP3    H1 4641   7.209   2.910   2.420 -1.2272  0.8572 -1.8683
 1559TIP3    H2 4642   7.230   3.001   2.539  2.1666 -0.1810 -1.5719
 1560TIP3   OH2 4643   4.738   1.742   0.305 -0.1091  0.2556  0.3209
 1560TIP3    H1 4644   4.791   1.662   0.305  1.0536  0.9883 -0.5445
 1560TIP3    H2 4645   4.801   1.812   0.321 -0.7938  1.1674 -0.8004
 1561TIP3   OH2 4646   5.105   4.818   0.138  0.0086  0.2888  0.0078
 1561TIP3    H1 4647   5.182   4.830   0.193 -0.0570 -1.5863  0.5915
 1561TIP3    H2 4648   5.032   4.852   0.190  0.2448  0.6304  0.1164
 1562TIP3   OH2 4649   0.254   6.660   2.891  0.2125 -0.1758 -0.2216
 1562TIP3    H1 4650   0.206   6.742   2.897 -1.9400 -1.3958  0.8455
 1562TIP3    H2 4651   0.185   6.592   2.895  1.9295 -2.0177 -0.3772
 1563TIP3   OH2 4652   0.411   0.829   2.543 -0.1996  0.0197  0.5029
 1563TIP3    H1 4653   0.341   0.764   2.533  1.8209 -2.4488  1.4891
 1563TIP3    H2 4654   0.459   0.825   2.460 -0.4502  0.7841  0.3135
 1564TIP3   OH2 4655   4.107   0.614   2.008 -0.1120 -0.2194  0.0534
 1564TIP3    H1 4656   4.152   0.692   2.041  0.4585 -0.9209  0.9713
 1564TIP3    H2 4657   4.099   0.630   1.914 -1.8878  1.8853  0.4823
 1565TIP3   OH2 4658   2.425   1.628   4.423 -0.4017 -0.0857 -0.3972
 1565TIP3    H1 4659   2.482   1.580   4.364  0.8964  1.6832 -0.6586
 1565TIP3    H2 4660   2.347   1.573   4.432  1.2463 -2.4868 -0.1584
 1566TIP3   OH2 4661   7.088   3.967   5.556 -0.1263  0.2139  0.2294
 1566TIP3    H1 4662   7.101   3.943   5.465 -0.5918  0.8567 -0.0181
 1566TIP3    H2 4663   7.032   3.898   5.592 -0.8948  0.5495 -0.2909
 1567TIP3   OH2 4664   3.704   5.691   3.342  0.5673  0.1452  0.1304
 1567TIP3    H1 4665   3.615   5.709   3.311  1.2831  2.3906 -0.8244
 1567TIP3    H2 4666   3.693   5.666   3.434 -0.9263  2.6647  0.7302
 1568TIP3   OH2 4667   1.772   4.214   3.178  0.2347 -0.5201 -0.1826
 1568TIP3    H1 4668   1.789   4.254   3.263 -0.3824 -0.4554 -0.0820
 1568TIP3    H2 4669   1.735   4.128   3.198 -0.9133 -0.0876 -0.3550
 1569TIP3   OH2 4670   1.658   1.095   3.396  0.5980 -0.2621  0.0726
 1569TIP3    H1 4671   1.639   1.004   3.420  0.2466 -0.0329  0.6904
 1569TIP3    H2 4672   1.746   1.092   3.360  0.1592 -1.0298 -0.9951
 1570TIP3   OH2 4673   6.786   1.879   4.178 -0.4965  0.3455 -0.0756
 1570TIP3    H1 4674   6.801   1.801   4.125 -1.5158  0.2159 -0.1959
 1570TIP3    H2 4675   6.722   1.930   4.128  0.6833  1.6279 -0.3572
 1571TIP3   OH2 4676   6.790   0.889   2.466  0.4459 -0.1531 -0.0210
 1571TIP3    H1 4677   6.789   0.840   2.548 -0.5937  1.2220  0.8198
 1571TIP3    H2 4678   6.709   0.865   2.422 -0.5773  1.4958  0.8623
 1572TIP3   OH2 4679   5.542   0.051   5.139  0.2716 -0.3107 -0.3381
 1572TIP3    H1 4680   5.528  -0.041   5.160  2.8610 -0.6563  0.1376
 1572TIP3    H2 4681   5.592   0.050   5.058  0.7865  0.6381 -0.0470
 1573TIP3   OH2 4682   1.007   1.134   1.078 -0.2098 -0.0098  0.5186
 1573TIP3    H1 4683   1.019   1.149   1.172  1.0565  1.1032  0.2199
 1573TIP3    H2 4684   1.061   1.202   1.036  0.9821 -1.7938 -1.0132
 1574TIP3   OH2 4685   6.154   5.174   3.038 -0.0783  0.1909  0.0474
 1574TIP3    H1 4686   6.162   5.183   2.943 -0.8323 -3.5958 -0.5103
 1574TIP3    H2 4687   6.060   5.167   3.053  0.1138 -0.8937  0.8379
 1575TIP3   OH2 4688   3.161   2.848   3.750 -0.3492 -0.0207 -0.0692
 1575TIP3    H1 4689   3.125   2.881   3.832  1.0492  1.5496 -0.0453
 1575TIP3    H2 4690   3.223   2.779   3.776 -1.2518 -0.8098  0.0477
 1576TIP3   OH2 4691   1.257   4.993   5.908  0.1424 -0.6477  0.5491
 1576TIP3    H1 4692   1.280   4.940   5.832  1.3845 -0.6651  0.9248
 1576TIP3    H2 4693   1.164   4.974   5.922 -0.4046  0.1310 -1.5665
 1577TIP3   OH2 4694   4.734   1.126   1.613 -0.0005  0.5202  0.2854
 1577TIP3    H1 4695   4.775   1.170   1.688  1.8553  0.7519 -0.8120
 1577TIP3    H2 4696   4.804   1.076   1.573 -0.7908  0.8638 -1.6537
 1578TIP3   OH2 4697   2.170   5.668   5.612  0.4108  0.1708  0.3605
 1578TIP3    H1 4698   2.191   5.721   5.689  0.5903 -0.2522  0.6030
 1578TIP3    H2 4699   2.219   5.587   5.624 -0.0962 -0.1756  0.1412
 1579TIP3   OH2 4700   5.163   3.974   5.754 -0.2028  0.0224  0.0045
 1579TIP3    H1 4701   5.130   3.892   5.792 -1.4169 -0.4111 -1.8393
 1579TIP3    H2 4702   5.230   3.945   5.692  0.9124  0.6300  0.8822
 1580TIP3   OH2 4703   5.277   3.715   3.096  0.0221  0.5643 -0.0320
 1580TIP3    H1 4704   5.282   3.798   3.048 -1.3305  1.3335  1.0480
 1580TIP3    H2 4705   5.349   3.720   3.159  0.9131  0.1912 -0.9972
 1581TIP3   OH2 4706   2.640   3.051   2.414 -0.0108 -0.1778 -0.0149
 1581TIP3    H1 4707   2.714   3.064   2.355 -0.9110 -0.6386 -1.2930
 1581TIP3    H2 4708   2.626   2.956   2.413 -1.4833  0.0255 -0.9159
 1582TIP3   OH2 4709   0.678   4.307   2.296 -0.1574  0.4720 -0.4188
 1582TIP3    H1 4710   0.681   4.231   2.237  0.6783 -1.7521  2.2759
 1582TIP3    H2 4711   0.596   4.296   2.344  0.5309  0.6034  0.8034
 1583TIP3   OH2 4712   4.700   0.510   5.173  0.2434 -0.4130  0.4669
 1583TIP3    H1 4713   4.638   0.561   5.120 -0.0194 -1.6069 -0.4172
 1583TIP3    H2 4714   4.720   0.433   5.119 -0.8714 -2.2580  2.5000
 1584TIP3   OH2 4715   5.267   2.718   0.241 -0.2630  0.2352 -0.1326
 1584TIP3    H1 4716   5.300   2.790   0.294 -1.5040  1.5358 -1.0648
 1584TIP3    H2 4717   5.203   2.674   0.298  0.4137 -0.0943  0.3947
 1585TIP3   OH2 4718   2.363   6.131   3.199 -0.5052  0.0391 -0.4592
 1585TIP3    H1 4719   2.310   6.143   3.120 -1.5110 -2.5904 -0.2683
 1585TIP3    H2 4720   2.453   6.130   3.167 -0.7928  0.6079 -1.3395
 1586TIP3   OH2 4721   5.106   6.360   3.062  0.3419 -0.3657  0.3532
 1586TIP3    H1 4722   5.022   6.321   3.035 -1.0446  1.3814  1.8582
 1586TIP3    H2 4723   5.106   6.350   3.158  1.7201 -0.0385  0.4008
 1587TIP3   OH2 4724   6.802   5.802   5.089  0.4787 -0.5643  0.2022
 1587TIP3    H1 4725   6.846   5.718   5.108 -1.3255 -1.0063  3.0477
 1587TIP3    H2 4726   6.750   5.784   5.011  0.4887 -1.9672  0.4788
 1588TIP3   OH2 4727  -0.008   2.391   1.842  0.1910 -0.1093  0.3875
 1588TIP3    H1 4728   0.051   2.464   1.863  1.3532 -1.0565  0.5419
 1588TIP3    H2 4729  -0.006   2.384   1.747  0.6313 -0.3654  0.4120
 1589TIP3   OH2 4730   5.852   0.622   2.587 -0.0305 -0.9029 -0.0126
 1589TIP3    H1 4731   5.916   0.594   2.522  0.8977  0.8174  0.1238
 1589TIP3    H2 4732   5.818   0.705   2.555 -0.9727 -0.9695  0.7527
 1590TIP3   OH2 4733   0.654   0.516   0.603 -0.1307  0.2274 -0.4617
 1590TIP3    H1 4734   0.659   0.557   0.690  1.8805  0.0249 -0.4172
 1590TIP3    H2 4735   0.583   0.562   0.558 -1.2518  0.3033  1.2928
 1591TIP3   OH2 4736   1.309   2.219   4.420  0.0445  0.0959 -0.2783
 1591TIP3    H1 4737   1.282   2.311   4.414 -1.6327 -0.3378 -0.0319
 1591TIP3    H2 4738   1.278   2.191   4.506 -1.4357 -1.2523 -1.1885
 1592TIP3   OH2 4739   1.710   6.393   3.876 -0.6038 -0.1678  0.0457
 1592TIP3    H1 4740   1.622   6.421   3.900 -0.7403 -0.0586 -0.5779
 1592TIP3    H2 4741   1.709   6.389   3.781 -0.0309 -0.4884  0.0488
 1593TIP3   OH2 4742   3.304   5.815   5.412 -0.3941  0.0849  0.6283
 1593TIP3    H1 4743   3.304   5.863   5.495  0.5049  0.5059  0.3952
 1593TIP3    H2 4744   3.332   5.880   5.347  1.2801 -0.8471  0.3754
 1594TIP3   OH2 4745   6.304   5.684   4.315 -0.2260 -0.1023 -0.2291
 1594TIP3    H1 4746   6.287   5.778   4.314  1.3063  0.2238  1.2650
 1594TIP3    H2 4747   6.392   5.675   4.278  0.3474 -0.7500  1.2416
 1595TIP3   OH2 4748   3.446   2.221   2.605  0.2128 -0.3021 -0.4933
 1595TIP3    H1 4749   3.487   2.257   2.526 -0.2126 -0.7832 -0.9445
 1595TIP3    H2 4750   3.352   2.236   2.592  0.2235  0.6377  0.4479
 1596TIP3   OH2 4751   2.963   5.491   5.880  0.1476  0.4122  0.7817
 1596TIP3    H1 4752   2.884   5.520   5.924 -1.7501 -1.2275 -1.3326
 1596TIP3    H2 4753   2.948   5.509   5.788  1.5759 -1.2924  0.1487
 1597TIP3   OH2 4754   7.008   2.431   5.724  0.7373 -0.0126  0.2246
 1597TIP3    H1 4755   7.100   2.426   5.699  1.0252  1.5335  0.8415
 1597TIP3    H2 4756   7.008   2.420   5.819  0.6718  2.8147  0.6491
 1598TIP3   OH2 4757   7.076   4.696   1.211 -0.0803  0.4490  0.0523
 1598TIP3    H1 4758   6.991   4.664   1.180  0.4483 -0.9263 -0.0588
 1598TIP3    H2 4759   7.137   4.670   1.142  0.8635 -1.2189  1.4238
 1599TIP3   OH2 4760   1.212   2.998   4.438 -0.0945 -0.5307 -0.1867
 1599TIP3    H1 4761   1.269   3.014   4.514 -0.4145  1.8571 -0.3495
 1599TIP3    H2 4762   1.272   2.978   4.367  0.4715  0.3087  0.0296
 1600TIP3   OH2 4763   4.123   0.616   3.632  0.2041  0.2647 -0.3705
 1600TIP3    H1 4764   4.096   0.672   3.705 -0.1978 -0.3709 -0.0274
 1600TIP3    H2 4765   4.208   0.580   3.659 -0.9861 -1.7996  0.8388
 1601TIP3   OH2 4766   2.448   3.161   2.245  0.1741  0.5235  0.0976
 1601TIP3    H1 4767   2.509   3.115   2.303 -1.3458 -0.4633  0.9617
 1601TIP3    H2 4768   2.495   3.241   2.222  1.0700  0.7213  2.2804
 1602TIP3   OH2 4769   3.445   4.388   0.560  0.1329  0.5227 -0.6329
 1602TIP3    H1 4770   3.505   4.314   0.552 -0.1795  0.0156  1.3278
 1602TIP3    H2 4771   3.463   4.426   0.646 -0.6918  1.8592 -1.0146
 1603TIP3   OH2 4772   5.875   4.694   4.885 -0.2937  0.0288  0.1982
 1603TIP3    H1 4773   5.817   4.675   4.812 -1.5350 -0.9382  1.3916
 1603TIP3    H2 4774   5.962   4.669   4.854 -0.6736  0.3337 -1.1814
 1604TIP3   OH2 4775   5.925   1.957   1.560  0.1182 -0.0426 -0.3560
 1604TIP3    H1 4776   6.012   1.938   1.596 -0.5245  0.2073  1.3977
 1604TIP3    H2 4777   5.882   2.009   1.628 -1.0814  0.6451 -1.6025
 1605TIP3   OH2 4778   2.667   4.249   3.887 -0.1309  0.3436  0.2681
 1605TIP3    H1 4779   2.718   4.190   3.943  0.5557  0.1873 -0.5195
 1605TIP3    H2 4780   2.667   4.332   3.935 -0.1523  0.0269  0.8372
 1606TIP3   OH2 4781   1.584   1.862   3.980 -0.0870  0.0475 -0.3954
 1606TIP3    H1 4782   1.533   1.896   4.053 -0.2189 -0.0122 -0.4598
 1606TIP3    H2 4783   1.526   1.869   3.905 -0.3166 -0.8134 -0.3132
 1607TIP3   OH2 4784   5.633   6.153   3.147 -0.0546 -0.0496  0.6408
 1607TIP3    H1 4785   5.671   6.207   3.215  0.2849 -0.3834  0.7193
 1607TIP3    H2 4786   5.669   6.187   3.066 -0.1176  0.0656  0.6609
 1608TIP3   OH2 4787   7.116   5.823   3.708  0.2280 -0.1244  0.2910
 1608TIP3    H1 4788   7.207   5.806   3.734  0.0786 -0.0529  0.8577
 1608TIP3    H2 4789   7.066   5.818   3.789 -0.2745 -0.1222 -0.0127
 1609TIP3   OH2 4790   2.851   1.619   1.226 -0.3589 -0.8288  0.2345
 1609TIP3    H1 4791   2.896   1.536   1.208 -1.8332 -1.5706 -0.2388
 1609TIP3    H2 4792   2.870   1.673   1.149  0.8644 -0.6080  0.6862
 1610TIP3   OH2 4793   2.927   2.282   2.520 -0.2255  0.5052 -0.0432
 1610TIP3    H1 4794   2.909   2.276   2.426 -0.6727  0.0236  0.0641
 1610TIP3    H2 4795   2.868   2.217   2.559 -0.9302  1.5497  0.6783
 1611TIP3   OH2 4796   5.228   2.943   2.576 -0.4674 -0.2210  0.0905
 1611TIP3    H1 4797   5.286   2.943   2.500  1.3917  1.9193  1.3554
 1611TIP3    H2 4798   5.147   2.983   2.544  0.6756  1.7131 -0.6216
 1612TIP3   OH2 4799   1.944   0.642   5.870 -0.2591 -0.3397 -0.2499
 1612TIP3    H1 4800   1.987   0.680   5.946 -1.2555 -2.8594  1.6850
 1612TIP3    H2 4801   2.012   0.639   5.803  0.8840  1.1238  0.7778
 1613TIP3   OH2 4802   5.060   1.984   3.250  0.1102 -0.2440 -0.3319
 1613TIP3    H1 4803   4.972   1.949   3.239 -0.1656  0.4701 -0.4554
 1613TIP3    H2 4804   5.067   2.003   3.344 -0.3886  1.0063 -0.5253
 1614TIP3   OH2 4805   0.209   0.972   2.321 -0.7298 -0.0417 -0.2458
 1614TIP3    H1 4806   0.140   1.005   2.263 -0.1102 -1.3503 -1.7876
 1614TIP3    H2 4807   0.164   0.953   2.403 -1.5506  2.2354 -0.0928
 1615TIP3   OH2 4808   5.680   2.490   1.229 -0.3201 -0.2991 -0.2669
 1615TIP3    H1 4809   5.745   2.420   1.228 -0.5189 -0.5043  0.4435
 1615TIP3    H2 4810   5.732   2.570   1.238 -0.1038 -0.3653 -0.8778
 1616TIP3   OH2 4811   5.216   3.372   2.934  0.0462 -0.1298  0.4793
 1616TIP3    H1 4812   5.180   3.292   2.896  0.8931 -0.6567  0.7678
 1616TIP3    H2 4813   5.157   3.393   3.006  0.5428 -1.2400  1.2366
 1617TIP3   OH2 4814   6.188   4.702   0.382 -0.1381 -0.1496  0.0624
 1617TIP3    H1 4815   6.114   4.691   0.441 -0.0796 -1.4717 -0.0921
 1617TIP3    H2 4816   6.178   4.633   0.317  0.8109  0.1379 -0.4087
 1618TIP3   OH2 4817   2.390   4.595   2.521  0.3232  0.5383 -1.0406
 1618TIP3    H1 4818   2.436   4.528   2.571  1.4994  2.0417 -0.0341
 1618TIP3    H2 4819   2.298   4.582   2.544  0.5656 -0.4762 -0.5759
 1619TIP3   OH2 4820   3.199   6.085   0.377  0.4203  0.4335 -0.2462
 1619TIP3    H1 4821   3.153   6.012   0.420  0.5821  0.3350 -0.2398
 1619TIP3    H2 4822   3.286   6.084   0.416  0.8832 -0.2506 -1.2424
 1620TIP3   OH2 4823   2.889   1.393   3.203 -0.5862  0.1486 -0.1887
 1620TIP3    H1 4824   2.808   1.380   3.251 -0.9895  2.8582  0.0004
 1620TIP3    H2 4825   2.955   1.345   3.254 -2.0006 -2.2770 -0.4635
 1621TIP3   OH2 4826   2.757   5.332   5.283 -0.2771 -0.9397  0.3136
 1621TIP3    H1 4827   2.810   5.293   5.214  1.1208 -1.9182  1.8754
 1621TIP3    H2 4828   2.702   5.260   5.315 -0.0553 -0.8163  0.9966
 1622TIP3   OH2 4829   6.480   3.439   3.809  0.3431 -0.3531 -0.3582
 1622TIP3    H1 4830   6.520   3.356   3.786  0.5605 -0.6667  1.0368
 1622TIP3    H2 4831   6.427   3.463   3.733 -1.0805 -2.5959 -0.1615
 1623TIP3   OH2 4832   1.321   6.621   0.088  0.5990 -0.1925 -0.1933
 1623TIP3    H1 4833   1.260   6.557   0.052  0.2545 -0.4307  0.7684
 1623TIP3    H2 4834   1.301   6.703   0.043  0.1009 -0.4495 -0.4439
 1624TIP3   OH2 4835   3.090   5.665   3.658 -0.4854  0.2739  0.0762
 1624TIP3    H1 4836   3.167   5.664   3.714  0.5644  0.5753 -1.2954
 1624TIP3    H2 4837   3.071   5.572   3.642  0.1159  0.2012 -0.2422
 1625TIP3   OH2 4838   6.297   2.223   2.416 -0.3978 -0.1429 -0.7815
 1625TIP3    H1 4839   6.227   2.233   2.481 -0.3545  0.1261 -0.7776
 1625TIP3    H2 4840   6.269   2.276   2.342 -0.0627  0.1880 -0.6708
 1626TIP3   OH2 4841   6.518   3.404   5.296 -0.2406  0.1495  0.1545
 1626TIP3    H1 4842   6.433   3.448   5.291 -0.2582  0.0423 -0.6468
 1626TIP3    H2 4843   6.509   3.345   5.372 -0.3162  1.2776  1.0524
 1627TIP3   OH2 4844   3.790   0.331   4.188  0.0900 -0.1600  0.5862
 1627TIP3    H1 4845   3.768   0.397   4.254  0.2159 -0.1266  0.5952
 1627TIP3    H2 4846   3.815   0.382   4.111  2.8356 -0.1320  1.4186
 1628TIP3   OH2 4847   4.231   4.825   4.258 -0.5366 -0.0433 -0.0571
 1628TIP3    H1 4848   4.186   4.852   4.178 -1.0218 -0.5723  0.0318
 1628TIP3    H2 4849   4.207   4.733   4.269 -0.6710  0.0922  0.8331
 1629TIP3   OH2 4850   4.320   5.875   1.488 -0.2545  0.7814 -0.1742
 1629TIP3    H1 4851   4.390   5.832   1.439 -1.0423 -1.3088  0.4183
 1629TIP3    H2 4852   4.247   5.878   1.426  0.1186  2.3446 -0.5730
 1630TIP3   OH2 4853   5.873   2.829   0.072  0.2180  0.3983 -0.4028
 1630TIP3    H1 4854   5.895   2.745   0.112  0.1347  1.1102  1.2193
 1630TIP3    H2 4855   5.952   2.883   0.082 -0.5169  1.3060  0.8620
 1631TIP3   OH2 4856   6.322   2.639   2.414 -0.2840  0.5883 -0.2214
 1631TIP3    H1 4857   6.405   2.633   2.461 -0.1516 -0.0898 -0.5457
 1631TIP3    H2 4858   6.261   2.586   2.466 -0.5244  1.0870  0.0193
 1632TIP3   OH2 4859   2.550   5.136   0.982 -0.1276 -0.5093 -0.8808
 1632TIP3    H1 4860   2.458   5.163   0.989 -0.0984 -0.3303 -1.1517
 1632TIP3    H2 4861   2.553   5.078   0.906  0.2368  0.6584 -1.7978
 1633TIP3   OH2 4862   2.716   5.062   5.808 -0.4673  0.1374 -0.1309
 1633TIP3    H1 4863   2.750   5.010   5.881 -0.9358 -0.3381 -0.2370
 1633TIP3    H2 4864   2.720   5.002   5.733 -1.1367  0.2036 -0.2276
 1634TIP3   OH2 4865   4.438   1.270   3.134 -0.0858 -0.2309 -0.0234
 1634TIP3    H1 4866   4.516   1.290   3.185 -0.0917 -1.0771  0.3382
 1634TIP3    H2 4867   4.467   1.206   3.069 -0.4426 -0.4691  0.0433
 1635TIP3   OH2 4868   6.546   6.773   3.211  0.3538 -0.0607  0.5679
 1635TIP3    H1 4869   6.614   6.709   3.189 -0.8894 -1.1463 -0.2508
 1635TIP3    H2 4870   6.488   6.727   3.271  0.7252  1.1232  1.9180
 1636TIP3   OH2 4871   0.781   3.981   4.627  0.3714  0.2506  0.0422
 1636TIP3    H1 4872   0.725   4.059   4.622  0.0196  0.0326  0.5090
 1636TIP3    H2 4873   0.870   4.017   4.630  0.2698  0.5951 -0.7699
 1637TIP3   OH2 4874   5.911   1.066   0.257  0.3190  0.3109 -0.0671
 1637TIP3    H1 4875   5.874   1.151   0.284  1.1925  1.2034 -1.5490
 1637TIP3    H2 4876   6.003   1.084   0.241  0.2109 -0.5722 -1.8351
 1638TIP3   OH2 4877   1.704   5.700   3.520 -0.4624 -0.3240 -0.3972
 1638TIP3    H1 4878   1.620   5.704   3.567  0.3752 -2.3700  1.4443
 1638TIP3    H2 4879   1.770   5.716   3.588  0.7244  2.5560 -2.0189
 1639TIP3   OH2 4880   6.002   4.460   1.951 -0.0071  0.0189 -0.0460
 1639TIP3    H1 4881   6.052   4.538   1.977 -0.2603  0.2415 -0.2131
 1639TIP3    H2 4882   6.068   4.394   1.932  0.2687  0.5927 -1.1539
 1640TIP3   OH2 4883   4.967   0.806   2.818  0.1933  0.1441  0.0323
 1640TIP3    H1 4884   4.884   0.837   2.783  0.4023 -0.0666 -0.6648
 1640TIP3    H2 4885   5.012   0.767   2.743  0.7767 -0.0513  0.4732
 1641TIP3   OH2 4886   4.830   6.792   0.843  1.0095 -0.3341 -0.3378
 1641TIP3    H1 4887   4.803   6.791   0.752 -0.6854  0.6867  0.1246
 1641TIP3    H2 4888   4.876   6.709   0.855  0.3423 -0.9473 -1.8337
 1642TIP3   OH2 4889   1.319   2.533   4.367 -0.0651 -0.4386 -0.1733
 1642TIP3    H1 4890   1.344   2.615   4.326 -1.4575  0.2633  0.3181
 1642TIP3    H2 4891   1.227   2.520   4.342 -0.7025 -0.4375  1.9003
 1643TIP3   OH2 4892   5.587   6.091   0.123 -0.7113 -0.1808 -0.8056
 1643TIP3    H1 4893   5.641   6.024   0.082  0.0240 -1.3317  1.8030
 1643TIP3    H2 4894   5.509   6.045   0.154 -1.0920  0.5468 -0.6449
 1644TIP3   OH2 4895   3.693   4.934   0.789 -0.0442 -0.3438  0.8105
 1644TIP3    H1 4896   3.622   4.998   0.796  0.2129  0.0025  0.2990
 1644TIP3    H2 4897   3.649   4.853   0.762 -0.2233 -0.0866  0.3233
 1645TIP3   OH2 4898   5.119   3.060   3.698 -0.0875 -0.3279  0.4507
 1645TIP3    H1 4899   5.159   3.135   3.654  0.9001  0.0055  1.8696
 1645TIP3    H2 4900   5.034   3.092   3.728  0.2181  0.1380  0.8182
 1646TIP3   OH2 4901   1.486   1.375   4.648 -0.2776 -0.2403 -0.1227
 1646TIP3    H1 4902   1.553   1.307   4.652 -0.1971 -0.1434  0.2098
 1646TIP3    H2 4903   1.421   1.349   4.713  0.6447  0.9285  1.3461
 1647TIP3   OH2 4904   0.077   0.229   0.969  0.3320  0.2390  0.1076
 1647TIP3    H1 4905   0.077   0.155   0.908 -0.8637  0.8442 -0.6669
 1647TIP3    H2 4906   0.150   0.283   0.942 -0.3815  0.6671 -1.0257
 1648TIP3   OH2 4907   6.433   1.618   4.650 -0.3399 -0.0592 -0.2336
 1648TIP3    H1 4908   6.403   1.527   4.640 -0.6256  0.0304 -0.1916
 1648TIP3    H2 4909   6.527   1.610   4.668 -0.0073 -0.2790 -1.8660
 1649TIP3   OH2 4910   1.557   6.293   2.872  0.3072 -0.1250 -0.9271
 1649TIP3    H1 4911   1.624   6.339   2.924  0.3600 -2.0604  0.8536
 1649TIP3    H2 4912   1.607   6.253   2.800  0.4696  1.3700 -1.6786
 1650TIP3   OH2 4913   4.531   4.760   5.117  0.5497 -0.0697  0.4570
 1650TIP3    H1 4914   4.479   4.743   5.196 -1.3292  0.3578 -0.6329
 1650TIP3    H2 4915   4.494   4.701   5.051  2.1161 -0.4470 -0.1192
 1651TIP3   OH2 4916   3.641   0.863   1.099 -0.2078  0.3977 -0.2071
 1651TIP3    H1 4917   3.647   0.776   1.059  0.9461  0.5715 -0.4652
 1651TIP3    H2 4918   3.584   0.913   1.040  1.7179  0.7455 -1.9064
 1652TIP3   OH2 4919   0.728   2.634   2.529 -0.3861 -0.5006 -0.3663
 1652TIP3    H1 4920   0.779   2.557   2.503  0.7158 -0.2062  0.8221
 1652TIP3    H2 4921   0.725   2.689   2.451  1.5733 -0.2990 -0.3294
 1653TIP3   OH2 4922   0.405   1.385   1.260 -0.5507  0.2420 -0.3003
 1653TIP3    H1 4923   0.472   1.323   1.287 -0.9346 -0.1776 -0.2917
 1653TIP3    H2 4924   0.344   1.388   1.334 -1.2123 -0.3490 -0.8070
 1654TIP3   OH2 4925   6.281   1.449   0.459  0.5938  0.2538  0.1717
 1654TIP3    H1 4926   6.328   1.401   0.390  0.4511 -1.1104  0.9889
 1654TIP3    H2 4927   6.211   1.495   0.412  0.9828 -0.0087 -0.6953
 1655TIP3   OH2 4928   1.434   3.068   1.303 -0.6029 -0.2796  0.2556
 1655TIP3    H1 4929   1.442   2.979   1.267 -1.6572  0.0485 -0.8623
 1655TIP3    H2 4930   1.358   3.062   1.361 -0.4649 -0.1873  0.4444
 1656TIP3   OH2 4931   7.155   4.700   1.962  0.5598  0.2459  0.0401
 1656TIP3    H1 4932   7.128   4.770   1.903 -2.7248 -1.7358 -1.0783
 1656TIP3    H2 4933   7.196   4.635   1.905 -1.9247 -1.3309 -0.0916
 1657TIP3   OH2 4934   1.809   4.712   2.161 -0.2461  0.4929 -0.0606
 1657TIP3    H1 4935   1.779   4.685   2.075 -0.4105  0.6675 -0.0591
 1657TIP3    H2 4936   1.900   4.738   2.148 -0.4885  1.2142 -0.3283
 1658TIP3   OH2 4937   5.846   6.638   5.577  0.2162 -0.1909  0.3388
 1658TIP3    H1 4938   5.783   6.576   5.540 -0.1837  0.6860 -0.5233
 1658TIP3    H2 4939   5.903   6.585   5.633 -1.0550 -1.0660  0.8445
 1659TIP3   OH2 4940   7.134   0.625   0.776 -0.3135 -0.2005 -0.1358
 1659TIP3    H1 4941   7.138   0.665   0.863 -0.2080 -0.6902  0.0894
 1659TIP3    H2 4942   7.062   0.670   0.732 -0.3987  0.0171  0.2242
 1660TIP3   OH2 4943   4.687   6.434   2.132 -0.1200 -0.0958 -0.2348
 1660TIP3    H1 4944   4.617   6.490   2.166  0.1868 -0.6771  1.4152
 1660TIP3    H2 4945   4.644   6.349   2.118 -0.5456  0.4388 -2.5766
 1661TIP3   OH2 4946   0.065   5.166   1.792 -0.1969  0.1571  0.0747
 1661TIP3    H1 4947   0.063   5.254   1.754 -1.1379  0.2732  0.3738
 1661TIP3    H2 4948  -0.001   5.117   1.744 -0.6616  0.0107  0.8405
 1662TIP3   OH2 4949   4.822   6.655   3.597  0.6062 -0.1773  0.0766
 1662TIP3    H1 4950   4.813   6.603   3.676  1.0878  0.8425  0.8218
 1662TIP3    H2 4951   4.754   6.621   3.538  1.6250 -2.4002  0.0839
 1663TIP3   OH2 4952   6.174   3.349   3.318 -0.0518 -0.0788 -0.4849
 1663TIP3    H1 4953   6.131   3.434   3.325  0.7641  0.3496 -0.5617
 1663TIP3    H2 4954   6.163   3.309   3.405  0.1912  0.4195 -0.2197
 1664TIP3   OH2 4955   3.434   1.035   3.568  0.0710  0.1050 -0.3410
 1664TIP3    H1 4956   3.346   1.025   3.530 -0.2968 -1.5112  0.8024
 1664TIP3    H2 4957   3.452   1.129   3.562 -1.6958  0.4689 -0.7120
 1665TIP3   OH2 4958   4.938   3.733   1.913 -0.0893 -0.0695 -0.2571
 1665TIP3    H1 4959   4.844   3.744   1.931 -0.6798 -2.8759 -1.0740
 1665TIP3    H2 4960   4.951   3.775   1.828 -0.7148 -0.0617 -0.3564
 1666TIP3   OH2 4961   2.337   2.237   5.801  0.0430  0.0162 -0.0703
 1666TIP3    H1 4962   2.421   2.193   5.801 -1.0132 -2.1757 -1.8162
 1666TIP3    H2 4963   2.280   2.182   5.855 -0.7667  0.3848 -0.5199
 1667TIP3   OH2 4964   4.318   5.012   2.733 -1.0325  0.7014 -0.0412
 1667TIP3    H1 4965   4.270   5.057   2.802 -1.9160 -0.6502  0.2619
 1667TIP3    H2 4966   4.257   4.946   2.700 -1.0726  1.9950 -2.8933
 1668TIP3   OH2 4967   3.917   1.970   3.560 -0.5343  0.0859  0.2431
 1668TIP3    H1 4968   3.893   1.878   3.565 -0.4681  0.0625  0.1198
 1668TIP3    H2 4969   3.899   1.995   3.469  2.4459 -0.6220 -0.6542
 1669TIP3   OH2 4970   2.739   5.682   4.408 -0.2511 -0.0878 -0.0202
 1669TIP3    H1 4971   2.798   5.632   4.464 -0.4587  0.8001  1.0350
 1669TIP3    H2 4972   2.652   5.647   4.428 -0.1921 -0.7921 -0.9229
 1670TIP3   OH2 4973   6.613   2.667   2.528 -0.5787 -0.1755 -0.1989
 1670TIP3    H1 4974   6.625   2.680   2.622 -0.4663 -0.6577 -0.1442
 1670TIP3    H2 4975   6.637   2.576   2.513  0.5243  0.2043 -0.8803
 1671TIP3   OH2 4976   6.510   4.782   1.919  0.1217  0.0332  0.2643
 1671TIP3    H1 4977   6.425   4.767   1.878  1.0920 -2.0393 -1.2167
 1671TIP3    H2 4978   6.570   4.794   1.846  1.4287 -0.6567  1.1838
 1672TIP3   OH2 4979   3.913   0.131   2.022 -0.5982  0.4437 -0.0805
 1672TIP3    H1 4980   3.952   0.053   2.063 -0.0332  1.5753  1.6322
 1672TIP3    H2 4981   3.970   0.150   1.947 -0.8627 -0.8814 -0.6453
 1673TIP3   OH2 4982   4.535   6.188   0.707 -0.2578 -0.0396 -0.7313
 1673TIP3    H1 4983   4.520   6.272   0.665 -0.9879 -0.4351 -1.2923
 1673TIP3    H2 4984   4.530   6.124   0.636  1.2174 -0.4810 -0.4632
 1674TIP3   OH2 4985   4.702   1.400   3.660 -0.0240 -0.3493  0.0672
 1674TIP3    H1 4986   4.684   1.494   3.659  0.5341 -0.2281  0.6939
 1674TIP3    H2 4987   4.691   1.375   3.752  3.5014 -0.1332  0.6613
 1675TIP3   OH2 4988   5.780   3.919   5.654 -0.1958 -0.1238 -0.5461
 1675TIP3    H1 4989   5.833   3.840   5.663 -1.5264 -0.9125  1.0518
 1675TIP3    H2 4990   5.699   3.898   5.701 -0.4998  2.2762  0.1245
 1676TIP3   OH2 4991   6.093   1.235   2.771 -0.1337  0.5237 -0.5735
 1676TIP3    H1 4992   6.154   1.162   2.780 -1.2309 -0.2356  1.5359
 1676TIP3    H2 4993   6.140   1.310   2.809  0.3372  0.5102 -1.1190
 1677TIP3   OH2 4994   5.746   0.306   0.285  0.3206 -0.0494 -0.5792
 1677TIP3    H1 4995   5.765   0.288   0.377  0.9187  0.4188 -0.6025
 1677TIP3    H2 4996   5.666   0.257   0.267  0.2676 -0.2477  0.1537
 1678TIP3   OH2 4997   2.482   5.921   0.729  0.0067  0.1632 -0.0938
 1678TIP3    H1 4998   2.572   5.890   0.741  0.1481 -0.0432 -1.4969
 1678TIP3    H2 4999   2.483   5.961   0.642 -1.3431 -0.0945 -0.2362
 1679TIP3   OH2 5000   5.914   1.677   2.886  0.1570  0.0871 -0.1609
 1679TIP3    H1 5001   5.886   1.682   2.978 -1.7815 -0.3727 -0.7012
 1679TIP3    H2 5002   5.897   1.587   2.860 -2.8822  1.0347 -1.9948
 1680TIP3   OH2 5003   1.105   0.822   2.052  0.5170  0.6034  0.1005
 1680TIP3    H1 5004   1.135   0.908   2.082  1.2061  0.4612 -0.1671
 1680TIP3    H2 5005   1.067   0.838   1.966 -0.6226  0.8587  0.6267
 1681TIP3   OH2 5006   3.626   0.190   4.418  0.1537 -0.4987  0.0496
 1681TIP3    H1 5007   3.678   0.194   4.338 -0.0479  0.1095 -0.0540
 1681TIP3    H2 5008   3.668   0.122   4.470  1.4929  0.4578  0.2697
 1682TIP3   OH2 5009   0.413   3.005   0.859  0.7811  0.2627  0.2897
 1682TIP3    H1 5010   0.483   3.054   0.902  2.2396  0.3386 -1.9871
 1682TIP3    H2 5011   0.387   3.060   0.785  0.0542 -0.8725 -0.3239
 1683TIP3   OH2 5012   6.405   3.504   3.291  0.1136  0.1796  0.3610
 1683TIP3    H1 5013   6.399   3.577   3.353 -0.9358 -0.2339  0.7742
 1683TIP3    H2 5014   6.343   3.439   3.325  0.5884 -0.6544 -0.3335
 1684TIP3   OH2 5015   3.855   0.542   3.335  0.0820  0.1037 -0.5248
 1684TIP3    H1 5016   3.803   0.592   3.398 -0.4427  2.1501 -2.4595
 1684TIP3    H2 5017   3.943   0.580   3.340 -0.1173  0.7306 -1.4169
 1685TIP3   OH2 5018   4.049   3.874   0.555  0.2788 -0.3881  0.1223
 1685TIP3    H1 5019   4.117   3.910   0.612 -0.3870  0.6558  0.3018
 1685TIP3    H2 5020   4.051   3.931   0.478  0.5191 -1.1959 -0.4750
 1686TIP3   OH2 5021   2.471   1.007   5.757 -0.3439 -0.9497 -0.1815
 1686TIP3    H1 5022   2.412   0.982   5.686  0.6577 -0.3617 -1.2691
 1686TIP3    H2 5023   2.505   1.093   5.731 -0.9168 -0.1279  1.6570
 1687TIP3   OH2 5024   4.108   0.838   3.956  0.4710  0.7016  0.1178
 1687TIP3    H1 5025   4.028   0.828   3.905  1.4714 -0.5479 -1.3097
 1687TIP3    H2 5026   4.085   0.899   4.027 -1.5844  0.7101 -0.5076
 1688TIP3   OH2 5027   2.675   4.739   2.865  0.3895 -0.1714 -0.2909
 1688TIP3    H1 5028   2.619   4.800   2.817 -0.5419 -0.0044  0.9591
 1688TIP3    H2 5029   2.683   4.663   2.807 -0.7204  0.0062 -0.7023
 1689TIP3   OH2 5030   6.119   5.493   4.270  0.1045  0.1092  0.0761
 1689TIP3    H1 5031   6.150   5.406   4.294  0.5664  0.1847 -0.2491
 1689TIP3    H2 5032   6.183   5.553   4.308 -0.6592  0.3614  1.0370
 1690TIP3   OH2 5033   4.428   4.559   5.904 -0.1386 -0.0780 -0.1825
 1690TIP3    H1 5034   4.398   4.567   5.813  0.4935  2.3005 -0.2680
 1690TIP3    H2 5035   4.488   4.485   5.903  1.0437  0.8097 -2.1013
 1691TIP3   OH2 5036   4.722   0.601   2.528  0.2778 -0.0483  0.3308
 1691TIP3    H1 5037   4.742   0.695   2.519  1.3105 -0.4058 -1.8359
 1691TIP3    H2 5038   4.723   0.585   2.622 -0.2965  2.1838  0.7803
 1692TIP3   OH2 5039   5.448   0.362   0.462 -0.9024 -0.3329  0.1305
 1692TIP3    H1 5040   5.359   0.347   0.495 -1.5689 -0.1368 -1.4590
 1692TIP3    H2 5041   5.439   0.435   0.401 -0.2562 -2.0631 -2.2193
 1693TIP3   OH2 5042   5.546   2.468   0.452 -0.3010  0.2650 -0.4825
 1693TIP3    H1 5043   5.578   2.388   0.409 -1.9133 -0.6970 -0.0101
 1693TIP3    H2 5044   5.591   2.469   0.537  0.0484  0.0929 -0.6633
 1694TIP3   OH2 5045   5.094   1.644   0.673  0.4807  0.3144 -0.4167
 1694TIP3    H1 5046   5.132   1.669   0.757 -0.9192 -0.8012  0.6113
 1694TIP3    H2 5047   5.085   1.549   0.679  2.1236 -0.0797 -2.6385
 1695TIP3   OH2 5048   1.291   2.900   3.989  0.6557 -0.5805  0.0092
 1695TIP3    H1 5049   1.361   2.838   4.011 -0.0168 -2.2315 -2.0813
 1695TIP3    H2 5050   1.236   2.852   3.926 -1.8669  0.9603  0.8974
 1696TIP3   OH2 5051   0.222   6.315   2.517 -0.3968 -0.1056  0.4518
 1696TIP3    H1 5052   0.221   6.251   2.587  0.2786  0.0777  0.6338
 1696TIP3    H2 5053   0.220   6.263   2.437 -2.2243 -0.2961  0.5824
 1697TIP3   OH2 5054   5.386   2.756   1.619  0.0904 -0.3297  0.1726
 1697TIP3    H1 5055   5.427   2.674   1.647 -0.5701 -0.8438 -0.3435
 1697TIP3    H2 5056   5.326   2.730   1.549  0.9719  0.8029 -1.0391
 1698TIP3   OH2 5057   6.150   3.883   3.601  0.0469  0.1507  0.0527
 1698TIP3    H1 5058   6.088   3.859   3.671 -0.9557 -0.4006 -0.9820
 1698TIP3    H2 5059   6.129   3.974   3.581  1.1523  0.7025  1.2576
 1699TIP3   OH2 5060   6.649   5.395   2.616  0.0976 -0.3728  0.1939
 1699TIP3    H1 5061   6.561   5.373   2.587 -0.2872 -0.0410  1.1057
 1699TIP3    H2 5062   6.690   5.310   2.634  0.4147 -0.6054 -1.4676
 1700TIP3   OH2 5063   1.171   3.747   0.114  0.1780 -0.1855 -0.1590
 1700TIP3    H1 5064   1.205   3.735   0.026  1.1823 -1.9386  0.4208
 1700TIP3    H2 5065   1.249   3.747   0.170 -0.5954 -2.6953  1.0497
 1701TIP3   OH2 5066   3.618   0.157   1.800  0.6787 -0.6923 -0.6760
 1701TIP3    H1 5067   3.620   0.182   1.893 -0.1819  0.1611 -0.8733
 1701TIP3    H2 5068   3.707   0.129   1.781  0.8964 -0.7621  0.3803
 1702TIP3   OH2 5069   5.953   6.248   1.660  0.4902 -0.0258 -0.2484
 1702TIP3    H1 5070   5.975   6.175   1.602  0.5073 -0.9777  0.9052
 1702TIP3    H2 5071   5.941   6.323   1.602  0.9222 -0.8455 -1.4254
 1703TIP3   OH2 5072   0.327   0.170   0.050 -0.3677  0.1824  0.5162
 1703TIP3    H1 5073   0.399   0.125   0.094 -0.7036  0.7293  1.6500
 1703TIP3    H2 5074   0.341   0.262   0.069  0.4266  0.6502 -1.9680
 1704TIP3   OH2 5075   6.879   4.228   3.067  0.4172 -0.0502 -0.6735
 1704TIP3    H1 5076   6.952   4.290   3.074  0.8970 -0.8082  3.0610
 1704TIP3    H2 5077   6.912   4.158   3.012  1.3542  1.0737 -1.5876
 1705TIP3   OH2 5078   6.127   1.906   3.979 -0.2736 -0.2723  0.3339
 1705TIP3    H1 5079   6.061   1.888   4.046  0.4194 -1.5357  0.7058
 1705TIP3    H2 5080   6.176   1.824   3.971  2.7793  1.2268  1.7706
 1706TIP3   OH2 5081   4.591   3.491   0.675 -0.4018  0.6757  0.4734
 1706TIP3    H1 5082   4.521   3.508   0.738  0.4936  0.5528  1.5296
 1706TIP3    H2 5083   4.661   3.551   0.701 -0.1010  0.7850 -0.5564
 1707TIP3   OH2 5084   1.574   3.057   5.371 -0.4115  0.3266 -0.4576
 1707TIP3    H1 5085   1.588   3.077   5.464 -2.2223  1.2201 -0.3349
 1707TIP3    H2 5086   1.619   2.973   5.358  0.9979  0.8193  0.8848
 1708TIP3   OH2 5087   4.421   4.451   3.991  0.3706 -0.2198  0.1416
 1708TIP3    H1 5088   4.361   4.505   4.043  1.3914  1.9834 -0.8382
 1708TIP3    H2 5089   4.409   4.363   4.026 -2.6488  0.2733  0.6715
 1709TIP3   OH2 5090   1.524   4.485   3.560  0.2854  0.6009 -0.0408
 1709TIP3    H1 5091   1.494   4.526   3.480  1.0369 -0.9692 -1.1884
 1709TIP3    H2 5092   1.617   4.507   3.565  0.8947 -1.4677 -1.0910
 1710TIP3   OH2 5093   7.110   2.729   3.863  0.4053  0.0752 -0.0710
 1710TIP3    H1 5094   7.164   2.694   3.933  0.2480  1.4884  0.7887
 1710TIP3    H2 5095   7.164   2.796   3.821  0.3652 -0.5053 -1.0925
 1711TIP3   OH2 5096   3.625   2.974   0.494  0.0242  0.5630 -0.3857
 1711TIP3    H1 5097   3.576   2.893   0.509 -1.3757  1.5481  0.8111
 1711TIP3    H2 5098   3.682   2.955   0.420 -1.3852 -1.0308 -1.1445
 1712TIP3   OH2 5099   3.939   2.461   0.541 -0.8561  0.5206  0.4428
 1712TIP3    H1 5100   3.895   2.437   0.622 -1.5024 -0.8923 -0.2833
 1712TIP3    H2 5101   3.909   2.396   0.477 -1.3009  2.2820 -1.2432
 1713TIP3   OH2 5102   1.802   3.948   2.579 -0.0774  0.6189  0.4900
 1713TIP3    H1 5103   1.738   4.001   2.626 -1.7911 -0.6291 -0.3318
 1713TIP3    H2 5104   1.798   3.980   2.489 -2.4301 -1.8890 -0.4330
 1714TIP3   OH2 5105   5.262   2.022   1.959 -0.1417 -0.2012  0.2529
 1714TIP3    H1 5106   5.198   2.070   1.906  0.6943  0.4924 -0.1461
 1714TIP3    H2 5107   5.314   2.090   2.001  1.4661 -0.7452 -0.7909
 1715TIP3   OH2 5108   5.806   1.435   4.840 -0.2210 -0.4567 -0.3234
 1715TIP3    H1 5109   5.746   1.501   4.875 -0.0280  0.3747 -1.5077
 1715TIP3    H2 5110   5.764   1.403   4.761  0.1451 -1.0514 -0.2828
 1716TIP3   OH2 5111   6.716   0.763   1.118  0.2956 -0.6144 -0.4172
 1716TIP3    H1 5112   6.720   0.814   1.199 -0.0610 -0.4588 -0.4972
 1716TIP3    H2 5113   6.790   0.702   1.125 -0.6828 -1.7341  0.7926
 1717TIP3   OH2 5114   2.418   0.684   4.126  0.3559  0.3704 -0.1763
 1717TIP3    H1 5115   2.493   0.729   4.087  1.5512 -0.8259  0.6066
 1717TIP3    H2 5116   2.410   0.722   4.213 -0.3141  0.8843 -0.4597
 1718TIP3   OH2 5117   6.664   0.229   3.675 -0.1595 -0.2716  0.0196
 1718TIP3    H1 5118   6.734   0.277   3.719 -0.6427  0.5915 -0.1361
 1718TIP3    H2 5119   6.583   0.269   3.707 -0.5913 -1.2777  0.2193
 1719TIP3   OH2 5120   0.616   6.568   2.278 -0.0024  0.2287 -0.2931
 1719TIP3    H1 5121   0.537   6.580   2.331 -1.6990  0.2085 -2.6581
 1719TIP3    H2 5122   0.648   6.481   2.301 -0.2217  0.5380  1.2451
 1720TIP3   OH2 5123   6.736   5.482   1.624 -0.2207  0.0295  0.4478
 1720TIP3    H1 5124   6.820   5.447   1.652  0.2170  0.0396 -0.7888
 1720TIP3    H2 5125   6.755   5.529   1.543 -1.5257 -0.5617 -0.2417
 1721TIP3   OH2 5126   2.611   5.441   0.058 -0.0066  0.1905 -0.0391
 1721TIP3    H1 5127   2.600   5.346   0.050  0.3122  0.2419 -1.3273
 1721TIP3    H2 5128   2.604   5.458   0.152 -0.9454 -0.9978  0.1387
 1722TIP3   OH2 5129   6.240   6.194   2.209 -0.4890 -0.9888 -0.4458
 1722TIP3    H1 5130   6.328   6.196   2.172 -0.3314  0.9687 -0.0583
 1722TIP3    H2 5131   6.207   6.106   2.187  0.9708 -1.2186 -1.9277
 1723TIP3   OH2 5132   1.890   4.890   3.647  0.1490  0.1057 -0.0272
 1723TIP3    H1 5133   1.825   4.869   3.715 -0.3085  1.9663  0.1485
 1723TIP3    H2 5134   1.885   4.985   3.636  2.0926  0.1794 -0.7912
 1724TIP3   OH2 5135   6.320   5.884   0.926 -0.2762  0.4507 -0.2522
 1724TIP3    H1 5136   6.225   5.895   0.937 -0.5345 -2.1905  0.9188
 1724TIP3    H2 5137   6.340   5.801   0.969  2.1777 -0.3741 -2.6768
 1725TIP3   OH2 5138   3.118   0.919   5.526 -0.3238 -0.2285  0.0375
 1725TIP3    H1 5139   3.076   0.894   5.444  2.7821 -0.7354 -1.5466
 1725TIP3    H2 5140   3.116   1.015   5.524  1.4439 -0.1503 -1.7362
 1726TIP3   OH2 5141   3.613   2.373   5.312  0.0114 -0.0963 -0.3317
 1726TIP3    H1 5142   3.587   2.429   5.385  1.0108  1.9750 -1.4534
 1726TIP3    H2 5143   3.532   2.332   5.283 -1.2055  2.3532 -0.6839
 1727TIP3   OH2 5144   5.734   6.066   3.540  0.2291  0.0961  0.0563
 1727TIP3    H1 5145   5.681   5.986   3.535 -1.5195  1.0968  1.3214
 1727TIP3    H2 5146   5.699   6.113   3.615  2.4258  1.2426  0.4547
 1728TIP3   OH2 5147   6.245   0.865   3.078 -0.0722 -0.6310  0.0085
 1728TIP3    H1 5148   6.220   0.949   3.117  0.7403 -0.7795  0.8854
 1728TIP3    H2 5149   6.175   0.846   3.015 -0.8953  0.1102  0.6675
 1729TIP3   OH2 5150   5.845   2.041   0.173  0.5601 -0.0551  0.6934
 1729TIP3    H1 5151   5.754   2.049   0.143  0.0872 -1.0014  1.7710
 1729TIP3    H2 5152   5.896   2.092   0.110 -0.6745  0.2041 -0.1375
 1730TIP3   OH2 5153   0.904   4.415   0.509 -0.0356 -0.3899  0.0850
 1730TIP3    H1 5154   0.926   4.415   0.416  1.4792 -0.1457  0.4117
 1730TIP3    H2 5155   0.856   4.334   0.523  1.6428 -1.5165 -0.4991
 1731TIP3   OH2 5156   3.243   0.041   0.978 -0.5218  0.1326  0.2564
 1731TIP3    H1 5157   3.312   0.108   0.980 -0.9753  0.6093  0.0144
 1731TIP3    H2 5158   3.261  -0.014   1.055  0.6588 -0.2875 -0.2959
 1732TIP3   OH2 5159   2.931   0.067   4.440 -0.1386  0.4959 -0.0025
 1732TIP3    H1 5160   2.996   0.119   4.488 -0.4997 -0.2478  1.3646
 1732TIP3    H2 5161   2.933  -0.018   4.483  0.2118 -0.5501 -1.9917
 1733TIP3   OH2 5162   6.763   3.196   5.529 -0.0930 -0.0791  0.6506
 1733TIP3    H1 5163   6.670   3.210   5.512  0.0109  0.3343  0.4164
 1733TIP3    H2 5164   6.765   3.122   5.590 -0.5349 -0.8202 -0.1944
 1734TIP3   OH2 5165   2.208   3.335   0.308 -0.2422  0.0541 -0.5459
 1734TIP3    H1 5166   2.262   3.257   0.321 -0.6626 -0.1679 -0.0837
 1734TIP3    H2 5167   2.210   3.380   0.393 -0.0106  0.5431 -0.8048
 1735TIP3   OH2 5168   4.088   3.967   1.136  0.2803  0.3668 -0.6765
 1735TIP3    H1 5169   4.131   3.884   1.115  0.1731  0.7184 -2.3632
 1735TIP3    H2 5170   4.098   3.975   1.231  1.0711 -1.1366 -0.6033
 1736TIP3   OH2 5171   7.031   4.265   5.362 -0.1548  0.7316 -0.1097
 1736TIP3    H1 5172   7.110   4.241   5.312 -0.3552  1.6404 -0.8973
 1736TIP3    H2 5173   7.031   4.361   5.361 -1.0021  0.7411  0.3288
 1737TIP3   OH2 5174   1.245   3.715   3.541 -0.4091 -0.4372 -0.2474
 1737TIP3    H1 5175   1.225   3.703   3.448 -2.5884 -0.8780  0.2464
 1737TIP3    H2 5176   1.247   3.627   3.577 -4.5862 -0.1870  1.0348
 1738TIP3   OH2 5177   5.339   4.735   4.922  0.4291 -0.4170  0.0683
 1738TIP3    H1 5178   5.384   4.776   4.847  1.0335 -1.9802 -0.4591
 1738TIP3    H2 5179   5.294   4.660   4.884 -0.6993 -0.2434  1.0107
 1739TIP3   OH2 5180   1.005   2.627   0.606  0.7138  0.2071  0.7637
 1739TIP3    H1 5181   0.924   2.624   0.555  1.8625 -0.8323 -1.0839
 1739TIP3    H2 5182   1.004   2.546   0.657  1.4654 -0.8212 -0.7642
 1740TIP3   OH2 5183   7.137   0.136   1.405  0.2596  0.0254  0.0200
 1740TIP3    H1 5184   7.226   0.119   1.374  1.3326  2.2937  1.6680
 1740TIP3    H2 5185   7.107   0.209   1.350 -0.1801 -0.0180  0.2044
 1741TIP3   OH2 5186   2.422   3.072   1.254 -0.5876 -0.0827 -0.0997
 1741TIP3    H1 5187   2.368   3.120   1.192  0.6445  3.6745  1.4272
 1741TIP3    H2 5188   2.395   3.106   1.340  0.7270 -1.8742  1.0907
 1742TIP3   OH2 5189   0.356   5.729   2.028  0.6367  0.1800 -0.3594
 1742TIP3    H1 5190   0.450   5.743   2.037  0.4935  2.1878 -1.3934
 1742TIP3    H2 5191   0.327   5.702   2.115  2.4777 -2.9179 -0.5590
 1743TIP3   OH2 5192   1.765   1.406   4.425  0.1179  0.0822  0.2878
 1743TIP3    H1 5193   1.748   1.494   4.459 -0.9253 -0.3606  0.9640
 1743TIP3    H2 5194   1.767   1.350   4.503  2.9476 -0.2382  0.1194
 1744TIP3   OH2 5195   4.617   5.684   5.637 -0.2708 -0.4810 -0.1289
 1744TIP3    H1 5196   4.543   5.623   5.641 -2.2164  1.5185 -2.3342
 1744TIP3    H2 5197   4.659   5.666   5.553  1.1447 -0.8857  0.6388
 1745TIP3   OH2 5198   0.600   5.916   0.801 -0.9687 -0.2781  0.3355
 1745TIP3    H1 5199   0.638   6.002   0.819 -0.3340 -0.3848 -0.4303
 1745TIP3    H2 5200   0.537   5.931   0.730 -0.3049 -0.5561 -0.3275
 1746TIP3   OH2 5201   4.577   6.392   4.943  0.4472  0.1341  0.2946
 1746TIP3    H1 5202   4.623   6.316   4.908 -1.1174 -1.7803  2.1798
 1746TIP3    H2 5203   4.519   6.420   4.871  1.0372 -0.4404 -0.4175
 1747TIP3   OH2 5204   6.477   3.542   2.632  0.2608  0.5503 -0.3407
 1747TIP3    H1 5205   6.430   3.596   2.697 -0.0187  0.2729 -0.3130
 1747TIP3    H2 5206   6.557   3.592   2.614 -0.5050  1.5344 -1.1424
 1748TIP3   OH2 5207   5.171   4.497   1.668 -0.4227  0.4228 -0.8986
 1748TIP3    H1 5208   5.118   4.437   1.721  0.4144 -1.9168 -2.5062
 1748TIP3    H2 5209   5.259   4.487   1.703 -0.5760  2.3796  0.1474
 1749TIP3   OH2 5210   2.179   2.923   0.465 -0.0554 -0.0711  0.2532
 1749TIP3    H1 5211   2.182   2.827   0.463  0.0805 -0.1031  1.4383
 1749TIP3    H2 5212   2.252   2.947   0.522  0.8643  0.8185 -1.2200
 1750TIP3   OH2 5213   3.745   2.446   2.140  0.0352 -0.8564  0.1705
 1750TIP3    H1 5214   3.732   2.540   2.142  0.6746 -0.7780  1.3096
 1750TIP3    H2 5215   3.727   2.421   2.049  0.4403  0.4447 -0.2868
 1751TIP3   OH2 5216   6.394   3.978   1.813  0.4951 -0.0702  0.4698
 1751TIP3    H1 5217   6.449   3.900   1.824  0.0105 -0.6964 -1.2642
 1751TIP3    H2 5218   6.317   3.947   1.765 -0.2794  1.2505  0.8159
 1752TIP3   OH2 5219   1.004   5.495   4.270 -0.4467  0.5844  0.2349
 1752TIP3    H1 5220   0.971   5.478   4.358 -0.7188  1.4480  0.3124
 1752TIP3    H2 5221   1.088   5.538   4.284 -0.0927 -0.0446  0.0587
 1753TIP3   OH2 5222   5.500   0.169   0.166 -0.1008  0.0329 -0.5343
 1753TIP3    H1 5223   5.457   0.088   0.193 -2.5238  1.1870 -0.6297
 1753TIP3    H2 5224   5.542   0.148   0.083 -0.7142 -1.1316 -0.5637
 1754TIP3   OH2 5225   6.552   3.935   3.906  0.7380  0.6028 -0.3674
 1754TIP3    H1 5226   6.551   3.840   3.914 -0.0194  0.2005 -3.8088
 1754TIP3    H2 5227   6.472   3.964   3.951  1.1243 -0.3104  0.9552
 1755TIP3   OH2 5228   2.436   0.047   4.390  0.8596 -0.0883 -0.0028
 1755TIP3    H1 5229   2.421  -0.044   4.417 -0.7433  0.2985  0.5656
 1755TIP3    H2 5230   2.528   0.063   4.410  0.5260 -0.7703  2.5296
 1756TIP3   OH2 5231   2.689   1.497   1.962  0.0669 -0.8129 -0.0807
 1756TIP3    H1 5232   2.729   1.537   2.039 -0.3780 -0.9192  0.2099
 1756TIP3    H2 5233   2.763   1.472   1.907  0.3595  1.0752 -0.6236
 1757TIP3   OH2 5234   5.297   4.338   5.002  0.0585  0.2670 -0.2281
 1757TIP3    H1 5235   5.273   4.394   4.929 -0.1912  0.2854 -0.1304
 1757TIP3    H2 5236   5.228   4.350   5.066 -1.9589 -2.8007 -1.5871
 1758TIP3   OH2 5237   1.162   4.638   2.016 -0.3960  0.2616  0.2822
 1758TIP3    H1 5238   1.084   4.682   1.983 -0.6451 -1.3661 -1.4991
 1758TIP3    H2 5239   1.130   4.556   2.052  0.4284 -0.1722  0.0471
 1759TIP3   OH2 5240   3.470   2.970   5.545 -0.0553  0.1857 -0.0573
 1759TIP3    H1 5241   3.524   2.896   5.516  0.4164 -0.2519  1.8071
 1759TIP3    H2 5242   3.396   2.970   5.485 -0.1180 -1.8782 -0.0669
 1760TIP3   OH2 5243   0.226   3.938   0.047 -0.1792  0.0769 -0.1534
 1760TIP3    H1 5244   0.306   3.987   0.069  0.6734 -1.6560  0.8861
 1760TIP3    H2 5245   0.248   3.893  -0.035  1.6296 -3.5657  2.0128
 1761TIP3   OH2 5246   4.367   4.485   5.619  0.1335  0.1644 -0.3057
 1761TIP3    H1 5247   4.294   4.492   5.559  1.1102 -0.9519 -1.6806
 1761TIP3    H2 5248   4.444   4.475   5.563  1.0980 -0.7235  1.1029
 1762TIP3   OH2 5249   5.550   1.003   1.316  0.4855  0.3812  0.0654
 1762TIP3    H1 5250   5.492   0.928   1.301 -0.4795  1.4748 -1.9525
 1762TIP3    H2 5251   5.494   1.080   1.309  1.8025  1.3914  0.1805
 1763TIP3   OH2 5252   2.586   3.553   4.260 -0.1639  0.2175  0.3592
 1763TIP3    H1 5253   2.503   3.593   4.233 -0.0833  1.9961  2.5022
 1763TIP3    H2 5254   2.569   3.518   4.347  1.4663  1.1667  1.1018
 1764TIP3   OH2 5255   4.475   6.645   4.821  0.5417  0.2531 -0.0231
 1764TIP3    H1 5256   4.395   6.686   4.853  0.0248  0.3794 -1.4210
 1764TIP3    H2 5257   4.539   6.716   4.816 -0.1199  0.7817 -1.6693
 1765TIP3   OH2 5258   1.206   1.504   0.660 -0.2930 -0.2743  0.3427
 1765TIP3    H1 5259   1.219   1.515   0.566 -1.0654 -1.5224  0.0638
 1765TIP3    H2 5260   1.169   1.588   0.689 -1.7093 -0.4541 -0.8050
 1766TIP3   OH2 5261   5.811   5.115   1.808 -0.2227 -0.1693  0.2007
 1766TIP3    H1 5262   5.842   5.191   1.857  1.6963  0.9981 -2.5882
 1766TIP3    H2 5263   5.890   5.066   1.787 -0.8139 -0.2438 -2.1671
 1767TIP3   OH2 5264   4.037   1.808   5.280  0.2871 -0.3441  0.5870
 1767TIP3    H1 5265   4.034   1.775   5.370  0.5906  1.0987  1.1432
 1767TIP3    H2 5266   4.129   1.796   5.254  0.2676 -0.4711  0.5735
 1768TIP3   OH2 5267   0.775   3.983   1.550  0.4378 -0.3340  0.3074
 1768TIP3    H1 5268   0.810   4.014   1.466  1.0801 -1.4246  0.1534
 1768TIP3    H2 5269   0.851   3.978   1.607  0.7591 -3.4354 -0.2428
 1769TIP3   OH2 5270   5.671   2.857   1.538  0.1469 -0.0499 -0.3275
 1769TIP3    H1 5271   5.590   2.880   1.582 -1.5272 -0.1226 -3.1272
 1769TIP3    H2 5272   5.683   2.764   1.555 -0.6085 -0.1311 -0.2349
 1770TIP3   OH2 5273   1.583   6.153   0.536 -0.1178  0.2499 -0.0340
 1770TIP3    H1 5274   1.670   6.192   0.527  0.6354 -0.7985  2.0353
 1770TIP3    H2 5275   1.540   6.205   0.604 -0.5715 -0.1054 -0.0405
 1771TIP3   OH2 5276   3.946   2.762   4.172  0.4833  0.2391 -0.6754
 1771TIP3    H1 5277   3.891   2.826   4.217  0.9837 -0.6595  1.3172
 1771TIP3    H2 5278   3.991   2.813   4.105 -1.8150  1.2292 -1.5830
 1772TIP3   OH2 5279   5.492   2.076   2.257 -0.6412  0.0105 -0.3747
 1772TIP3    H1 5280   5.460   2.117   2.177 -1.4141  1.0099  0.4324
 1772TIP3    H2 5281   5.461   2.132   2.327  1.0941 -0.1519  0.5784
 1773TIP3   OH2 5282   1.630   3.157   1.977  0.2297  0.0059  0.2819
 1773TIP3    H1 5283   1.664   3.192   2.059 -0.3190  0.7896  0.1902
 1773TIP3    H2 5284   1.655   3.221   1.911  0.7898 -0.6910 -0.1958
 1774TIP3   OH2 5285   6.876   2.152   3.190 -0.0098 -0.2902 -0.0701
 1774TIP3    H1 5286   6.852   2.106   3.109  0.1422  0.9603 -0.8496
 1774TIP3    H2 5287   6.795   2.195   3.217  0.1449 -0.0416 -0.0070
 1775TIP3   OH2 5288   4.645   4.730   0.669  0.1032  0.3973  0.0610
 1775TIP3    H1 5289   4.711   4.662   0.684 -0.3575  0.3373  2.1574
 1775TIP3    H2 5290   4.562   4.686   0.687 -0.5381  0.5333 -2.3294
 1776TIP3   OH2 5291   1.770   3.306   0.691 -0.3135  0.2514  0.0526
 1776TIP3    H1 5292   1.777   3.291   0.597 -1.1062  3.2937 -0.6203
 1776TIP3    H2 5293   1.860   3.312   0.722 -0.0224  1.0833 -0.9115
 1777TIP3   OH2 5294   3.405   1.383   1.884 -0.3751  0.3531  0.4085
 1777TIP3    H1 5295   3.425   1.304   1.833  0.3261  0.6995  0.1361
 1777TIP3    H2 5296   3.315   1.370   1.913 -0.5351 -0.1853 -0.2963
 1778TIP3   OH2 5297   0.152   4.975   4.233  0.2341  0.0212 -0.6723
 1778TIP3    H1 5298   0.121   4.968   4.323  0.0296 -1.2693 -0.8366
 1778TIP3    H2 5299   0.132   5.065   4.208  0.2290  0.3764  0.5391
 1779TIP3   OH2 5300   6.268   1.327   5.031 -0.0086 -0.0769  0.0880
 1779TIP3    H1 5301   6.186   1.320   4.984  0.9274 -1.6440 -1.4172
 1779TIP3    H2 5302   6.292   1.237   5.053  1.0121  0.3889  1.0096
 1780TIP3   OH2 5303   0.750   3.991   5.300 -0.4781 -0.1200  0.0272
 1780TIP3    H1 5304   0.670   3.981   5.249 -0.0619 -0.0075 -0.6611
 1780TIP3    H2 5305   0.820   3.959   5.242  0.0924  0.6958  0.2342
 1781TIP3   OH2 5306   4.683   5.190   0.446 -0.3798  0.2038 -0.5301
 1781TIP3    H1 5307   4.601   5.143   0.464  0.2838 -0.8558 -0.1617
 1781TIP3    H2 5308   4.740   5.124   0.407  0.2127  1.0035 -1.0471
 1782TIP3   OH2 5309   3.324   6.254   1.918 -0.7665  0.3733 -0.2962
 1782TIP3    H1 5310   3.239   6.246   1.960 -0.9098 -0.9418 -0.7713
 1782TIP3    H2 5311   3.359   6.165   1.917  0.3496  0.7884 -0.6589
 1783TIP3   OH2 5312   2.742   0.156   2.746 -0.1433  0.1262  0.0020
 1783TIP3    H1 5313   2.772   0.167   2.656  0.4424  0.0260  0.1794
 1783TIP3    H2 5314   2.654   0.120   2.738 -0.0525  0.0117 -0.5297
 1784TIP3   OH2 5315   5.781   6.306   0.231  0.4728  0.1053  0.1056
 1784TIP3    H1 5316   5.836   6.255   0.290 -1.6022  0.3628  2.4217
 1784TIP3    H2 5317   5.760   6.245   0.160  0.8979 -1.1078  0.9791
 1785TIP3   OH2 5318   0.205   5.646   2.254  0.8418  0.0514  0.4451
 1785TIP3    H1 5319   0.123   5.650   2.204  1.9851  1.4672 -1.4338
 1785TIP3    H2 5320   0.184   5.590   2.329 -1.7851  0.2225 -0.0581
 1786TIP3   OH2 5321   2.766   0.040   0.477  0.7286  0.2594 -0.0914
 1786TIP3    H1 5322   2.740   0.122   0.435 -0.7442  0.0036  0.2799
 1786TIP3    H2 5323   2.699  -0.023   0.451  2.4898 -1.2055 -1.4067
 1787TIP3   OH2 5324   3.160   2.811   5.235 -0.1935  0.2503  0.1276
 1787TIP3    H1 5325   3.102   2.859   5.176 -1.3443 -0.7977  0.3670
 1787TIP3    H2 5326   3.135   2.720   5.225  1.1532 -0.1916  0.5542
 1788TIP3   OH2 5327   4.548   5.014   0.004  0.3035 -0.2804 -0.0050
 1788TIP3    H1 5328   4.609   4.974  -0.058 -0.1048 -0.9190 -0.0068
 1788TIP3    H2 5329   4.574   4.977   0.089  0.8836  0.6142  0.2288
 1789TIP3   OH2 5330   0.857   0.673   1.744  0.1187  0.1024  0.4284
 1789TIP3    H1 5331   0.914   0.665   1.667  1.7498  0.4064  1.5522
 1789TIP3    H2 5332   0.880   0.758   1.782 -0.2642 -0.2792  1.5514
 1790TIP3   OH2 5333   4.427   3.289   2.887 -0.3145 -0.0893  0.0339
 1790TIP3    H1 5334   4.338   3.323   2.899 -0.6604 -0.7886 -0.4619
 1790TIP3    H2 5335   4.445   3.238   2.966 -0.2341  0.2974  0.2680
 1791TIP3   OH2 5336   5.727   0.992   2.209  0.3794 -0.2513 -0.1895
 1791TIP3    H1 5337   5.788   0.983   2.135 -0.0248  0.2871 -0.6031
 1791TIP3    H2 5338   5.673   1.068   2.185  0.6032  0.2692  0.9219
 1792TIP3   OH2 5339   1.714   6.760   3.929  0.3501 -0.1155  0.2204
 1792TIP3    H1 5340   1.739   6.842   3.971 -1.5893 -0.6365  2.6327
 1792TIP3    H2 5341   1.635   6.782   3.879  1.0903 -0.0948 -0.9876
 1793TIP3   OH2 5342   0.247   1.273   2.593 -0.3813 -0.4126 -0.6342
 1793TIP3    H1 5343   0.192   1.209   2.638 -1.1622 -1.3456 -2.7703
 1793TIP3    H2 5344   0.190   1.349   2.580 -0.2067 -0.2076 -0.2286
 1794TIP3   OH2 5345   6.014   2.081   3.491  0.7571  0.0278 -0.1066
 1794TIP3    H1 5346   5.945   2.099   3.555 -0.9262 -0.6755 -1.6423
 1794TIP3    H2 5347   6.050   1.997   3.518 -0.9864 -1.0232 -0.8568
 1795TIP3   OH2 5348   5.525   5.721   0.196  0.0679  0.1449 -0.2375
 1795TIP3    H1 5349   5.449   5.740   0.251 -0.8366 -0.7508 -1.1214
 1795TIP3    H2 5350   5.487   5.685   0.115  1.4902 -3.1909  0.4169
 1796TIP3   OH2 5351   5.698   0.337   0.552  0.2071 -0.0463  0.3174
 1796TIP3    H1 5352   5.717   0.430   0.539  0.5014 -0.3013 -1.3707
 1796TIP3    H2 5353   5.607   0.327   0.524 -0.1307 -0.1186  1.3990
 1797TIP3   OH2 5354   3.303   2.866   1.816  0.0185  0.6537  0.1487
 1797TIP3    H1 5355   3.396   2.864   1.838 -0.1120 -0.7190  0.6457
 1797TIP3    H2 5356   3.258   2.874   1.900 -0.3778 -1.3946  0.1733
 1798TIP3   OH2 5357   3.476   3.702   4.548 -0.0945 -0.2646 -0.4671
 1798TIP3    H1 5358   3.387   3.707   4.515 -1.1843  0.6791  2.2769
 1798TIP3    H2 5359   3.479   3.620   4.598 -1.0529  1.7277  3.2501
 1799TIP3   OH2 5360   5.992   3.938   2.858 -0.0027  0.1676 -0.3858
 1799TIP3    H1 5361   6.047   3.983   2.795  1.9582  1.3781  2.0288
 1799TIP3    H2 5362   6.053   3.898   2.919 -1.7914 -0.7491  0.8809
 1800TIP3   OH2 5363   4.768   4.184   4.353 -0.5406  0.0463 -0.2073
 1800TIP3    H1 5364   4.722   4.265   4.329 -0.3747  0.2103  0.0186
 1800TIP3    H2 5365   4.718   4.115   4.311 -1.4215  0.1597  0.6049
 1801TIP3   OH2 5366   0.187   3.071   1.560  0.1091  0.2623 -0.1199
 1801TIP3    H1 5367   0.102   3.111   1.541 -0.8736 -1.6429  0.0334
 1801TIP3    H2 5368   0.218   3.038   1.476 -1.3065 -2.6311  0.3391
 1802TIP3   OH2 5369   4.179   2.280   0.410 -0.4134 -0.1888 -0.0707
 1802TIP3    H1 5370   4.259   2.328   0.390  0.4033 -1.9504 -1.2940
 1802TIP3    H2 5371   4.117   2.308   0.343 -0.9255  1.3215  0.9918
 1803TIP3   OH2 5372   2.472   3.006   4.666  0.4962  0.4796  0.2670
 1803TIP3    H1 5373   2.466   2.992   4.761 -0.2743 -0.2203  0.1285
 1803TIP3    H2 5374   2.398   3.064   4.646  1.6252  2.0084  0.3162
 1804TIP3   OH2 5375   5.983   1.855   5.220  0.0049  0.2567 -0.3952
 1804TIP3    H1 5376   5.912   1.899   5.172  0.3710  2.2393  0.7474
 1804TIP3    H2 5377   5.966   1.878   5.312  2.0850  0.7614 -0.0920
 1805TIP3   OH2 5378   2.726   2.561   1.827  0.0170 -0.5789 -0.0441
 1805TIP3    H1 5379   2.794   2.526   1.885 -1.8536 -0.0392  2.6339
 1805TIP3    H2 5380   2.706   2.489   1.768  1.4141 -1.4446  0.4746
 1806TIP3   OH2 5381   0.490   4.900   1.909  0.0721  0.2094  0.5670
 1806TIP3    H1 5382   0.424   4.967   1.889  0.5129  0.6203  0.4810
 1806TIP3    H2 5383   0.445   4.817   1.893  0.3164  0.4790 -1.9239
 1807TIP3   OH2 5384   2.452   4.145   4.132 -0.5366  0.4258  0.4122
 1807TIP3    H1 5385   2.360   4.143   4.106 -0.2298 -0.7551 -0.6673
 1807TIP3    H2 5386   2.500   4.119   4.053  0.5386 -1.7189  1.6967
 1808TIP3   OH2 5387   5.010   6.554   2.926  0.0502  0.3029 -0.0727
 1808TIP3    H1 5388   4.937   6.511   2.883  0.7836 -0.3859 -0.6785
 1808TIP3    H2 5389   5.060   6.482   2.966 -0.0309  0.8340  1.0043
 1809TIP3   OH2 5390   7.061   3.196   4.191 -0.0364 -0.1290 -0.6180
 1809TIP3    H1 5391   7.062   3.133   4.263 -1.8600  0.9657  0.4451
 1809TIP3    H2 5392   7.083   3.144   4.114 -1.2969 -2.0754  0.2371
 1810TIP3   OH2 5393   6.148   3.372   0.267 -0.1133 -0.0635 -0.7013
 1810TIP3    H1 5394   6.133   3.368   0.362  0.8188  2.3841 -0.3538
 1810TIP3    H2 5395   6.151   3.281   0.239 -0.2140 -0.8716  1.6714
 1811TIP3   OH2 5396   2.525   2.854   4.008  0.3076  0.1594  0.4026
 1811TIP3    H1 5397   2.453   2.896   3.962 -0.1795 -0.9923  0.0691
 1811TIP3    H2 5398   2.544   2.912   4.082  0.6237  1.6839 -0.8089
 1812TIP3   OH2 5399   1.412   4.916   1.470 -0.5826 -0.0656  0.1892
 1812TIP3    H1 5400   1.437   4.990   1.526 -1.7129  0.2381  0.3173
 1812TIP3    H2 5401   1.445   4.939   1.383  1.1247 -0.5066  0.6888
 1813TIP3   OH2 5402   0.228   5.828   5.748  0.1033 -0.0271  0.4765
 1813TIP3    H1 5403   0.182   5.770   5.808  1.3140  0.0187  1.4832
 1813TIP3    H2 5404   0.255   5.903   5.801  0.2761  0.5208 -0.3569
 1814TIP3   OH2 5405   2.261   3.504   1.252  0.2625 -0.0339  0.2625
 1814TIP3    H1 5406   2.271   3.532   1.343  0.4579 -0.3445  0.3420
 1814TIP3    H2 5407   2.346   3.521   1.212 -0.2788  1.5335 -0.2810
 1815TIP3   OH2 5408   6.104   6.479   0.199 -0.3433  0.2660  0.2964
 1815TIP3    H1 5409   6.041   6.411   0.175  1.4328 -1.2462 -0.3346
 1815TIP3    H2 5410   6.141   6.508   0.115 -1.1280  2.1189  0.5508
 1816TIP3   OH2 5411   0.615   3.654   0.543  0.6600 -0.1052  0.0420
 1816TIP3    H1 5412   0.557   3.718   0.501 -0.7103 -0.1330  1.7705
 1816TIP3    H2 5413   0.606   3.575   0.489  0.7130  0.5176 -0.8970
 1817TIP3   OH2 5414   2.933   5.621   0.307 -0.0598 -0.0091 -0.0936
 1817TIP3    H1 5415   2.885   5.579   0.237  2.0556 -1.4881 -0.7418
 1817TIP3    H2 5416   3.025   5.603   0.288  0.9326  3.7262  0.3863
 1818TIP3   OH2 5417   4.250   5.087   1.884 -0.1967 -0.2347 -0.4176
 1818TIP3    H1 5418   4.228   5.178   1.865  0.9095  0.1648  0.1563
 1818TIP3    H2 5419   4.334   5.091   1.929  0.2062 -1.5959 -1.0032
 1819TIP3   OH2 5420   2.466   0.722   0.650 -0.2343  0.0592  0.0934
 1819TIP3    H1 5421   2.397   0.788   0.637 -0.9533 -0.5906  0.5034
 1819TIP3    H2 5422   2.485   0.725   0.743  0.5999  0.5187 -0.0846
 1820TIP3   OH2 5423   3.851   1.446   1.832 -0.1983  0.4451 -0.2035
 1820TIP3    H1 5424   3.899   1.363   1.828 -1.1779 -0.1540  0.1380
 1820TIP3    H2 5425   3.772   1.426   1.883 -0.7074  1.4605 -0.5659
 1821TIP3   OH2 5426   4.850   4.196   2.028 -0.4253  0.2044  0.3360
 1821TIP3    H1 5427   4.899   4.248   2.091 -0.4630 -0.4759  0.9430
 1821TIP3    H2 5428   4.906   4.193   1.950 -0.2955  0.8926  0.4036
 1822TIP3   OH2 5429   6.184   4.377   0.460  0.1731 -0.7826  0.3285
 1822TIP3    H1 5430   6.198   4.322   0.538  1.4555 -0.2551  0.4902
 1822TIP3    H2 5431   6.153   4.461   0.495 -1.8569 -1.3564  0.0762
 1823TIP3   OH2 5432   6.881   3.288   2.778  0.0344 -0.1205 -0.0699
 1823TIP3    H1 5433   6.826   3.212   2.796 -0.5486  0.8085  2.3850
 1823TIP3    H2 5434   6.822   3.352   2.738  0.1580 -0.3363 -0.6153
 1824TIP3   OH2 5435   4.564   0.961   3.726  0.4506  0.2047 -0.1176
 1824TIP3    H1 5436   4.604   0.880   3.758  1.6028  0.5312 -0.6766
 1824TIP3    H2 5437   4.485   0.932   3.681 -1.6553 -0.2232  3.5025
 1825TIP3   OH2 5438   4.023   6.419   0.683 -0.1076 -0.2738  0.1562
 1825TIP3    H1 5439   4.092   6.406   0.749 -0.3139 -1.6700  0.1091
 1825TIP3    H2 5440   4.068   6.462   0.610  0.2352  0.8213  0.9768
 1826TIP3   OH2 5441   6.680   3.077   2.817 -0.0244 -0.3908  0.1240
 1826TIP3    H1 5442   6.606   3.040   2.770  0.2701  0.3688 -0.9697
 1826TIP3    H2 5443   6.656   3.168   2.834 -0.4835 -0.8429  2.2406
 1827TIP3   OH2 5444   2.260   1.406   3.556  0.4916 -0.0575  0.1310
 1827TIP3    H1 5445   2.259   1.317   3.520  1.8550  0.0566 -0.2149
 1827TIP3    H2 5446   2.173   1.441   3.535  0.4209 -0.8340 -0.9285
 1828TIP3   OH2 5447   0.889   5.795   1.795 -0.3982  0.3693 -0.2662
 1828TIP3    H1 5448   0.966   5.795   1.737 -1.1202  0.8181 -1.2500
 1828TIP3    H2 5449   0.875   5.888   1.815 -0.0235  0.2025  0.8296
 1829TIP3   OH2 5450   4.794   0.880   4.297  0.0674  0.0269 -0.1773
 1829TIP3    H1 5451   4.739   0.917   4.366 -1.0679 -1.4898 -0.2254
 1829TIP3    H2 5452   4.883   0.902   4.323 -0.3440 -0.3779  1.7203
 1830TIP3   OH2 5453   1.652   3.064   2.707 -0.2200  0.4620  0.2235
 1830TIP3    H1 5454   1.734   3.025   2.737 -0.8702 -0.5052  0.7933
 1830TIP3    H2 5455   1.678   3.147   2.667  0.9684  0.4804  0.9804
 1831TIP3   OH2 5456   5.313   0.706   0.107  0.1091  0.8488 -0.0459
 1831TIP3    H1 5457   5.333   0.704   0.014 -3.9713 -0.6412 -1.1026
 1831TIP3    H2 5458   5.336   0.618   0.138  0.8728  1.1399  0.2337
 1832TIP3   OH2 5459   1.595   6.201   4.774 -0.4397 -0.4309 -0.1995
 1832TIP3    H1 5460   1.593   6.109   4.746 -0.7881  0.0191 -1.7317
 1832TIP3    H2 5461   1.632   6.198   4.862 -1.0123 -2.0991  0.0312
 1833TIP3   OH2 5462   4.923   1.949   0.669 -0.1676 -0.1147  0.2232
 1833TIP3    H1 5463   4.884   1.862   0.659  0.6080 -0.5762  1.0627
 1833TIP3    H2 5464   5.017   1.932   0.679  0.3148  0.9794 -1.9035
 1834TIP3   OH2 5465   3.403   5.152   2.625  0.0737  0.6811  0.6635
 1834TIP3    H1 5466   3.407   5.078   2.565  0.3820  2.8126 -2.1664
 1834TIP3    H2 5467   3.317   5.144   2.667 -0.8598 -0.1311 -1.2533
 1835TIP3   OH2 5468   2.891   0.005   5.718 -0.4898 -0.5802  0.3943
 1835TIP3    H1 5469   2.851   0.027   5.634  0.5289  1.3164  0.3536
 1835TIP3    H2 5470   2.817  -0.011   5.777 -1.2456  0.0873 -0.3630
 1836TIP3   OH2 5471   6.498   4.005   3.372  0.1572 -0.1594  0.2345
 1836TIP3    H1 5472   6.592   3.994   3.382  0.2686  0.8618  0.4841
 1836TIP3    H2 5473   6.466   4.019   3.462 -0.1597 -0.0134  0.1003
 1837TIP3   OH2 5474   0.694   1.798   5.122  0.9180  0.0645 -0.0265
 1837TIP3    H1 5475   0.682   1.726   5.184 -0.2756 -1.9884 -2.4607
 1837TIP3    H2 5476   0.666   1.876   5.171 -0.4617 -1.4965  1.8626
 1838TIP3   OH2 5477   1.043   2.125   1.152  0.2527 -0.3502  0.6587
 1838TIP3    H1 5478   1.001   2.087   1.074 -2.6992  2.2265  0.8003
 1838TIP3    H2 5479   0.971   2.166   1.200  2.2919 -0.1133  3.7691
 1839TIP3   OH2 5480   3.006   5.494   2.286  0.0560 -0.3842  0.1490
 1839TIP3    H1 5481   2.939   5.442   2.330  0.5068  1.1340  2.8954
 1839TIP3    H2 5482   2.962   5.575   2.262  0.3608 -0.3183 -0.1945
 1840TIP3   OH2 5483   5.709   5.003   3.737  0.4387  0.0777 -0.3058
 1840TIP3    H1 5484   5.751   4.964   3.814 -0.5283  0.4807  0.4414
 1840TIP3    H2 5485   5.629   4.952   3.726  0.4606  0.1767 -0.9119
 1841TIP3   OH2 5486   7.049   4.723   4.086  0.6300 -0.1647  0.3288
 1841TIP3    H1 5487   7.104   4.644   4.077 -0.2032 -0.7424  0.2094
 1841TIP3    H2 5488   6.986   4.716   4.014  0.1492  0.2943  0.7030
 1842TIP3   OH2 5489   2.396   2.688   2.928 -0.0934 -0.0583  0.2697
 1842TIP3    H1 5490   2.449   2.767   2.929  1.2484 -0.9200 -0.2266
 1842TIP3    H2 5491   2.373   2.675   2.836 -2.4958  1.1035  0.6087
 1843TIP3   OH2 5492   0.236   5.846   0.086  0.4988 -0.0125 -0.2425
 1843TIP3    H1 5493   0.233   5.803   0.001 -0.6400  2.1493 -1.3661
 1843TIP3    H2 5494   0.146   5.839   0.119  1.2090 -2.1022  1.5472
 1844TIP3   OH2 5495   6.874   3.969   4.402  0.5674 -0.2000  0.6191
 1844TIP3    H1 5496   6.788   3.974   4.444  0.4714 -1.1898  0.5847
 1844TIP3    H2 5497   6.920   3.900   4.452  1.3110  0.2681  0.5890
 1845TIP3   OH2 5498   5.594   1.505   1.995  0.0660  0.0510 -0.5136
 1845TIP3    H1 5499   5.589   1.549   2.081 -1.9567  1.3081 -1.2013
 1845TIP3    H2 5500   5.688   1.500   1.977  0.4958  0.9736  1.1717
 1846TIP3   OH2 5501   7.041   5.336   1.348 -0.0286  0.1224 -0.2812
 1846TIP3    H1 5502   7.083   5.250   1.345  0.3248  0.2107  1.1957
 1846TIP3    H2 5503   6.954   5.319   1.382 -0.4632  0.1987 -1.3220
 1847TIP3   OH2 5504   6.105   5.581   3.656 -0.1254  0.1838 -0.4435
 1847TIP3    H1 5505   6.136   5.542   3.737  0.2926  1.1924 -0.1048
 1847TIP3    H2 5506   6.160   5.543   3.588  1.9307  1.9227  0.1379
 1848TIP3   OH2 5507   6.682   5.940   2.801  0.0171  0.5525 -0.6566
 1848TIP3    H1 5508   6.768   5.907   2.775  0.5156  1.6137 -0.3893
 1848TIP3    H2 5509   6.657   5.999   2.730  0.6733  2.2281  0.4691
 1849TIP3   OH2 5510   6.461   5.271   2.442  0.6869  0.0481  0.1028
 1849TIP3    H1 5511   6.370   5.248   2.461 -0.1369  2.7108 -0.1721
 1849TIP3    H2 5512   6.496   5.195   2.396 -1.3193 -1.1430  0.4079
 1850TIP3   OH2 5513   5.647   4.660   5.534 -0.5687 -0.0841  0.4077
 1850TIP3    H1 5514   5.599   4.579   5.549 -1.4262  0.6876  2.0093
 1850TIP3    H2 5515   5.719   4.634   5.476 -2.0317 -1.5514 -0.8601
 1851TIP3   OH2 5516   0.132   2.965   1.853  0.1430 -0.2409  0.0851
 1851TIP3    H1 5517   0.047   3.006   1.871  0.3183  0.4518 -0.6202
 1851TIP3    H2 5518   0.154   2.919   1.934 -0.9904 -0.5774  0.2097
 1852TIP3   OH2 5519   5.795   4.078   2.996 -0.4226 -1.0202 -0.7558
 1852TIP3    H1 5520   5.778   4.164   2.956 -2.1698 -1.9245 -2.1044
 1852TIP3    H2 5521   5.874   4.046   2.953  1.2009  0.5062  0.8894
 1853TIP3   OH2 5522   4.831   0.054   1.558  0.1585 -0.2199  0.4623
 1853TIP3    H1 5523   4.851   0.147   1.569 -2.7831  0.6695 -0.7655
 1853TIP3    H2 5524   4.848   0.037   1.465 -0.2869 -0.6460  0.4587
 1854TIP3   OH2 5525   5.641   2.093   4.902  0.6422 -0.6174  0.0410
 1854TIP3    H1 5526   5.568   2.055   4.950 -0.8066  3.1230  1.1846
 1854TIP3    H2 5527   5.600   2.142   4.831  1.9283  1.6610  0.7679
 1855TIP3   OH2 5528   3.312   1.093   2.479 -0.5054 -0.8127  0.0876
 1855TIP3    H1 5529   3.337   1.176   2.519 -0.8635 -0.4885 -0.3453
 1855TIP3    H2 5530   3.395   1.049   2.460 -0.2587  0.0021 -0.8289
 1856TIP3   OH2 5531   3.624   3.285   4.343 -0.3414 -0.0331  0.2743
 1856TIP3    H1 5532   3.569   3.284   4.265 -0.3913  1.4540  0.2650
 1856TIP3    H2 5533   3.589   3.215   4.399 -2.3823  0.9860  0.3545
 1857TIP3   OH2 5534   2.652   2.789   2.696 -0.2033  0.2346 -0.0153
 1857TIP3    H1 5535   2.690   2.712   2.738 -0.6331 -0.6942 -1.2720
 1857TIP3    H2 5536   2.679   2.862   2.751  0.0033 -0.8353  1.3526
 1858TIP3   OH2 5537   2.080   0.177   2.061  0.4628  0.3484 -0.6577
 1858TIP3    H1 5538   2.005   0.227   2.028  0.6397  0.8631 -0.2904
 1858TIP3    H2 5539   2.084   0.198   2.154 -2.3050 -3.9086  0.7164
 1859TIP3   OH2 5540   6.162   1.131   0.807 -0.1787  0.0458  0.3564
 1859TIP3    H1 5541   6.115   1.144   0.890 -0.1295 -0.1976  0.4232
 1859TIP3    H2 5542   6.202   1.216   0.788 -0.5456  0.2205  0.3616
 1860TIP3   OH2 5543   3.504   1.867   3.024  0.0861 -0.2187  0.1888
 1860TIP3    H1 5544   3.544   1.954   3.014 -0.6103  0.1195  0.2570
 1860TIP3    H2 5545   3.417   1.877   2.987 -0.0685 -0.8418  0.3755
 1861TIP3   OH2 5546   5.506   4.834   1.170  0.7977  0.7024  0.3768
 1861TIP3    H1 5547   5.600   4.837   1.184  0.7935  0.9730  0.3535
 1861TIP3    H2 5548   5.481   4.925   1.151  0.7009  0.4676 -0.6881
 1862TIP3   OH2 5549   1.639   0.297   4.971 -0.7474 -0.6468 -0.0352
 1862TIP3    H1 5550   1.733   0.305   4.953 -0.8411  0.4533 -0.0885
 1862TIP3    H2 5551   1.622   0.362   5.039 -1.0567 -2.3664  1.6274
 1863TIP3   OH2 5552   1.603   1.210   3.979  0.0390 -0.9283 -0.4673
 1863TIP3    H1 5553   1.646   1.286   4.019 -1.0368 -0.1734 -0.7191
 1863TIP3    H2 5554   1.590   1.235   3.888 -0.4589 -1.3545 -0.5179
 1864TIP3   OH2 5555   2.555   0.576   4.447 -0.0372 -0.4070 -0.0266
 1864TIP3    H1 5556   2.566   0.499   4.391 -0.2527 -1.3056  1.1327
 1864TIP3    H2 5557   2.473   0.560   4.494  0.8331 -0.3846  1.5898
 1865TIP3   OH2 5558   1.046   1.388   4.383  0.2778 -0.0452  0.4496
 1865TIP3    H1 5559   0.981   1.424   4.322 -0.3765 -1.4649  0.2715
 1865TIP3    H2 5560   1.081   1.311   4.338  2.3993  0.8674  0.3787
 1866TIP3   OH2 5561   6.129   0.197   5.345  0.6406 -0.3816  0.0288
 1866TIP3    H1 5562   6.068   0.250   5.396  0.6267  0.2097 -0.5917
 1866TIP3    H2 5563   6.191   0.260   5.308  0.3903 -0.7338 -1.0460
 1867TIP3   OH2 5564   2.526   5.179   0.118  0.6269 -0.6801  0.4769
 1867TIP3    H1 5565   2.501   5.092   0.088  1.8163 -1.6284  2.0587
 1867TIP3    H2 5566   2.485   5.186   0.205 -0.4451  0.8497 -0.1156
 1868TIP3   OH2 5567   4.088   2.454   5.764 -0.2981 -0.2848  0.4873
 1868TIP3    H1 5568   4.129   2.370   5.784 -3.7177 -2.3872 -0.4057
 1868TIP3    H2 5569   4.020   2.464   5.831  0.3943  2.1332  0.9192
 1869TIP3   OH2 5570  -0.019   4.645   3.076 -0.2794  0.0890  0.2114
 1869TIP3    H1 5571   0.073   4.633   3.053  0.2068  2.3919  0.6424
 1869TIP3    H2 5572  -0.017   4.697   3.156 -1.9226  1.2636 -0.4343
 1870TIP3   OH2 5573   4.734   6.227   3.992  0.0124 -0.7800  1.1530
 1870TIP3    H1 5574   4.786   6.222   3.911 -0.6651 -0.1377  0.6675
 1870TIP3    H2 5575   4.797   6.208   4.062  1.4206  1.9765  0.7680
 1871TIP3   OH2 5576   0.107   2.748   5.418  0.2253  0.0542 -0.3295
 1871TIP3    H1 5577   0.086   2.841   5.417  0.0682  0.0786  1.4379
 1871TIP3    H2 5578   0.189   2.743   5.467  0.3540 -0.7255 -0.6076
 1872TIP3   OH2 5579   3.412   1.767   1.500 -0.3835 -0.4684  0.4522
 1872TIP3    H1 5580   3.413   1.704   1.573  0.3093 -1.6244 -0.5279
 1872TIP3    H2 5581   3.496   1.754   1.456 -0.2555  1.1158  0.1810
 1873TIP3   OH2 5582   0.505   6.457   4.285 -0.5748 -0.4199  0.2502
 1873TIP3    H1 5583   0.565   6.480   4.357  0.1232 -0.3853 -0.3315
 1873TIP3    H2 5584   0.496   6.362   4.290  0.9708 -0.6630 -0.7370
 1874TIP3   OH2 5585   5.959   5.554   5.596 -0.6064 -0.2519  0.2212
 1874TIP3    H1 5586   5.973   5.606   5.676 -1.4504  0.1733  0.1058
 1874TIP3    H2 5587   5.894   5.489   5.622 -0.0228 -0.8555  0.1895
 1875TIP3   OH2 5588   0.023   3.672   2.450 -0.6613  0.6588 -0.9761
 1875TIP3    H1 5589   0.104   3.643   2.493 -1.3445 -0.2398 -0.2582
 1875TIP3    H2 5590   0.050   3.748   2.397 -0.0519  2.8268  2.1768
 1876TIP3   OH2 5591   0.051   2.129   2.926 -0.2046  0.2008  0.3850
 1876TIP3    H1 5592  -0.007   2.055   2.942 -0.6852  0.2400 -0.9897
 1876TIP3    H2 5593   0.003   2.205   2.960 -1.2898  0.3175 -1.2711
 1877TIP3   OH2 5594   3.736   5.157   0.979  0.0160  1.0042 -0.6339
 1877TIP3    H1 5595   3.684   5.199   0.910 -0.1649 -0.0472 -1.1609
 1877TIP3    H2 5596   3.701   5.068   0.984  0.1665  1.0084  0.6894
 1878TIP3   OH2 5597   4.883   2.362   3.769 -0.0050  0.0376 -0.2260
 1878TIP3    H1 5598   4.952   2.386   3.831  2.2149 -1.0296 -2.1356
 1878TIP3    H2 5599   4.828   2.440   3.763  1.4482  1.1905  0.8345
 1879TIP3   OH2 5600   5.998   6.708   2.267 -0.8183 -0.1393  0.4529
 1879TIP3    H1 5601   5.906   6.729   2.286 -0.9011 -0.6723  0.6474
 1879TIP3    H2 5602   6.001   6.613   2.266  0.2499 -0.2277  3.1572
 1880TIP3   OH2 5603   1.679   1.348   5.694  0.6912  0.4946 -0.6401
 1880TIP3    H1 5604   1.610   1.413   5.709  0.4901  0.0047  0.7173
 1880TIP3    H2 5605   1.684   1.299   5.777  1.2928 -0.7815 -1.3975
 1881TIP3   OH2 5606   5.283   3.291   2.530  0.2085 -0.2968  0.0597
 1881TIP3    H1 5607   5.234   3.259   2.454 -1.1830  0.2993  0.6532
 1881TIP3    H2 5608   5.244   3.377   2.548  1.5714  0.2463  0.5226
 1882TIP3   OH2 5609   0.043   1.214   1.100  0.0039 -0.7942  0.4779
 1882TIP3    H1 5610   0.007   1.286   1.151 -1.6829 -0.9636 -0.4192
 1882TIP3    H2 5611   0.064   1.146   1.164  1.8880  0.5411  1.3703
 1883TIP3   OH2 5612   3.625   3.668   3.412  0.5147 -0.8162  0.4942
 1883TIP3    H1 5613   3.596   3.749   3.369  0.9162 -1.3131 -0.7569
 1883TIP3    H2 5614   3.634   3.692   3.504  1.6214  0.8544 -0.0016
 1884TIP3   OH2 5615   6.675   4.552   4.579 -0.0008  0.2750 -0.5393
 1884TIP3    H1 5616   6.676   4.646   4.558  1.3622  0.1196 -1.2994
 1884TIP3    H2 5617   6.599   4.541   4.635 -1.0717  1.5675 -1.6682
 1885TIP3   OH2 5618   3.114   3.656   2.284  0.4883 -0.5871 -0.4046
 1885TIP3    H1 5619   3.110   3.725   2.218  1.7440  1.6890  1.6945
 1885TIP3    H2 5620   3.123   3.703   2.367  0.6304 -3.3034  1.2531
 1886TIP3   OH2 5621   1.558   3.548   4.509  0.0468  0.1182  0.2804
 1886TIP3    H1 5622   1.531   3.464   4.472  0.1579  0.3912 -0.4286
 1886TIP3    H2 5623   1.479   3.584   4.549  0.5876 -1.6696  3.3004
 1887TIP3   OH2 5624   3.993   4.232   5.004  0.1526  0.2814  0.3907
 1887TIP3    H1 5625   4.010   4.140   4.982 -0.3155  0.2466  0.1832
 1887TIP3    H2 5626   4.026   4.281   4.929  2.1303  0.4208  1.2840
 1888TIP3   OH2 5627   0.917   2.602   1.771  0.1540  0.1866 -0.5852
 1888TIP3    H1 5628   0.843   2.551   1.805  1.1871 -0.5231  0.6909
 1888TIP3    H2 5629   0.888   2.693   1.776 -1.0605 -0.1480 -1.2282
 1889TIP3   OH2 5630   0.143   5.947   3.386 -0.3211  0.1094 -0.2998
 1889TIP3    H1 5631   0.137   5.907   3.300 -1.7971 -0.3971  0.0031
 1889TIP3    H2 5632   0.237   5.953   3.404 -0.0120 -0.1503 -1.7569
 1890TIP3   OH2 5633   4.812   0.392   3.660 -0.0016  1.0360  0.0013
 1890TIP3    H1 5634   4.902   0.402   3.692  0.2861 -1.1258 -0.0112
 1890TIP3    H2 5635   4.760   0.377   3.739  0.0955 -0.3807 -0.1811
 1891TIP3   OH2 5636   0.656   0.884   4.890  0.3549  0.5194  0.1659
 1891TIP3    H1 5637   0.627   0.935   4.966 -0.4730 -0.9572  0.8835
 1891TIP3    H2 5638   0.638   0.793   4.914  1.7697 -0.1319 -1.0764
 1892TIP3   OH2 5639   0.528   4.234   3.499  0.3190  0.1443  0.1563
 1892TIP3    H1 5640   0.598   4.226   3.434  2.7509 -0.9936  2.6526
 1892TIP3    H2 5641   0.533   4.325   3.529  0.3960  0.1987 -0.0220
 1893TIP3   OH2 5642   0.924   6.289   3.007  0.2040 -0.3524  0.7505
 1893TIP3    H1 5643   0.888   6.325   2.926 -0.3765  1.2821  1.6894
 1893TIP3    H2 5644   1.019   6.301   2.998  0.1443 -0.1902  0.3228
 1894TIP3   OH2 5645   6.592   4.357   2.934  0.1102  0.0772 -0.2782
 1894TIP3    H1 5646   6.556   4.350   3.022 -1.3426  1.8839 -0.6732
 1894TIP3    H2 5647   6.649   4.280   2.925 -0.1249 -0.4283  2.0138
 1895TIP3   OH2 5648   3.955   1.964   0.396  0.1075 -0.1008 -0.0245
 1895TIP3    H1 5649   3.891   1.938   0.462 -0.5294  0.4763 -0.3883
 1895TIP3    H2 5650   3.903   1.972   0.315  0.4430  1.2698 -0.1358
 1896TIP3   OH2 5651   3.903   5.216   5.171  0.1484  0.5070 -0.5037
 1896TIP3    H1 5652   3.894   5.189   5.262 -0.4273 -0.1167 -0.7395
 1896TIP3    H2 5653   3.992   5.250   5.165 -0.2374  1.7888  0.6081
 1897TIP3   OH2 5654   2.672   2.011   2.764  0.3300 -0.1998 -0.5554
 1897TIP3    H1 5655   2.711   2.023   2.678  0.4856  0.5532 -0.3862
 1897TIP3    H2 5656   2.714   2.077   2.819  0.8396 -1.2051  0.3065
 1898TIP3   OH2 5657   5.630   3.340   4.566  0.2086 -0.0876 -0.3704
 1898TIP3    H1 5658   5.563   3.364   4.502 -0.9146 -1.3397  0.2888
 1898TIP3    H2 5659   5.590   3.360   4.651 -0.4268 -3.1960  0.1663
 1899TIP3   OH2 5660   2.544   5.992   4.430 -0.7576 -0.0383 -0.0639
 1899TIP3    H1 5661   2.586   5.965   4.348  0.7576  0.1861  0.6142
 1899TIP3    H2 5662   2.586   6.075   4.452 -1.8264  0.3850  0.4679
 1900TIP3   OH2 5663   6.005   6.239   1.209 -0.5167  0.3253 -0.6656
 1900TIP3    H1 5664   6.061   6.166   1.182  0.9032  0.9298  0.4997
 1900TIP3    H2 5665   5.997   6.294   1.131  1.0204  0.5204 -0.7100
 1901TIP3   OH2 5666   4.013   3.225   0.934 -0.1298 -0.0989 -0.2123
 1901TIP3    H1 5667   4.095   3.275   0.930 -0.1909  0.1397  1.1264
 1901TIP3    H2 5668   3.947   3.286   0.902  0.0166  0.1889  0.0260
 1902TIP3   OH2 5669   2.720   2.169   5.532 -0.5238 -0.2960  0.4067
 1902TIP3    H1 5670   2.814   2.157   5.546 -0.1234  1.4495 -0.4435
 1902TIP3    H2 5671   2.700   2.116   5.455  0.2930  1.0275 -0.7782
 1903TIP3   OH2 5672   6.031   2.367   2.420  0.2120  0.0634  0.7656
 1903TIP3    H1 5673   6.078   2.341   2.341 -0.3920 -0.0879  0.4494
 1903TIP3    H2 5674   6.008   2.459   2.405 -1.2138 -0.3748  0.0911
 1904TIP3   OH2 5675   1.432   0.486   3.860 -0.2989  0.0050 -0.3604
 1904TIP3    H1 5676   1.474   0.567   3.891  0.0886 -0.3224 -0.0214
 1904TIP3    H2 5677   1.499   0.419   3.871 -0.0357 -0.0773 -2.2069
 1905TIP3   OH2 5678   2.538   4.002   1.437  0.4327 -0.8341 -0.3213
 1905TIP3    H1 5679   2.622   3.964   1.464  0.4981 -0.5992 -0.1893
 1905TIP3    H2 5680   2.489   3.928   1.401  0.7713 -0.9379 -0.5820
 1906TIP3   OH2 5681   0.087   5.746   0.417 -0.3935  0.5272  0.1014
 1906TIP3    H1 5682   0.132   5.830   0.402  1.6595 -0.4699  0.2836
 1906TIP3    H2 5683   0.106   5.726   0.508  0.2004 -0.7270 -0.2863
 1907TIP3   OH2 5684   6.009   0.485   5.495  0.1234  0.0393  0.1444
 1907TIP3    H1 5685   6.089   0.456   5.538 -0.7222  1.2904  2.7980
 1907TIP3    H2 5686   5.945   0.495   5.567 -1.6209  1.5967 -1.5005
 1908TIP3   OH2 5687   2.375   5.278   3.127  0.1027 -0.0492 -1.2153
 1908TIP3    H1 5688   2.373   5.333   3.205 -3.5224 -0.6804 -0.6746
 1908TIP3    H2 5689   2.350   5.336   3.055 -1.5017 -0.4472 -1.0139
 1909TIP3   OH2 5690   7.178   0.780   4.268  0.1455 -0.0970 -0.2209
 1909TIP3    H1 5691   7.207   0.871   4.258  0.5472 -0.2068 -0.0657
 1909TIP3    H2 5692   7.248   0.729   4.229 -0.0285 -0.3482 -0.2048
 1910TIP3   OH2 5693   6.756   6.116   2.993 -0.0719 -0.6691 -0.1277
 1910TIP3    H1 5694   6.773   6.041   3.050  1.2584 -0.1015  0.2768
 1910TIP3    H2 5695   6.753   6.079   2.905  0.9666 -1.1752  0.0261
 1911TIP3   OH2 5696   1.952   3.135   5.816 -0.0359  0.1113 -0.2477
 1911TIP3    H1 5697   1.956   3.087   5.733  0.4492 -1.5269  0.6885
 1911TIP3    H2 5698   2.013   3.089   5.873 -1.2480  0.4614  1.3927
 1912TIP3   OH2 5699   2.596   1.328   5.385 -0.2207 -0.3524  0.2463
 1912TIP3    H1 5700   2.533   1.395   5.359 -0.3801 -0.0990  1.2622
 1912TIP3    H2 5701   2.644   1.309   5.304 -0.2576  0.8940 -0.1014
 1913TIP3   OH2 5702   2.541   3.298   1.632  0.6587 -0.3783  0.1959
 1913TIP3    H1 5703   2.475   3.365   1.652  0.2720 -0.0534 -1.9725
 1913TIP3    H2 5704   2.597   3.297   1.709 -1.1129  0.2507  1.5765
 1914TIP3   OH2 5705   3.046   6.198   3.658 -0.5767  0.3901 -0.2996
 1914TIP3    H1 5706   3.020   6.117   3.702 -0.3732  0.4523 -0.0578
 1914TIP3    H2 5707   3.010   6.268   3.714 -0.2465  0.4711 -0.1879
 1915TIP3   OH2 5708   0.205   4.460   2.681 -0.5543  0.1192 -0.3473
 1915TIP3    H1 5709   0.142   4.471   2.610 -0.9277  0.8179  0.0786
 1915TIP3    H2 5710   0.219   4.548   2.715  0.6863 -0.0197 -0.4473
 1916TIP3   OH2 5711   4.206   0.376   5.419  0.5582  0.1641 -0.1988
 1916TIP3    H1 5712   4.179   0.285   5.430 -0.3875  0.1616 -2.1813
 1916TIP3    H2 5713   4.225   0.385   5.326  1.7267  1.7345  0.1371
 1917TIP3   OH2 5714   0.087   4.022   1.950 -0.5449  0.0609  0.3188
 1917TIP3    H1 5715  -0.001   3.983   1.941  0.0148 -1.3816  0.7957
 1917TIP3    H2 5716   0.146   3.947   1.942  0.6650  1.0522 -0.2059
 1918TIP3   OH2 5717   6.062   1.532   4.270  0.8654 -0.3498  0.0297
 1918TIP3    H1 5718   6.087   1.549   4.179  0.4153  0.8723  0.1113
 1918TIP3    H2 5719   6.119   1.588   4.322  0.0227  0.2109  0.3842
 1919TIP3   OH2 5720   6.442   5.273   0.171  0.1141  0.0041  0.0347
 1919TIP3    H1 5721   6.359   5.224   0.168 -0.6524  1.1718  0.9423
 1919TIP3    H2 5722   6.494   5.227   0.236  0.4505 -1.1200 -1.0075
 1920TIP3   OH2 5723   2.620   0.112   0.774  0.4219 -0.4649 -0.2375
 1920TIP3    H1 5724   2.605   0.021   0.802  0.3197 -1.1069 -2.1710
 1920TIP3    H2 5725   2.555   0.163   0.822  1.3972 -1.1617  1.9578
 1921TIP3   OH2 5726   1.007   0.942   0.083  0.1574 -0.3253 -0.4732
 1921TIP3    H1 5727   0.967   0.900   0.158 -2.0964  1.2092 -0.7213
 1921TIP3    H2 5728   1.036   0.870   0.027 -0.9116 -1.5013  0.4472
 1922TIP3   OH2 5729   6.309   4.823   2.134  0.1486  0.1041 -0.0502
 1922TIP3    H1 5730   6.344   4.784   2.054  1.8509  1.3732  0.0458
 1922TIP3    H2 5731   6.221   4.785   2.142  0.8332 -1.8730 -1.2111
 1923TIP3   OH2 5732   1.296   5.940   2.592  0.2044  0.0956 -0.1149
 1923TIP3    H1 5733   1.268   6.031   2.594 -0.2785 -0.0178 -1.1298
 1923TIP3    H2 5734   1.307   5.916   2.684 -0.4786  0.9311  0.1924
 1924TIP3   OH2 5735   6.652   2.345   2.247  0.1709 -0.2090 -0.3129
 1924TIP3    H1 5736   6.742   2.374   2.230  0.3157 -0.5716 -0.1800
 1924TIP3    H2 5737   6.638   2.365   2.340 -0.8291  2.3238 -0.9320
 1925TIP3   OH2 5738   5.411   3.440   3.604  0.4076  0.2095 -0.8125
 1925TIP3    H1 5739   5.431   3.529   3.577  1.0491 -0.0455 -1.1783
 1925TIP3    H2 5740   5.484   3.414   3.660 -0.8294  0.6816  1.1156
 1926TIP3   OH2 5741   6.324   4.760   3.973  0.4344  0.4124  0.5341
 1926TIP3    H1 5742   6.259   4.816   4.018 -0.1962  0.4896 -0.4507
 1926TIP3    H2 5743   6.286   4.672   3.976  1.3781  0.0256  1.9879
 1927TIP3   OH2 5744   0.234   1.228   0.739  0.3120  0.1338 -0.5967
 1927TIP3    H1 5745   0.283   1.180   0.671  1.9861 -2.4833  2.1861
 1927TIP3    H2 5746   0.302   1.266   0.794 -1.0084  2.2970 -0.3701
 1928TIP3   OH2 5747   2.842   0.704   2.770  0.1979  1.0455 -0.0475
 1928TIP3    H1 5748   2.840   0.609   2.786 -2.4108  0.9003 -0.7171
 1928TIP3    H2 5749   2.933   0.728   2.782  0.2999 -0.6960  4.9896
 1929TIP3   OH2 5750   4.662   2.625   4.726 -0.7770 -0.4087  0.2050
 1929TIP3    H1 5751   4.749   2.667   4.730  0.1768 -2.1239 -1.1883
 1929TIP3    H2 5752   4.656   2.575   4.807 -0.9633  0.5815  0.8208
 1930TIP3   OH2 5753   1.006   1.740   4.622 -0.0575  0.1229 -0.2934
 1930TIP3    H1 5754   0.963   1.824   4.637 -1.1234 -0.4316 -0.1185
 1930TIP3    H2 5755   1.100   1.760   4.621 -0.3069  1.3660 -0.6360
 1931TIP3   OH2 5756   2.459   4.142   3.710 -0.3803 -0.8607 -0.2018
 1931TIP3    H1 5757   2.435   4.059   3.750  0.4444 -1.3403 -0.6800
 1931TIP3    H2 5758   2.524   4.180   3.769  0.5592 -1.3959 -0.8542
 1932TIP3   OH2 5759   4.334   5.087   4.219 -0.1523 -0.6810 -0.0948
 1932TIP3    H1 5760   4.303   5.000   4.244  1.7946 -0.9757  1.5927
 1932TIP3    H2 5761   4.424   5.073   4.189  0.3470  0.7638  0.6124
 1933TIP3   OH2 5762   2.433   1.958   3.887 -0.3093  0.1161 -0.2065
 1933TIP3    H1 5763   2.516   1.980   3.845 -1.3565  1.7266 -1.5519
 1933TIP3    H2 5764   2.439   1.995   3.975  1.7144 -2.8685  1.0977
 1934TIP3   OH2 5765   2.941   3.138   5.754  0.4653 -0.1528  0.2477
 1934TIP3    H1 5766   2.873   3.080   5.721 -1.1556  1.4331  0.6833
 1934TIP3    H2 5767   2.894   3.207   5.800  2.4430  0.2452  1.8113
 1935TIP3   OH2 5768   6.054   1.886   0.947 -0.6651 -0.1831 -0.2563
 1935TIP3    H1 5769   6.007   1.820   0.897 -1.0849  1.2350 -1.8364
 1935TIP3    H2 5770   6.139   1.894   0.904 -0.0158 -0.7323  0.8621
 1936TIP3   OH2 5771   0.651   0.100   2.012  0.6079  0.0130  0.4398
 1936TIP3    H1 5772   0.716   0.036   1.982 -0.6292 -0.9739 -0.2462
 1936TIP3    H2 5773   0.602   0.122   1.933  0.5168  1.2404  0.8251
 1937TIP3   OH2 5774   4.155   5.926   5.333  0.6700  0.0769 -0.8075
 1937TIP3    H1 5775   4.173   6.020   5.332 -0.9440  0.4411 -0.0745
 1937TIP3    H2 5776   4.082   5.917   5.395  0.9894 -1.7021 -0.6384
 1938TIP3   OH2 5777   5.211   1.758   3.062 -0.5161  0.0978  0.0578
 1938TIP3    H1 5778   5.116   1.745   3.065 -0.6442  1.0109  0.2158
 1938TIP3    H2 5779   5.246   1.671   3.042 -1.2136 -0.9092  2.7850
 1939TIP3   OH2 5780   1.216   4.097  -0.007  0.5497 -0.1241  0.1374
 1939TIP3    H1 5781   1.218   4.014  -0.056  1.6116  1.6787 -3.1715
 1939TIP3    H2 5782   1.246   4.073   0.081 -0.1965 -3.3879 -0.3640
 1940TIP3   OH2 5783   4.874   1.751   2.622  0.0230  0.5023  0.2219
 1940TIP3    H1 5784   4.931   1.685   2.582 -1.1878  0.5623 -1.7425
 1940TIP3    H2 5785   4.794   1.703   2.644 -0.3012  1.0112  0.1655
 1941TIP3   OH2 5786   3.349   3.297   1.729 -0.3678 -0.5868  0.6147
 1941TIP3    H1 5787   3.435   3.313   1.692 -0.4848 -0.5925  0.3431
 1941TIP3    H2 5788   3.306   3.239   1.667 -1.3796  1.1640 -0.3959
 1942TIP3   OH2 5789   1.300   0.939   1.690  0.0358  0.3294  0.5310
 1942TIP3    H1 5790   1.311   0.957   1.783  1.4089  0.1520  0.4156
 1942TIP3    H2 5791   1.382   0.900   1.662 -0.7548 -0.6649 -0.5308
 1943TIP3   OH2 5792   0.211   5.430   3.127 -0.1970  0.1668 -0.0858
 1943TIP3    H1 5793   0.169   5.510   3.158  0.3461  0.1786  0.6533
 1943TIP3    H2 5794   0.254   5.456   3.046  0.4965  0.7968  0.4646
 1944TIP3   OH2 5795   6.501   4.747   4.186 -0.1822  0.0125 -0.2811
 1944TIP3    H1 5796   6.480   4.732   4.094 -0.8553  0.0936 -0.1468
 1944TIP3    H2 5797   6.444   4.686   4.233 -1.7955  1.8153  0.2044
 1945TIP3   OH2 5798   1.953   0.783   0.678 -0.5275 -0.0369  0.5810
 1945TIP3    H1 5799   2.048   0.792   0.672 -0.5505  0.1309  0.4679
 1945TIP3    H2 5800   1.927   0.740   0.597 -0.4960 -0.5055  0.8175
 1946TIP3   OH2 5801   0.497   4.398   5.809  0.3997 -0.3067 -0.2270
 1946TIP3    H1 5802   0.480   4.327   5.747  0.2853 -0.0033 -0.5522
 1946TIP3    H2 5803   0.536   4.467   5.755 -0.0739  0.1144 -0.0402
 1947TIP3   OH2 5804   6.305   6.373   3.803 -0.0242  0.6085 -0.0092
 1947TIP3    H1 5805   6.220   6.408   3.775 -0.6457 -0.2623  0.7518
 1947TIP3    H2 5806   6.332   6.317   3.730 -0.5753  0.1146  0.1602
 1948TIP3   OH2 5807   3.980   0.611   2.761 -0.3245  0.5623 -0.4370
 1948TIP3    H1 5808   4.003   0.668   2.688  1.1030  0.6607  0.0600
 1948TIP3    H2 5809   3.892   0.640   2.788  0.6416  3.0753  0.2810
 1949TIP3   OH2 5810   6.513   3.764   2.840  0.4420 -0.0239  0.1930
 1949TIP3    H1 5811   6.546   3.681   2.874  0.6781  0.1642  0.4297
 1949TIP3    H2 5812   6.551   3.830   2.897  1.8811  0.3991 -1.1892
 1950TIP3   OH2 5813   2.585   6.738   4.077 -0.2006 -0.1915  0.0693
 1950TIP3    H1 5814   2.538   6.730   3.994  0.3845  1.3224 -0.4378
 1950TIP3    H2 5815   2.525   6.788   4.133 -0.2199 -0.4213  0.2532
 1951TIP3   OH2 5816   5.624   2.658   2.890 -0.3570 -0.4729 -0.1209
 1951TIP3    H1 5817   5.600   2.749   2.872  1.4286 -0.2893 -1.8666
 1951TIP3    H2 5818   5.700   2.664   2.948 -0.5532 -0.8910  0.1908
 1952TIP3   OH2 5819   5.718   4.786   1.641 -0.4966 -0.2072  0.0779
 1952TIP3    H1 5820   5.778   4.713   1.653 -0.3505 -0.2705 -0.9222
 1952TIP3    H2 5821   5.677   4.770   1.556  0.5953  1.6033 -0.8549
 1953TIP3   OH2 5822   2.074   3.006   3.661  0.1344  0.1815 -0.1238
 1953TIP3    H1 5823   2.108   3.092   3.638  1.2165  0.1779  1.2986
 1953TIP3    H2 5824   2.126   2.944   3.611  0.3952  0.2954  0.0064
 1954TIP3   OH2 5825   1.543   4.051   3.503 -0.0517  0.5515  0.1022
 1954TIP3    H1 5826   1.553   3.965   3.462  1.9529 -0.0331  1.6542
 1954TIP3    H2 5827   1.548   4.113   3.430 -1.4687 -0.6195 -1.0310
 1955TIP3   OH2 5828   2.271   2.444   2.930  0.3045 -0.0674  0.3861
 1955TIP3    H1 5829   2.329   2.402   2.866  0.8930 -1.2436  1.6252
 1955TIP3    H2 5830   2.311   2.529   2.946 -0.9172  1.0671 -2.1860
 1956TIP3   OH2 5831   4.849   4.892   3.259  0.5407  0.1319 -0.6144
 1956TIP3    H1 5832   4.758   4.876   3.234  0.5919  0.1457 -0.8166
 1956TIP3    H2 5833   4.900   4.859   3.185  0.6906  0.2974 -0.5863
 1957TIP3   OH2 5834   3.672   2.103   5.370  0.5441 -0.1386  0.3783
 1957TIP3    H1 5835   3.651   2.194   5.349 -0.7249 -0.6417 -0.6185
 1957TIP3    H2 5836   3.768   2.102   5.375  0.5686  1.3384  0.8785
 1958TIP3   OH2 5837   6.527   0.304   5.503 -0.2895 -0.1066  0.3391
 1958TIP3    H1 5838   6.525   0.235   5.436  1.0808  0.7952 -0.6768
 1958TIP3    H2 5839   6.589   0.271   5.569  1.9338  0.9341 -1.1181
 1959TIP3   OH2 5840   3.861   0.967   3.539  0.0946 -0.1734 -0.2308
 1959TIP3    H1 5841   3.920   1.027   3.493  0.7748 -0.3056  0.4442
 1959TIP3    H2 5842   3.843   0.898   3.475  0.1149  0.2335 -0.6794
 1960TIP3   OH2 5843   2.160   0.905   3.968  0.4103 -0.1228 -0.1859
 1960TIP3    H1 5844   2.184   0.966   4.038 -0.4317 -0.0655  0.0597
 1960TIP3    H2 5845   2.208   0.938   3.891 -1.1355  1.7417 -0.4266
 1961TIP3   OH2 5846   5.176   3.763   3.494 -0.0600  0.0360  0.0929
 1961TIP3    H1 5847   5.115   3.690   3.482  0.6966 -0.6015  0.0439
 1961TIP3    H2 5848   5.262   3.721   3.496  0.5948  1.1061 -2.0825
 1962TIP3   OH2 5849   0.992   4.883   4.119 -0.1777  0.0697  0.0661
 1962TIP3    H1 5850   0.981   4.813   4.054  1.4410 -3.0499  2.8739
 1962TIP3    H2 5851   1.076   4.864   4.161 -0.5196  2.7030  2.2089
 1963TIP3   OH2 5852   3.999   1.146   1.782 -0.4184  0.6364  0.6957
 1963TIP3    H1 5853   4.082   1.099   1.790 -0.7755 -0.2045 -0.3383
 1963TIP3    H2 5854   3.959   1.139   1.869  0.2407  0.3846  0.9883
 1964TIP3   OH2 5855   4.814   6.494   1.419  0.2184 -0.2424 -0.1704
 1964TIP3    H1 5856   4.721   6.487   1.437  0.2473 -0.3277 -0.0546
 1964TIP3    H2 5857   4.857   6.464   1.499  0.3462 -1.7046 -0.7565
 1965TIP3   OH2 5858   0.394   0.748   5.622  0.5620  0.0717 -0.7619
 1965TIP3    H1 5859   0.381   0.666   5.669  0.4681  1.0875  1.0673
 1965TIP3    H2 5860   0.488   0.763   5.624  0.6407 -0.2419 -1.5855
 1966TIP3   OH2 5861   4.990   2.590   4.454  0.0452 -0.2985  0.1165
 1966TIP3    H1 5862   4.924   2.525   4.478 -0.1319  0.6493  2.4822
 1966TIP3    H2 5863   5.071   2.540   4.445  0.4704 -0.7465  4.3028
 1967TIP3   OH2 5864   7.191   0.382   0.719 -0.1844  0.1586  0.4267
 1967TIP3    H1 5865   7.187   0.477   0.714  2.0633  0.3021  0.1337
 1967TIP3    H2 5866   7.153   0.361   0.804  0.2020  1.4156  0.9371
 1968TIP3   OH2 5867   2.154   2.460   5.917 -0.6974 -0.2914 -0.4890
 1968TIP3    H1 5868   2.157   2.483   5.824 -0.5321 -1.2580 -0.7278
 1968TIP3    H2 5869   2.159   2.365   5.918  0.6259 -0.2263  0.5702
 1969TIP3   OH2 5870   0.254   0.326   5.256 -0.2215  0.0596  0.3290
 1969TIP3    H1 5871   0.294   0.385   5.319 -0.4173 -0.2914  0.7844
 1969TIP3    H2 5872   0.207   0.262   5.309 -0.9990  0.1894 -0.1792
 1970TIP3   OH2 5873   4.504   0.292   4.124 -0.0862 -0.0250  0.1707
 1970TIP3    H1 5874   4.422   0.330   4.155  0.0259  0.8020 -0.5194
 1970TIP3    H2 5875   4.479   0.205   4.091 -0.9623  0.7512 -1.3331
 1971TIP3   OH2 5876   3.193   3.230   4.037  0.5666 -0.0555  1.0538
 1971TIP3    H1 5877   3.131   3.303   4.040 -0.2691 -0.6161 -0.7808
 1971TIP3    H2 5878   3.198   3.207   3.944  1.7468 -1.5460  1.4420
 1972TIP3   OH2 5879   3.000   6.184   1.191  0.1089  0.3403  0.3646
 1972TIP3    H1 5880   3.052   6.263   1.209  0.6813  0.6282 -2.1840
 1972TIP3    H2 5881   3.063   6.113   1.191 -0.3901 -0.1835  2.5321
 1973TIP3   OH2 5882   4.071   5.140   3.906 -0.1216  0.1491 -0.1108
 1973TIP3    H1 5883   4.034   5.062   3.864  0.6645 -0.0872 -0.3882
 1973TIP3    H2 5884   4.119   5.184   3.835  0.7929  0.0219  0.4116
 1974TIP3   OH2 5885   4.101   5.372  -0.005 -0.2224  0.3743 -0.0581
 1974TIP3    H1 5886   4.102   5.410   0.083 -1.0663  0.5053 -0.0909
 1974TIP3    H2 5887   4.166   5.301  -0.002  0.3575  0.9214  0.4143
 1975TIP3   OH2 5888   1.993   4.093   3.806 -0.1019  0.1515 -0.3307
 1975TIP3    H1 5889   1.986   4.065   3.714 -0.0226 -0.5279 -0.1363
 1975TIP3    H2 5890   1.921   4.155   3.817 -1.0152 -0.8496 -0.4703
 1976TIP3   OH2 5891   5.851   2.171   0.658 -0.5204 -0.0310  0.7180
 1976TIP3    H1 5892   5.876   2.224   0.734  0.1588  0.8649 -0.1075
 1976TIP3    H2 5893   5.816   2.234   0.595  0.8374 -0.4445 -0.5102
 1977TIP3   OH2 5894   1.908   3.380   3.218 -0.6897 -0.0271 -0.4697
 1977TIP3    H1 5895   1.876   3.444   3.280 -0.8791  0.0551 -0.6507
 1977TIP3    H2 5896   1.989   3.418   3.184 -0.0897 -0.4954  0.4086
 1978TIP3   OH2 5897   2.201   2.288   2.103  0.2299  0.2567 -1.0146
 1978TIP3    H1 5898   2.155   2.214   2.065 -0.0301  0.6104 -1.3955
 1978TIP3    H2 5899   2.174   2.363   2.051  1.6656  0.3967 -1.6244
 1979TIP3   OH2 5900   0.456   4.096   0.125 -0.3804  0.2741  0.2198
 1979TIP3    H1 5901   0.505   4.062   0.050 -0.3489  1.4970 -0.3405
 1979TIP3    H2 5902   0.518   4.151   0.172 -0.7884  0.6288  0.3540
 1980TIP3   OH2 5903   6.462   4.379   4.950  0.0998 -0.4266 -0.3326
 1980TIP3    H1 5904   6.497   4.327   4.877  0.5072 -0.3115 -0.2246
 1980TIP3    H2 5905   6.539   4.402   5.001 -0.2035 -0.6461  0.2264
 1981TIP3   OH2 5906   0.560   0.349   3.260  0.2664  0.1089  0.9484
 1981TIP3    H1 5907   0.528   0.319   3.175 -1.8633  1.5569  1.1637
 1981TIP3    H2 5908   0.612   0.427   3.240 -0.2471  0.4585  0.9487
 1982TIP3   OH2 5909   2.507   6.281   0.310 -0.3143  0.2231 -0.2173
 1982TIP3    H1 5910   2.416   6.306   0.297 -1.6000 -2.1105  3.1903
 1982TIP3    H2 5911   2.554   6.365   0.311 -2.1942  1.4451 -2.7256
 1983TIP3   OH2 5912   3.493   6.092   0.441 -0.1812  0.3999  0.1473
 1983TIP3    H1 5913   3.547   6.162   0.477  0.0181 -0.0312  0.6988
 1983TIP3    H2 5914   3.534   6.070   0.358 -0.7361  1.5131 -0.4552
 1984TIP3   OH2 5915   5.163   0.002   2.705  0.2527  0.6369  0.2799
 1984TIP3    H1 5916   5.078  -0.029   2.737  0.3888  1.6392  1.6838
 1984TIP3    H2 5917   5.143   0.045   2.621 -0.3385 -0.7036 -0.2859
 1985TIP3   OH2 5918   1.783   5.881   1.637 -0.4459 -0.5374 -0.2044
 1985TIP3    H1 5919   1.772   5.786   1.641  0.0516 -0.6650 -1.5471
 1985TIP3    H2 5920   1.860   5.899   1.691 -1.3323 -0.7113  1.1908
 1986TIP3   OH2 5921   1.948   3.621   5.410 -0.6152 -0.3351  0.7863
 1986TIP3    H1 5922   2.038   3.609   5.381 -0.4323 -1.4001  1.7603
 1986TIP3    H2 5923   1.896   3.608   5.330  0.0790  0.3035  0.2159
 1987TIP3   OH2 5924   4.869   4.248   4.982  0.0510  0.4913  0.3469
 1987TIP3    H1 5925   4.880   4.297   5.063  1.6521  1.7776 -0.5857
 1987TIP3    H2 5926   4.789   4.197   4.996  1.0727 -0.5035  3.2842
 1988TIP3   OH2 5927   3.111   5.727   0.028 -0.8499 -0.0742  0.2846
 1988TIP3    H1 5928   3.037   5.668   0.043 -1.8570  0.7239 -1.2709
 1988TIP3    H2 5929   3.072   5.814   0.021  0.5159  0.6974  1.6587
 1989TIP3   OH2 5930   5.244   1.377   2.337  0.1161 -0.2959  0.3957
 1989TIP3    H1 5931   5.242   1.448   2.402  0.3245 -0.7348  0.8933
 1989TIP3    H2 5932   5.261   1.298   2.389  1.2483 -0.5312 -0.2965
 1990TIP3   OH2 5933   5.466   2.571   5.102 -0.0654  0.5150  0.1705
 1990TIP3    H1 5934   5.391   2.631   5.113  0.3987  1.0792  0.2871
 1990TIP3    H2 5935   5.501   2.561   5.190  2.3426  3.3280 -0.3105
 1991TIP3   OH2 5936   0.804   1.313   3.887  0.3731  0.6556 -0.0488
 1991TIP3    H1 5937   0.802   1.226   3.927 -0.3905  0.6897  0.0059
 1991TIP3    H2 5938   0.870   1.306   3.819  1.7625  0.6159  1.2408
 1992TIP3   OH2 5939   5.631   1.315   1.395 -0.1362  0.3372 -0.4055
 1992TIP3    H1 5940   5.660   1.226   1.417  0.6047 -0.0052 -2.5246
 1992TIP3    H2 5941   5.614   1.356   1.479  0.8095 -1.3839  0.6856
 1993TIP3   OH2 5942   1.555   4.492   5.836 -0.5152 -0.0635 -0.7820
 1993TIP3    H1 5943   1.603   4.574   5.827 -0.5047 -0.0083 -0.2428
 1993TIP3    H2 5944   1.565   4.449   5.750  2.1002 -0.9394 -0.1480
 1994TIP3   OH2 5945   6.748   0.541   2.027 -0.0526 -0.3298  0.2375
 1994TIP3    H1 5946   6.705   0.471   1.978 -1.3515 -0.4128  1.4207
 1994TIP3    H2 5947   6.817   0.496   2.076 -0.2956 -0.6414  0.3009
 1995TIP3   OH2 5948   4.291   5.525   1.029 -0.3409 -0.1416  0.0167
 1995TIP3    H1 5949   4.301   5.515   0.934  0.6629  0.0167  0.0923
 1995TIP3    H2 5950   4.271   5.437   1.060  0.3547 -0.3979 -0.2360
 1996TIP3   OH2 5951   2.357   4.426   4.812  0.0301 -0.6832 -0.5201
 1996TIP3    H1 5952   2.320   4.339   4.831 -1.6991  0.0138 -0.4963
 1996TIP3    H2 5953   2.296   4.487   4.852  1.8201  0.5613  0.4351
 1997TIP3   OH2 5954   1.448   0.421   4.273 -0.3909 -0.0964 -0.0363
 1997TIP3    H1 5955   1.517   0.365   4.308  1.0076  0.9798 -0.9776
 1997TIP3    H2 5956   1.436   0.488   4.341  0.0607  0.1638 -0.2080
 1998TIP3   OH2 5957   4.489   2.650   2.287  0.5640 -0.7329  0.2992
 1998TIP3    H1 5958   4.394   2.646   2.301  0.3813 -0.3608 -0.6916
 1998TIP3    H2 5959   4.513   2.561   2.261  0.0974 -0.3791 -1.5079
 1999TIP3   OH2 5960   3.331   0.390   1.419  0.5191 -0.5883 -0.6172
 1999TIP3    H1 5961   3.276   0.314   1.442  0.5970 -0.6983 -0.7908
 1999TIP3    H2 5962   3.414   0.374   1.464 -0.2269  0.5442  1.2684
 2000TIP3   OH2 5963   4.646   1.659   0.907  0.4051 -0.3083  0.4177
 2000TIP3    H1 5964   4.723   1.701   0.946 -0.5790  2.4191 -0.3695
 2000TIP3    H2 5965   4.575   1.682   0.966 -0.3849  0.2759 -0.7329
 2001TIP3   OH2 5966   3.404   6.289   5.588  0.6325  0.0526  0.6467
 2001TIP3    H1 5967   3.311   6.275   5.571  1.0548 -1.6177 -0.4853
 2001TIP3    H2 5968   3.409   6.307   5.682 -0.7542 -0.5142  0.8473
 2002TIP3   OH2 5969   2.997   1.125   4.547 -0.0119  0.2544  0.2410
 2002TIP3    H1 5970   3.036   1.118   4.460  0.5839  0.6011  0.4771
 2002TIP3    H2 5971   2.904   1.141   4.531  0.2407  1.1808 -0.3437
 2003TIP3   OH2 5972   1.198   0.802   4.497 -0.1117 -0.5646  0.1373
 2003TIP3    H1 5973   1.188   0.896   4.482 -1.8503 -1.2174 -4.3681
 2003TIP3    H2 5974   1.292   0.789   4.505  0.2531  1.4320 -0.3510
 2004TIP3   OH2 5975   1.898   4.757   4.102 -0.1733  0.7156 -0.3063
 2004TIP3    H1 5976   1.913   4.840   4.057  0.8159 -0.0611 -1.5048
 2004TIP3    H2 5977   1.915   4.691   4.035 -1.0952 -0.4551  0.5764
 2005TIP3   OH2 5978   1.666   4.209   2.666 -0.3061 -0.0813  0.2326
 2005TIP3    H1 5979   1.717   4.251   2.735 -1.2467 -0.0418  0.9315
 2005TIP3    H2 5980   1.589   4.173   2.711 -0.8108 -0.2899 -0.7511
 2006TIP3   OH2 5981   3.370   0.978   4.320 -0.6102  0.0891  0.0222
 2006TIP3    H1 5982   3.459   0.944   4.309 -0.5239  0.4532 -0.4258
 2006TIP3    H2 5983   3.316   0.923   4.262 -0.5215  0.4907 -0.4502
 2007TIP3   OH2 5984   5.873   6.155   4.196  0.2269 -0.1556  0.5794
 2007TIP3    H1 5985   5.779   6.158   4.175 -0.0125 -0.7092  1.5298
 2007TIP3    H2 5986   5.883   6.214   4.270  0.6849  0.0923  0.3258
 2008TIP3   OH2 5987   2.702   5.777   1.360 -0.3050 -0.1343  0.3213
 2008TIP3    H1 5988   2.755   5.720   1.416  1.2981  0.1729 -0.8233
 2008TIP3    H2 5989   2.619   5.785   1.406 -0.2761 -2.6780  0.9458
 2009TIP3   OH2 5990   2.806   3.558   0.745 -0.2776 -0.1373 -0.2419
 2009TIP3    H1 5991   2.766   3.636   0.708 -1.0291 -0.6871 -0.5960
 2009TIP3    H2 5992   2.833   3.585   0.833 -1.9849  0.0720  0.2440
 2010TIP3   OH2 5993   3.785   0.319   0.124 -0.0902 -0.7125  0.0461
 2010TIP3    H1 5994   3.846   0.363   0.183 -1.0319  1.2898 -0.3601
 2010TIP3    H2 5995   3.755   0.388   0.065  0.1786 -2.4496 -2.2697
 2011TIP3   OH2 5996   4.473   3.310   4.879 -0.2751  0.0537  0.8941
 2011TIP3    H1 5997   4.474   3.230   4.828  0.3679 -0.3466  1.5118
 2011TIP3    H2 5998   4.380   3.334   4.885 -0.2742  1.1576 -2.0018
 2012TIP3   OH2 5999   4.528   3.589   4.420 -0.2303  0.0492  0.2916
 2012TIP3    H1 6000   4.467   3.662   4.424 -2.0648 -1.4082  0.3684
 2012TIP3    H2 6001   4.535   3.558   4.511  0.8100  0.3152  0.3197
 2013TIP3   OH2 6002   3.484   6.134   0.762 -0.0520 -0.1522  0.1603
 2013TIP3    H1 6003   3.446   6.058   0.717 -1.7831  1.1628 -0.7380
 2013TIP3    H2 6004   3.440   6.136   0.847 -0.1387 -0.0524  0.1131
 2014TIP3   OH2 6005   2.378   2.224   3.612  0.1129  0.1925  0.4744
 2014TIP3    H1 6006   2.468   2.194   3.621  0.7661  1.3908 -1.5048
 2014TIP3    H2 6007   2.332   2.150   3.573  0.7743  0.3133 -0.5838
 2015TIP3   OH2 6008   2.779   3.046   4.423 -0.0670 -0.0181  0.2692
 2015TIP3    H1 6009   2.817   3.126   4.460  0.3801 -0.6629  1.2275
 2015TIP3    H2 6010   2.774   2.985   4.496 -1.8406 -0.3693 -0.1073
 2016TIP3   OH2 6011   3.339   0.682   2.502 -0.5673  0.1764  0.4948
 2016TIP3    H1 6012   3.404   0.675   2.433 -0.0593  2.8511  0.5955
 2016TIP3    H2 6013   3.259   0.708   2.457 -1.2910 -1.7478  0.5446
 2017TIP3   OH2 6014   0.946   0.107   5.096  0.4471  0.2497 -0.0978
 2017TIP3    H1 6015   0.931   0.201   5.088  0.7732  0.5384  2.1588
 2017TIP3    H2 6016   0.920   0.071   5.010 -0.2264  2.2931 -0.8040
 2018TIP3   OH2 6017   3.620   6.275   3.265  0.6125 -0.0971  0.2577
 2018TIP3    H1 6018   3.566   6.199   3.287 -0.9972  0.5898 -1.0729
 2018TIP3    H2 6019   3.621   6.328   3.345 -0.6485 -0.1789  0.3546
 2019TIP3   OH2 6020   4.140   5.222   3.636  0.3544 -0.1843  0.3323
 2019TIP3    H1 6021   4.066   5.177   3.597  1.0158 -0.4801 -0.6030
 2019TIP3    H2 6022   4.199   5.240   3.563 -0.2405  2.9726  0.4950
 2020TIP3   OH2 6023   3.198   4.000   0.895 -0.0858 -0.2791 -0.4672
 2020TIP3    H1 6024   3.143   4.041   0.962  1.6847 -1.0218  1.5644
 2020TIP3    H2 6025   3.193   3.906   0.914  0.8178 -0.4615 -1.0633
 2021TIP3   OH2 6026   2.321   1.553   1.703  0.3255  0.0056  0.2266
 2021TIP3    H1 6027   2.402   1.603   1.693 -0.1851  0.4907 -2.0737
 2021TIP3    H2 6028   2.350   1.463   1.719  1.2881  0.3561  0.5109
 2022TIP3   OH2 6029   7.001   2.688   3.320 -0.1774  0.0165  0.3993
 2022TIP3    H1 6030   7.004   2.595   3.299 -0.3184  0.5011 -1.9980
 2022TIP3    H2 6031   7.089   2.709   3.350 -0.1835 -0.8957  1.1115
 2023TIP3   OH2 6032   2.435   0.070   2.583  0.1474 -0.1676  0.4362
 2023TIP3    H1 6033   2.353   0.025   2.562  0.1639  0.3536 -0.8212
 2023TIP3    H2 6034   2.423   0.159   2.549  1.0471  0.0582  0.6884
 2024TIP3   OH2 6035   1.383   3.968   1.859 -0.7995  0.3511  0.2008
 2024TIP3    H1 6036   1.440   3.910   1.809 -0.2146 -1.4619  2.7336
 2024TIP3    H2 6037   1.432   3.988   1.939 -2.7356  0.7006  1.3845
 2025TIP3   OH2 6038   3.489   2.474   5.001  0.1806  0.5441  0.3082
 2025TIP3    H1 6039   3.581   2.450   5.012  0.0311 -0.9719 -1.2381
 2025TIP3    H2 6040   3.448   2.395   4.967 -1.7109  1.1991  0.9353
 2026TIP3   OH2 6041   2.083   4.185   4.222 -0.0463 -0.1697  0.2258
 2026TIP3    H1 6042   2.105   4.122   4.291 -0.6553  0.1897  0.7606
 2026TIP3    H2 6043   2.026   4.249   4.265 -1.7678 -0.8052 -0.9752
 2027TIP3   OH2 6044   2.817   5.394   4.218  0.1164  0.0808 -0.2030
 2027TIP3    H1 6045   2.909   5.388   4.244  0.3271 -0.2413 -0.9862
 2027TIP3    H2 6046   2.770   5.410   4.300  0.7959 -0.4262  0.2983
 2028TIP3   OH2 6047   0.376   1.567   1.663 -0.3847  0.6738 -0.3238
 2028TIP3    H1 6048   0.302   1.529   1.616 -0.8518  1.4758 -0.2543
 2028TIP3    H2 6049   0.453   1.537   1.614 -0.8049  0.5695 -0.9315
 2029TIP3   OH2 6050   0.747   2.359   3.450  0.4463  0.5456 -0.1921
 2029TIP3    H1 6051   0.657   2.327   3.442  0.6732  0.1325 -1.1374
 2029TIP3    H2 6052   0.746   2.411   3.531 -0.1872 -0.9392  0.7874
 2030TIP3   OH2 6053   5.771   6.155   5.741  0.0274 -0.5921 -0.4843
 2030TIP3    H1 6054   5.702   6.220   5.729 -0.4314 -0.1310  3.4438
 2030TIP3    H2 6055   5.746   6.083   5.683 -2.4118  0.5273 -0.9630
 2031TIP3   OH2 6056   2.664   3.288   1.874  0.2159  0.7282  0.0271
 2031TIP3    H1 6057   2.607   3.316   1.946 -4.4443 -0.8311 -2.6099
 2031TIP3    H2 6058   2.674   3.194   1.886  0.3017  0.6262 -0.7624
 2032TIP3   OH2 6059   2.807   6.113   2.165  0.4286 -0.3800 -0.1724
 2032TIP3    H1 6060   2.808   6.045   2.097  1.0453  0.2516 -0.8071
 2032TIP3    H2 6061   2.806   6.195   2.117  0.9993  0.0817  0.5836
 2033TIP3   OH2 6062   6.587   0.846   5.162 -0.1830 -0.3463 -0.5312
 2033TIP3    H1 6063   6.570   0.753   5.152  0.2999 -0.3623 -1.3081
 2033TIP3    H2 6064   6.575   0.863   5.255 -0.0501 -1.2236 -0.3477
 2034TIP3   OH2 6065   6.966   6.712   5.213 -0.2267 -0.0217  0.3216
 2034TIP3    H1 6066   6.897   6.657   5.250  0.6172 -1.5444 -0.2896
 2034TIP3    H2 6067   7.030   6.651   5.178  0.0312  1.3184 -1.7669
 2035TIP3   OH2 6068   3.300   6.110   4.203  0.3643 -0.2046 -0.7352
 2035TIP3    H1 6069   3.317   6.203   4.188 -2.9222  0.2629 -2.3425
 2035TIP3    H2 6070   3.279   6.103   4.296  2.2666  0.2895 -0.2252
 2036TIP3   OH2 6071   2.144   6.326   5.015  0.5565  0.4873 -0.3454
 2036TIP3    H1 6072   2.156   6.324   5.110  1.0757 -0.6078 -0.4064
 2036TIP3    H2 6073   2.076   6.391   5.000 -1.1307 -0.8947  0.9594
 2037TIP3   OH2 6074   2.222   2.403   3.324  0.3304  0.7362 -0.1182
 2037TIP3    H1 6075   2.275   2.481   3.343  0.4197  0.2840  1.6497
 2037TIP3    H2 6076   2.197   2.370   3.410 -0.5296 -0.6402 -0.8725
 2038TIP3   OH2 6077   4.993   5.395   1.228  0.0675 -0.3744  0.5348
 2038TIP3    H1 6078   4.980   5.309   1.188 -0.6561  0.0468 -0.1882
 2038TIP3    H2 6079   4.973   5.457   1.157  0.5175  0.3850  1.0600
 2039TIP3   OH2 6080   2.996   4.577   3.009 -0.1680 -0.1217 -0.1670
 2039TIP3    H1 6081   3.013   4.496   3.058 -0.0445 -0.5434 -0.8947
 2039TIP3    H2 6082   3.083   4.611   2.989 -0.1954 -0.5270 -1.0232
 2040TIP3   OH2 6083   3.858   5.903   0.609  0.7675  0.8201  0.0628
 2040TIP3    H1 6084   3.884   5.826   0.658  2.1559  0.0541 -1.7742
 2040TIP3    H2 6085   3.906   5.975   0.649  1.2503  0.3544  0.3226
 2041TIP3   OH2 6086   6.980   2.965   3.280 -0.2672 -0.2482 -0.0687
 2041TIP3    H1 6087   6.918   2.969   3.207 -0.7544 -0.3365  0.3363
 2041TIP3    H2 6088   6.971   2.876   3.314 -1.1821  0.2533  1.0765
 2042TIP3   OH2 6089   3.408   3.669   1.021 -0.1032 -0.0572  0.0969
 2042TIP3    H1 6090   3.498   3.648   1.046 -0.3247  1.2261  2.1871
 2042TIP3    H2 6091   3.405   3.651   0.927  2.5350  0.5248 -0.1873
 2043TIP3   OH2 6092   6.409   6.014   5.267  0.0827  0.3196  0.0676
 2043TIP3    H1 6093   6.400   6.010   5.362  0.6504  1.1796  0.1649
 2043TIP3    H2 6094   6.499   6.042   5.253  0.7935 -2.1250 -0.7742
 2044TIP3   OH2 6095   5.775   4.847   3.964 -0.2081  0.2782 -0.5765
 2044TIP3    H1 6096   5.870   4.834   3.966 -0.5670 -3.0410  0.9457
 2044TIP3    H2 6097   5.741   4.769   3.921 -2.2701  1.8112 -1.9020
 2045TIP3   OH2 6098   3.870   6.190   2.489 -0.1255  0.4658  0.2558
 2045TIP3    H1 6099   3.866   6.208   2.396  0.8139  1.6136  0.4113
 2045TIP3    H2 6100   3.878   6.095   2.495  0.5083  0.4370 -0.8708
 2046TIP3   OH2 6101   6.448   5.412   1.886  0.0183 -0.0873 -0.2435
 2046TIP3    H1 6102   6.510   5.459   1.942  0.1589 -0.7583  0.1852
 2046TIP3    H2 6103   6.362   5.444   1.913  0.1082 -0.1248  0.1018
 2047TIP3   OH2 6104   6.239   0.667   0.152  0.2753 -0.0398  0.0603
 2047TIP3    H1 6105   6.300   0.740   0.145  0.1603  0.0585  0.0853
 2047TIP3    H2 6106   6.205   0.672   0.242  0.8643 -0.5956  0.3219
 2048TIP3   OH2 6107   0.744   4.159   3.748  0.5300 -0.3889 -0.3127
 2048TIP3    H1 6108   0.839   4.151   3.756  0.6798  0.9751 -0.6149
 2048TIP3    H2 6109   0.730   4.211   3.669 -0.5546 -2.4728 -1.5864
 2049TIP3   OH2 6110   3.616   3.994   5.659  0.3086 -0.2994 -0.1785
 2049TIP3    H1 6111   3.531   4.037   5.650 -0.6792 -2.1378 -0.2195
 2049TIP3    H2 6112   3.637   4.003   5.752  0.4975  0.8852 -0.3198
 2050TIP3   OH2 6113   5.042   3.750   0.066  0.0932 -0.3812  0.3926
 2050TIP3    H1 6114   5.077   3.823   0.117 -0.3340 -0.6885  1.1432
 2050TIP3    H2 6115   5.115   3.720   0.013 -0.2619  1.9379 -1.5367
 2051TIP3   OH2 6116   1.257   1.304   1.972  0.3161 -0.0052  0.3074
 2051TIP3    H1 6117   1.268   1.212   1.995 -0.2645 -0.7280 -2.0533
 2051TIP3    H2 6118   1.187   1.304   1.907  0.2035  2.1319  0.3646
 2052TIP3   OH2 6119   1.274   5.143   2.742 -0.3775 -0.3175  0.0237
 2052TIP3    H1 6120   1.305   5.233   2.730 -1.8575  0.6072  2.5045
 2052TIP3    H2 6121   1.281   5.127   2.836  1.9825 -3.6769 -0.5269
 2053TIP3   OH2 6122   0.570   6.531   3.991 -1.0972 -1.2667 -0.1247
 2053TIP3    H1 6123   0.551   6.501   4.080 -1.6910 -0.3379  0.0657
 2053TIP3    H2 6124   0.499   6.496   3.938 -1.9824  0.0478  0.1558
 2054TIP3   OH2 6125   3.678   2.401   5.886 -0.5412 -0.2728  0.7004
 2054TIP3    H1 6126   3.699   2.308   5.880  0.7212  0.0552 -0.6006
 2054TIP3    H2 6127   3.635   2.421   5.803  1.0882  0.7147  0.0487
 2055TIP3   OH2 6128   0.706   4.923   5.003  0.2536 -0.6028  0.8334
 2055TIP3    H1 6129   0.646   4.901   5.073 -0.9923  0.6136  0.1948
 2055TIP3    H2 6130   0.721   5.017   5.012  0.2982 -0.4758 -0.3203
 2056TIP3   OH2 6131   2.128   3.921   1.200  0.0834  1.3490  0.0027
 2056TIP3    H1 6132   2.107   3.921   1.107  1.0909  0.0337 -0.2627
 2056TIP3    H2 6133   2.185   3.996   1.212  0.0892  1.4244 -0.4735
 2057TIP3   OH2 6134   0.227   6.418   3.328  0.3849 -0.7365  0.2984
 2057TIP3    H1 6135   0.198   6.499   3.285  1.7483 -0.6327 -0.5262
 2057TIP3    H2 6136   0.162   6.401   3.396 -0.8910  0.0847 -0.6697
 2058TIP3   OH2 6137   1.141   5.018   5.508 -0.5507  0.8056 -0.2883
 2058TIP3    H1 6138   1.094   4.994   5.428  0.6079 -1.3774 -0.3586
 2058TIP3    H2 6139   1.176   5.106   5.489 -0.8272  0.5974 -1.9340
 2059TIP3   OH2 6140   2.720   4.678   0.446  0.0818  0.6276  0.2287
 2059TIP3    H1 6141   2.640   4.657   0.495 -0.5346  0.2680 -0.8936
 2059TIP3    H2 6142   2.787   4.686   0.513 -0.6859 -0.0970  1.1160
 2060TIP3   OH2 6143   2.764   3.636   1.518 -0.1594 -0.7223  0.6949
 2060TIP3    H1 6144   2.766   3.727   1.487 -3.7256 -1.8264 -3.9465
 2060TIP3    H2 6145   2.679   3.628   1.562 -0.0625 -1.8759  0.7071
 2061TIP3   OH2 6146   5.226   1.438   0.384 -0.2817 -0.3120  0.5564
 2061TIP3    H1 6147   5.286   1.462   0.454 -0.3746  0.9144  0.2376
 2061TIP3    H2 6148   5.159   1.384   0.427 -0.0131 -0.0700  1.2904
 2062TIP3   OH2 6149   4.667   1.236   1.201  0.0555 -0.1487 -0.1035
 2062TIP3    H1 6150   4.626   1.278   1.126 -0.2542 -1.6499 -0.8143
 2062TIP3    H2 6151   4.707   1.157   1.166  1.1551 -0.1583  1.0748
 2063TIP3   OH2 6152   0.342   2.812   1.676  0.1324 -0.8156  0.3756
 2063TIP3    H1 6153   0.421   2.832   1.626 -0.0782 -0.3467  0.2299
 2063TIP3    H2 6154   0.297   2.745   1.624 -1.8112  2.0314 -1.8920
 2064TIP3   OH2 6155   1.419   2.717   5.047 -0.2939 -0.3408  0.3241
 2064TIP3    H1 6156   1.442   2.728   5.139 -0.4164  0.6482  0.2469
 2064TIP3    H2 6157   1.483   2.654   5.014  1.6197  1.4659  0.3931
 2065TIP3   OH2 6158   5.855   1.099   2.649 -0.6113  0.4889  0.8203
 2065TIP3    H1 6159   5.762   1.113   2.670 -0.3057  1.8825  1.2899
 2065TIP3    H2 6160   5.903   1.145   2.717  0.4593 -0.6351  0.8646
 2066TIP3   OH2 6161   4.532   6.379   0.066  0.1582 -0.1769 -0.0680
 2066TIP3    H1 6162   4.498   6.354   0.153  1.2766 -1.0048  0.1543
 2066TIP3    H2 6163   4.606   6.437   0.085 -0.4761  0.8081 -0.5230
 2067TIP3   OH2 6164   5.396   0.669   3.726  0.8340  0.0815 -0.0491
 2067TIP3    H1 6165   5.378   0.756   3.692  0.0600  0.3236  0.9119
 2067TIP3    H2 6166   5.463   0.683   3.794  1.3737 -0.2031 -0.5157
 2068TIP3   OH2 6167   1.632   0.489   4.630  0.0307 -0.2908 -1.0788
 2068TIP3    H1 6168   1.691   0.535   4.690  0.3247 -0.5926 -1.1418
 2068TIP3    H2 6169   1.673   0.405   4.614 -1.5428 -1.4940  0.7483
 2069TIP3   OH2 6170   2.435   0.147   0.054  0.1669  0.2991  0.4428
 2069TIP3    H1 6171   2.514   0.185   0.092  1.3069 -1.8660  0.3701
 2069TIP3    H2 6172   2.388   0.110   0.129  1.8397 -2.9337  0.0630
 2070TIP3   OH2 6173   2.741   0.030   1.248  0.1387  0.5592  0.3925
 2070TIP3    H1 6174   2.793   0.104   1.216 -0.0625  0.9399  0.9136
 2070TIP3    H2 6175   2.699   0.064   1.328 -2.5707  1.0123 -1.0849
 2071TIP3   OH2 6176   0.021   2.418   5.565  0.5846  0.5677 -0.0057
 2071TIP3    H1 6177   0.097   2.468   5.536  1.1099 -1.3016 -2.1034
 2071TIP3    H2 6178   0.055   2.331   5.584 -0.4600  0.6417  2.7234
 2072TIP3   OH2 6179   1.907   2.146   2.864  0.4637 -0.7355 -0.6602
 2072TIP3    H1 6180   1.919   2.118   2.955 -0.6598  0.7725 -0.0159
 2072TIP3    H2 6181   1.813   2.156   2.854  0.5613 -1.0477 -2.0689
 2073TIP3   OH2 6182   3.730   5.606   5.355  0.7055  0.0641 -0.0588
 2073TIP3    H1 6183   3.759   5.655   5.278  0.1714  1.6147  0.6814
 2073TIP3    H2 6184   3.803   5.549   5.377  1.7808  1.2916 -0.3461
 2074TIP3   OH2 6185   1.770   6.052   3.345  0.0431 -0.1463 -0.1570
 2074TIP3    H1 6186   1.705   6.056   3.416  0.8481 -0.4355  0.6127
 2074TIP3    H2 6187   1.723   6.013   3.271 -0.5250 -0.8031  0.5417
 2075TIP3   OH2 6188   3.161   0.528   0.784 -0.2707 -0.2527 -0.1946
 2075TIP3    H1 6189   3.103   0.461   0.821 -1.1362  0.8794  0.5458
 2075TIP3    H2 6190   3.235   0.478   0.749 -0.6474 -1.5580  0.7860
 2076TIP3   OH2 6191   4.093   6.119   0.138  0.2895 -0.3421 -0.1781
 2076TIP3    H1 6192   4.108   6.212   0.157 -1.9955  0.1007 -0.3477
 2076TIP3    H2 6193   4.180   6.086   0.115  1.0482  1.9097 -0.8197
 2077TIP3   OH2 6194   0.205   6.006   0.375 -0.2750  0.2297 -0.3858
 2077TIP3    H1 6195   0.208   6.061   0.453 -0.5327  1.9927 -1.5670
 2077TIP3    H2 6196   0.297   5.990   0.353 -0.1974  0.2763 -0.0927
 2078TIP3   OH2 6197   2.396   1.198   2.561 -0.0348 -0.2865  0.0005
 2078TIP3    H1 6198   2.368   1.235   2.478  1.2143  3.0701  0.9150
 2078TIP3    H2 6199   2.483   1.161   2.543 -0.4559 -1.0445 -0.5107
 2079TIP3   OH2 6200   4.685   4.344   0.413  0.1318  0.0184  0.1837
 2079TIP3    H1 6201   4.771   4.302   0.418 -0.2431 -0.9453 -0.9410
 2079TIP3    H2 6202   4.634   4.301   0.482 -0.3743 -1.7700 -1.2228
 2080TIP3   OH2 6203   1.871   1.105   3.801  0.3024  0.1064  0.0948
 2080TIP3    H1 6204   1.861   1.076   3.891 -1.5644  0.3097 -0.0121
 2080TIP3    H2 6205   1.931   1.179   3.806  1.2017 -0.6501  0.9844
 2081TIP3   OH2 6206   1.250   5.892   0.441  0.3124 -0.3096 -0.2196
 2081TIP3    H1 6207   1.309   5.961   0.411  0.8141 -1.5774 -2.4338
 2081TIP3    H2 6208   1.292   5.857   0.519 -0.8310  2.9005  2.0530
 2082TIP3   OH2 6209   4.104   5.076   0.480  0.1093  0.2694  0.2898
 2082TIP3    H1 6210   4.091   5.132   0.556  0.2133  1.3015 -0.4268
 2082TIP3    H2 6211   4.119   4.989   0.516 -0.1232  0.6887  1.4304
 2083TIP3   OH2 6212   4.301   1.405   3.454  0.0071  1.0232 -0.2946
 2083TIP3    H1 6213   4.274   1.436   3.367  1.1533  1.1256 -0.6329
 2083TIP3    H2 6214   4.223   1.363   3.490 -0.4417  0.8377 -1.4431
 2084TIP3   OH2 6215   6.356   6.491   1.103  0.4356 -0.2300 -0.5431
 2084TIP3    H1 6216   6.425   6.558   1.097 -1.4904  2.0229  0.5303
 2084TIP3    H2 6217   6.338   6.484   1.196 -0.8163 -0.7375 -0.8059
 2085TIP3   OH2 6218   3.991   5.188   2.482  0.9027 -0.2130  0.4201
 2085TIP3    H1 6219   4.002   5.196   2.577 -0.2315  0.5542  0.5045
 2085TIP3    H2 6220   4.080   5.176   2.449  1.2044 -1.8766  1.6833
 2086TIP3   OH2 6221   5.255   2.061   5.389 -0.1410  0.0276 -0.0771
 2086TIP3    H1 6222   5.246   2.069   5.484 -0.7593  1.2886 -0.2123
 2086TIP3    H2 6223   5.339   2.104   5.369 -1.5780  2.9115 -0.3959
 2087TIP3   OH2 6224   2.076   4.387   2.364  0.6428 -0.4733  0.5931
 2087TIP3    H1 6225   2.108   4.474   2.389 -0.1264 -0.0438  0.1148
 2087TIP3    H2 6226   1.983   4.389   2.383 -0.1006  0.0290 -2.5091
 2088TIP3   OH2 6227   0.506   3.422   2.445  0.2376  0.0925 -0.1169
 2088TIP3    H1 6228   0.526   3.515   2.432 -0.6297  0.2827 -0.1363
 2088TIP3    H2 6229   0.465   3.418   2.531 -1.6658  0.0553 -0.9728
 2089TIP3   OH2 6230   3.559   5.255   1.580  0.4225  0.3744 -0.5090
 2089TIP3    H1 6231   3.600   5.327   1.532  1.5161 -0.2871 -0.6027
 2089TIP3    H2 6232   3.632   5.207   1.619 -0.4026  0.4006  1.1319
 2090TIP3   OH2 6233   4.366   6.716   4.349  0.5573  0.2097 -0.1688
 2090TIP3    H1 6234   4.351   6.673   4.434  0.7411 -0.5098 -0.4943
 2090TIP3    H2 6235   4.279   6.734   4.316  0.4748  1.9115  0.8631
 2091TIP3   OH2 6236   2.748   3.900   1.826  0.7258  0.3796  0.1917
 2091TIP3    H1 6237   2.778   3.937   1.908 -1.9207  1.3520  0.8108
 2091TIP3    H2 6238   2.656   3.876   1.842 -0.3966  2.0779 -2.8604
 2092TIP3   OH2 6239   4.932   3.130   1.969  0.0444 -0.4217 -0.3509
 2092TIP3    H1 6240   4.901   3.178   2.046  0.8620 -1.3236  0.5798
 2092TIP3    H2 6241   4.914   3.038   1.990  3.4352 -1.0585  0.3906
 2093TIP3   OH2 6242   2.921   6.687   3.586  0.1924 -0.1633  0.9112
 2093TIP3    H1 6243   2.835   6.660   3.617 -1.1204  1.1413 -1.3444
 2093TIP3    H2 6244   2.981   6.660   3.655 -1.8754 -2.0536  2.0797
 2094TIP3   OH2 6245   6.448   4.347   5.604  0.1502  0.2583  0.0491
 2094TIP3    H1 6246   6.497   4.328   5.524  1.2852  0.4932  0.6520
 2094TIP3    H2 6247   6.515   4.382   5.664 -0.5661 -0.4187  1.2721
 2095TIP3   OH2 6248   3.772   6.159   2.250 -0.3417 -0.5340  0.6072
 2095TIP3    H1 6249   3.789   6.104   2.173  1.8050  2.4818 -1.3007
 2095TIP3    H2 6250   3.680   6.185   2.240 -0.1747 -0.3871 -0.8749
 2096TIP3   OH2 6251   1.242   4.214   0.809  0.2613  0.4476 -0.2723
 2096TIP3    H1 6252   1.269   4.237   0.898  0.9769  1.0293 -0.6344
 2096TIP3    H2 6253   1.318   4.170   0.772 -0.2755 -0.4043 -0.3792
 2097TIP3   OH2 6254   5.288   6.399   1.461  0.3965  0.2098  0.8197
 2097TIP3    H1 6255   5.219   6.349   1.505  0.2295  0.5771  0.9810
 2097TIP3    H2 6256   5.364   6.340   1.460 -0.0768 -0.3994  0.1459
 2098TIP3   OH2 6257   3.621   1.323   5.279  0.0130 -0.3251  0.4100
 2098TIP3    H1 6258   3.536   1.306   5.321  0.4413  0.2849  1.5575
 2098TIP3    H2 6259   3.598   1.345   5.189 -1.2300  1.7112  1.1586
 2099TIP3   OH2 6260   2.712   4.180   1.892 -0.3209 -0.3508  0.3347
 2099TIP3    H1 6261   2.678   4.136   1.971  0.7869  0.0524  1.0556
 2099TIP3    H2 6262   2.807   4.170   1.898 -0.2325 -0.7955 -1.2553
 2100TIP3   OH2 6263   2.766   5.635   0.550 -0.4635  0.2378  0.0507
 2100TIP3    H1 6264   2.782   5.729   0.564 -1.8681  0.4990  0.0768
 2100TIP3    H2 6265   2.798   5.619   0.461 -2.7314  1.4429 -1.0928
 2101TIP3   OH2 6266   5.627   6.147   2.173 -0.5981 -0.5814  0.0055
 2101TIP3    H1 6267   5.634   6.058   2.139 -0.9663 -0.6520  0.1062
 2101TIP3    H2 6268   5.573   6.138   2.252  2.0094 -0.7822  1.9189
 2102TIP3   OH2 6269   6.966   0.877   0.683 -0.7735  0.0188  0.2238
 2102TIP3    H1 6270   6.900   0.848   0.746 -0.3705  1.3387  1.2950
 2102TIP3    H2 6271   6.928   0.956   0.644 -0.0415  0.5363  0.5300
 2103TIP3   OH2 6272   4.312   3.993   2.221  0.4363  0.1041  0.0098
 2103TIP3    H1 6273   4.322   4.056   2.293 -1.8997 -0.4755  0.9350
 2103TIP3    H2 6274   4.249   4.035   2.161 -0.4345 -0.9371  0.1775
 2104TIP3   OH2 6275   4.558   4.750   2.916  0.0541 -0.3236  0.4814
 2104TIP3    H1 6276   4.485   4.688   2.924  0.6810 -1.1956 -0.2693
 2104TIP3    H2 6277   4.571   4.758   2.821  1.4428 -0.8150  0.6095
 2105TIP3   OH2 6278   1.095   5.673   0.545  0.2313  0.0234  0.0584
 2105TIP3    H1 6279   1.044   5.732   0.600 -0.5641 -0.1408 -0.4739
 2105TIP3    H2 6280   1.165   5.727   0.510 -0.1360  0.5019  0.0538
 2106TIP3   OH2 6281   1.511   2.014   1.483  0.1290  0.4546 -0.6224
 2106TIP3    H1 6282   1.551   1.959   1.551 -2.4330 -0.0834  0.6229
 2106TIP3    H2 6283   1.485   1.952   1.415 -0.1700  0.5137 -0.5658
 2107TIP3   OH2 6284   1.928   3.454   3.872  0.5552 -0.4469 -0.3995
 2107TIP3    H1 6285   1.977   3.470   3.953  1.8688 -2.2892 -0.7809
 2107TIP3    H2 6286   1.859   3.393   3.897 -0.0139  0.1967 -0.3742
 2108TIP3   OH2 6287   4.092   5.221   4.466  0.2718 -0.4192  0.0346
 2108TIP3    H1 6288   4.155   5.184   4.405 -0.2355 -0.3573 -0.5405
 2108TIP3    H2 6289   4.019   5.159   4.467  0.2382 -0.3766  0.5102
 2109TIP3   OH2 6290   4.207   1.265   2.797 -0.5192  0.1619 -0.1274
 2109TIP3    H1 6291   4.137   1.227   2.850 -0.4686  0.2308 -0.0103
 2109TIP3    H2 6292   4.287   1.224   2.831 -0.5877 -0.6149 -0.8825
 2110TIP3   OH2 6293   3.951   5.218   4.168 -0.4192 -0.2469 -0.6202
 2110TIP3    H1 6294   4.009   5.287   4.199 -0.5044 -0.8719  0.9971
 2110TIP3    H2 6295   3.992   5.187   4.087  0.6376  0.4144 -0.3602
 2111TIP3   OH2 6296   5.899   6.075   2.016 -0.1782 -0.6189 -0.1181
 2111TIP3    H1 6297   5.985   6.051   2.052 -0.0381 -0.3424 -0.2662
 2111TIP3    H2 6298   5.840   6.008   2.049  0.1086 -0.8499 -0.0693
 2112TIP3   OH2 6299   3.258   5.439   2.343  0.3078 -0.0902 -0.4445
 2112TIP3    H1 6300   3.163   5.440   2.328  0.3212 -2.3307 -1.0635
 2112TIP3    H2 6301   3.273   5.510   2.406 -2.1024 -1.0715  1.3947
 2113TIP3   OH2 6302   3.046   4.725   5.391 -0.0899  0.3962 -0.3195
 2113TIP3    H1 6303   3.001   4.684   5.465 -2.2399  0.0183 -1.7358
 2113TIP3    H2 6304   3.013   4.815   5.391  2.4121  1.4097  1.0581
 2114TIP3   OH2 6305   5.656   3.875   1.843 -0.6507  0.3054 -0.0283
 2114TIP3    H1 6306   5.584   3.854   1.784 -1.8580 -0.8033  1.7409
 2114TIP3    H2 6307   5.661   3.971   1.842 -0.8886  0.3269 -1.5720
 2115TIP3   OH2 6308   4.963   3.065   2.498  0.1438  0.4227  0.0326
 2115TIP3    H1 6309   4.891   3.126   2.481 -1.2808 -1.1380  0.1766
 2115TIP3    H2 6310   4.965   3.058   2.594 -1.1156 -1.2710 -0.0102
 2116TIP3   OH2 6311   0.951   4.685   0.252 -0.2006  0.0487 -0.4501
 2116TIP3    H1 6312   0.960   4.594   0.278  0.4219  0.6373  1.5629
 2116TIP3    H2 6313   1.032   4.727   0.280  0.2107  0.9617 -2.7360
 2117TIP3   OH2 6314   0.368   2.188   1.728 -0.3020  0.3548 -0.2995
 2117TIP3    H1 6315   0.385   2.229   1.813 -1.3717  0.3380 -0.0635
 2117TIP3    H2 6316   0.454   2.180   1.688  0.1860  0.6509  0.6532
 2118TIP3   OH2 6317   4.899   1.670   1.325 -0.3365 -0.4420 -0.4319
 2118TIP3    H1 6318   4.949   1.730   1.270  2.0951 -0.6978  1.3431
 2118TIP3    H2 6319   4.902   1.587   1.277 -0.6724 -0.0205 -1.2090
 2119TIP3   OH2 6320   6.929   0.703   4.543  0.4359  0.3810  0.0039
 2119TIP3    H1 6321   6.849   0.724   4.495  1.2338  0.2155 -1.4662
 2119TIP3    H2 6322   6.902   0.638   4.608 -0.6931  0.6308 -0.1988
 2120TIP3   OH2 6323   3.474   1.516   5.504  0.1889 -0.0645 -0.0593
 2120TIP3    H1 6324   3.443   1.429   5.478  1.5550 -0.4275 -0.5586
 2120TIP3    H2 6325   3.561   1.501   5.540  1.0763  1.2488 -1.5266
 2121TIP3   OH2 6326   1.630   1.423   3.486 -0.0313 -0.7822 -0.1745
 2121TIP3    H1 6327   1.638   1.328   3.484 -1.8519 -0.9940  0.0719
 2121TIP3    H2 6328   1.591   1.445   3.402  1.9645 -0.0241 -0.9485
 2122TIP3   OH2 6329   6.516   0.690   1.390 -0.1453  0.2316 -0.6236
 2122TIP3    H1 6330   6.558   0.639   1.459 -1.7594 -0.1301  0.1555
 2122TIP3    H2 6331   6.504   0.629   1.318  1.0980  0.4771 -1.0541
 2123TIP3   OH2 6332   6.031   3.837   5.538  0.3310  0.2129 -0.3969
 2123TIP3    H1 6333   6.106   3.839   5.479  0.0892 -0.3310 -0.7250
 2123TIP3    H2 6334   5.970   3.901   5.502 -0.0760 -0.5496 -1.0962
 2124TIP3   OH2 6335   2.776   2.859   4.998  0.3105 -0.3342  0.0255
 2124TIP3    H1 6336   2.780   2.837   4.905 -0.0292 -1.1106  0.1896
 2124TIP3    H2 6337   2.700   2.810   5.032 -1.1061  1.8377  0.2085
 2125TIP3   OH2 6338   6.657   2.287   2.837  0.5161 -0.1548 -0.0817
 2125TIP3    H1 6339   6.634   2.202   2.800  0.6983  0.3432 -1.3938
 2125TIP3    H2 6340   6.741   2.272   2.880  0.3781 -0.7163  0.0067
 2126TIP3   OH2 6341   3.810   0.973   1.283  0.0946  0.5835  0.1746
 2126TIP3    H1 6342   3.765   0.933   1.209  0.9288 -1.3212  0.6242
 2126TIP3    H2 6343   3.744   0.978   1.352  0.0218 -0.2624  0.1759
 2127TIP3   OH2 6344   0.729   1.977   1.988  0.4318 -0.2919 -0.3569
 2127TIP3    H1 6345   0.728   1.894   1.941  0.1704 -0.0373 -0.8029
 2127TIP3    H2 6346   0.637   2.001   1.997  0.5053 -0.0603 -0.2042
 2128TIP3   OH2 6347   1.979   5.138   4.920 -0.7165  0.5258  0.0569
 2128TIP3    H1 6348   1.888   5.165   4.936 -0.9827 -0.6496  0.6831
 2128TIP3    H2 6349   2.022   5.216   4.885 -3.0886 -0.0289 -4.9498
 2129TIP3   OH2 6350   4.268   3.362   2.399  0.1790 -0.0716  0.2642
 2129TIP3    H1 6351   4.353   3.333   2.367  0.2302  2.0958 -1.8158
 2129TIP3    H2 6352   4.282   3.382   2.492  1.1684 -2.3082  0.6648
 2130TIP3   OH2 6353   4.877   2.934   5.855 -0.1442 -0.0290  0.4618
 2130TIP3    H1 6354   4.915   2.886   5.781 -0.2090 -0.9272  1.0002
 2130TIP3    H2 6355   4.858   3.021   5.820  0.1902 -0.3233 -0.4702
 2131TIP3   OH2 6356   7.006   1.629   5.146 -0.3200 -0.5296 -0.0644
 2131TIP3    H1 6357   7.059   1.644   5.068 -0.4464  1.4622  0.1770
 2131TIP3    H2 6358   6.927   1.586   5.113 -0.0937 -0.2888 -0.9544
 2132TIP3   OH2 6359   3.516   2.665   0.521 -0.3469 -0.7250 -0.3134
 2132TIP3    H1 6360   3.443   2.693   0.575 -0.3423  0.8587 -1.0720
 2132TIP3    H2 6361   3.558   2.595   0.571 -0.4853  0.5054  1.6188
 2133TIP3   OH2 6362   4.084   5.946   4.160 -0.0715  0.0607 -0.2316
 2133TIP3    H1 6363   4.033   5.865   4.162  0.8676 -0.5401  1.1964
 2133TIP3    H2 6364   4.019   6.015   4.148 -1.0639 -0.7885  0.1271
 2134TIP3   OH2 6365   6.750   1.536   3.190  0.0235 -0.3107  0.0296
 2134TIP3    H1 6366   6.808   1.497   3.255  1.2422 -2.4041 -2.1431
 2134TIP3    H2 6367   6.755   1.476   3.115 -3.9989  0.0911 -0.7606
 2135TIP3   OH2 6368   3.863   2.985   3.071  0.0695 -0.2227 -1.0559
 2135TIP3    H1 6369   3.891   3.019   2.986 -2.0100  1.3777 -1.1697
 2135TIP3    H2 6370   3.899   3.047   3.135  0.7493 -0.8460 -0.8111
 2136TIP3   OH2 6371   0.820   5.086   2.759  0.3815 -0.0984  0.2436
 2136TIP3    H1 6372   0.810   5.104   2.852  1.9712  1.2711  0.1810
 2136TIP3    H2 6373   0.773   5.003   2.746  1.1031 -0.9253  2.4623
 2137TIP3   OH2 6374   5.761   5.199   4.991  0.8400 -0.1843  0.3781
 2137TIP3    H1 6375   5.730   5.219   5.079 -1.9743  2.6227 -1.0252
 2137TIP3    H2 6376   5.821   5.271   4.969 -1.6796  1.6339 -1.2534
 2138TIP3   OH2 6377   2.159   5.986   2.309  0.7432  0.1889 -0.2745
 2138TIP3    H1 6378   2.167   6.082   2.309 -1.2184  0.4415  1.8031
 2138TIP3    H2 6379   2.244   5.955   2.337  0.8505  1.4650  0.9349
 2139TIP3   OH2 6380   6.954   6.117   1.686 -0.5684  0.2273  0.9777
 2139TIP3    H1 6381   6.909   6.118   1.602 -1.0570  0.4549  1.2365
 2139TIP3    H2 6382   6.961   6.024   1.709  0.6690  0.0845  0.1170
 2140TIP3   OH2 6383   2.937   2.626   3.930  0.0768  0.2451 -0.0067
 2140TIP3    H1 6384   2.953   2.568   4.004 -0.9522 -0.1172 -0.0557
 2140TIP3    H2 6385   2.940   2.568   3.853  0.7351  0.5514 -0.2244
 2141TIP3   OH2 6386   3.291   3.122   1.078  0.0627 -0.0456 -0.3212
 2141TIP3    H1 6387   3.264   3.078   1.159 -1.4707  1.2232 -0.0920
 2141TIP3    H2 6388   3.305   3.050   1.016  0.5597 -1.0009  0.8498
 2142TIP3   OH2 6389   3.090   0.355   3.367 -0.0116  0.2094  0.1577
 2142TIP3    H1 6390   3.070   0.348   3.274  0.3749  1.1130 -0.0100
 2142TIP3    H2 6391   3.080   0.266   3.401 -0.8628  0.0014 -0.5967
 2143TIP3   OH2 6392   6.052   0.772   0.990 -0.5092  0.8424 -0.2341
 2143TIP3    H1 6393   6.095   0.807   0.912 -0.0081  0.0827 -0.3141
 2143TIP3    H2 6394   6.115   0.710   1.026 -1.6159 -0.4649 -0.4644
 2144TIP3   OH2 6395   2.039   5.239   3.494 -0.3242  0.1256  0.0501
 2144TIP3    H1 6396   2.106   5.305   3.477  0.8428 -0.5600  1.7871
 2144TIP3    H2 6397   1.960   5.290   3.511  0.0592  0.9883 -0.6264
 2145TIP3   OH2 6398   5.044   5.463   5.209 -0.1020 -0.1888  0.4183
 2145TIP3    H1 6399   5.003   5.549   5.219 -1.3035 -0.6632 -0.1638
 2145TIP3    H2 6400   5.010   5.430   5.125  0.3825 -1.2018  0.6086
 2146TIP3   OH2 6401   2.857   1.781   5.443 -0.0768  0.6138  0.7406
 2146TIP3    H1 6402   2.864   1.722   5.368  0.4636 -0.7733  1.8340
 2146TIP3    H2 6403   2.815   1.859   5.409 -0.3895 -0.2262 -0.8678
 2147TIP3   OH2 6404   4.442   5.160   5.729 -0.0816 -0.1973  0.5015
 2147TIP3    H1 6405   4.357   5.201   5.742  0.7120  1.1764  1.5549
 2147TIP3    H2 6406   4.436   5.118   5.643 -1.3945  0.9259  0.0257
 2148TIP3   OH2 6407   6.066   3.372   2.885  0.3103  0.0183 -0.6582
 2148TIP3    H1 6408   6.094   3.436   2.951  1.0965  1.1665 -2.0341
 2148TIP3    H2 6409   5.972   3.387   2.876  0.1809 -0.1848  0.2100
 2149TIP3   OH2 6410   2.115   0.400   4.067  0.4929 -0.3407 -0.2170
 2149TIP3    H1 6411   2.079   0.340   4.132  2.1466 -0.2309  0.8482
 2149TIP3    H2 6412   2.106   0.487   4.106 -1.0453  0.0595 -1.3623
 2150TIP3   OH2 6413   6.335   3.733   3.445 -0.4241 -0.4601  0.2051
 2150TIP3    H1 6414   6.399   3.764   3.509 -1.8452  0.9668  1.0107
 2150TIP3    H2 6415   6.252   3.766   3.477 -2.0599 -4.4792  0.6832
 2151TIP3   OH2 6416   6.333   2.936   3.415  0.2830  0.2011 -0.0055
 2151TIP3    H1 6417   6.410   2.880   3.413  0.8920  0.8015  2.4637
 2151TIP3    H2 6418   6.362   3.019   3.377 -0.1554 -0.5666 -2.1393
 2152TIP3   OH2 6419   2.635   3.916   4.481  0.6056 -0.4560  0.5474
 2152TIP3    H1 6420   2.696   3.988   4.499  1.1265 -0.9015  0.5576
 2152TIP3    H2 6421   2.630   3.912   4.385  0.9239 -0.6991  0.5406
 2153TIP3   OH2 6422   1.534   6.120   1.292 -0.4866  0.0204 -0.1178
 2153TIP3    H1 6423   1.627   6.121   1.314 -0.4506 -2.6973  0.1741
 2153TIP3    H2 6424   1.519   6.205   1.249  1.6508  1.3385  1.5111
 2154TIP3   OH2 6425   1.485   4.812   0.633 -0.5472 -0.2235  0.4056
 2154TIP3    H1 6426   1.413   4.752   0.649 -0.5391 -0.1157  0.8726
 2154TIP3    H2 6427   1.446   4.899   0.638 -1.1258 -0.1499 -2.9457
 2155TIP3   OH2 6428   3.072   5.586   5.027  0.3656 -0.5254 -0.2992
 2155TIP3    H1 6429   3.151   5.604   4.976 -0.0264  0.3760 -0.6077
 2155TIP3    H2 6430   3.102   5.579   5.117  0.8235 -0.3354 -0.4343
 2156TIP3   OH2 6431   3.915   1.959   4.336  0.1001  0.3675 -0.2156
 2156TIP3    H1 6432   3.932   2.007   4.254 -1.3430  0.2885 -0.5894
 2156TIP3    H2 6433   3.821   1.969   4.350  0.1519 -0.5332  0.8780
 2157TIP3   OH2 6434   3.626   6.097   1.049  0.6038  0.3905  0.7285
 2157TIP3    H1 6435   3.662   6.066   0.967  1.6208  0.9696  0.9491
 2157TIP3    H2 6436   3.546   6.045   1.062 -0.2175  1.0938 -1.1850
 2158TIP3   OH2 6437   1.182   5.582   2.665  0.6982 -0.3289 -1.0651
 2158TIP3    H1 6438   1.174   5.617   2.754  2.1531  0.7672 -1.3333
 2158TIP3    H2 6439   1.149   5.492   2.672 -1.3561  0.4433  0.0635
 2159TIP3   OH2 6440   4.960   5.522   1.862  0.5430  0.0480 -0.1449
 2159TIP3    H1 6441   4.906   5.448   1.836  0.0716  1.0043 -2.0707
 2159TIP3    H2 6442   5.001   5.552   1.781 -0.1748  2.5713  0.3123
 2160TIP3   OH2 6443   1.132   2.904   3.494  0.2981  0.9023 -0.0059
 2160TIP3    H1 6444   1.113   2.979   3.437  1.2929  0.3059 -1.1558
 2160TIP3    H2 6445   1.208   2.862   3.454  0.0876 -0.4187  0.9232
 2161TIP3   OH2 6446   2.664   1.740   2.733  0.6845  0.0144  0.1648
 2161TIP3    H1 6447   2.655   1.834   2.751  1.5068  0.3954 -1.2692
 2161TIP3    H2 6448   2.705   1.736   2.647  0.6882 -1.6779  0.2156
 2162TIP3   OH2 6449   3.609   5.731   0.071  0.2663 -0.7556 -0.0147
 2162TIP3    H1 6450   3.695   5.707   0.037 -0.3222 -2.1469 -0.6276
 2162TIP3    H2 6451   3.581   5.654   0.121 -0.8378 -0.5525 -0.2850
 2163TIP3   OH2 6452   7.136   1.790   1.453 -0.0628  0.4284 -0.4841
 2163TIP3    H1 6453   7.133   1.845   1.531 -0.5118 -0.0932 -0.1267
 2163TIP3    H2 6454   7.069   1.828   1.396 -0.4912  0.1533 -0.1684
 2164TIP3   OH2 6455   2.486   3.034   1.702  0.1621  0.2993 -0.2708
 2164TIP3    H1 6456   2.486   3.129   1.696 -0.1487  0.3114 -0.1092
 2164TIP3    H2 6457   2.512   3.015   1.792  0.0408  0.2362 -0.2486
 2165TIP3   OH2 6458   3.643   0.785   0.250 -0.0739 -0.0685 -0.3964
 2165TIP3    H1 6459   3.662   0.878   0.241  1.1113 -0.2444  0.0931
 2165TIP3    H2 6460   3.604   0.760   0.166  1.5741  0.4234 -1.3493
 2166TIP3   OH2 6461   6.295   3.974   0.315  0.2321  0.0782  0.4896
 2166TIP3    H1 6462   6.302   3.905   0.249  2.7985 -1.4575  2.1524
 2166TIP3    H2 6463   6.337   4.050   0.275  0.4441 -0.3770 -0.1774
 2167TIP3   OH2 6464   1.173   1.431   3.942 -0.1910 -0.6616 -0.0672
 2167TIP3    H1 6465   1.171   1.344   3.982  3.0213 -1.0855 -0.5654
 2167TIP3    H2 6466   1.209   1.416   3.854 -0.8936  1.0210 -0.6846
 2168TIP3   OH2 6467   2.917   3.957   2.780 -0.3206 -0.6837  0.8025
 2168TIP3    H1 6468   2.937   4.017   2.852  1.4216 -0.2692  0.0116
 2168TIP3    H2 6469   2.967   3.878   2.800  0.2278 -0.5409  0.0143
 2169TIP3   OH2 6470   6.381   1.297   0.260 -0.2201  0.0999  0.5270
 2169TIP3    H1 6471   6.373   1.328   0.170  0.5294 -0.8582  0.1097
 2169TIP3    H2 6472   6.476   1.287   0.273 -0.3962 -1.3663  0.8387
 2170TIP3   OH2 6473   0.428   4.976   4.184  0.2881  0.3718 -1.0292
 2170TIP3    H1 6474   0.448   5.069   4.194  0.6934  0.1032  1.2892
 2170TIP3    H2 6475   0.335   4.970   4.209  0.5718  0.0342  0.0077
 2171TIP3   OH2 6476   3.110   6.569   3.220 -0.0233 -0.0949  0.8005
 2171TIP3    H1 6477   3.079   6.651   3.259 -0.4581  0.1480 -0.0313
 2171TIP3    H2 6478   3.205   6.578   3.214 -0.2010  1.0452 -0.7967
 2172TIP3   OH2 6479   2.535   6.463   0.844 -0.0305 -0.0806  0.5294
 2172TIP3    H1 6480   2.534   6.506   0.759 -2.4847  0.8363  0.9328
 2172TIP3    H2 6481   2.565   6.374   0.825  0.7005  0.4671 -1.0586
 2173TIP3   OH2 6482   0.813   5.320   1.087 -0.3531  0.1046 -0.1813
 2173TIP3    H1 6483   0.824   5.393   1.025 -0.7017 -0.6875 -1.2171
 2173TIP3    H2 6484   0.888   5.327   1.146  0.0988  0.7805 -0.8113
 2174TIP3   OH2 6485   1.609   3.724   2.417 -0.1171 -0.4242 -0.3202
 2174TIP3    H1 6486   1.666   3.702   2.344  0.9618 -0.7641  0.5872
 2174TIP3    H2 6487   1.544   3.653   2.418 -1.0153  0.3413 -1.7895
 2175TIP3   OH2 6488   2.187   2.861   5.660  0.2599 -0.2880  0.1992
 2175TIP3    H1 6489   2.117   2.801   5.633  0.2686 -0.3150  0.2357
 2175TIP3    H2 6490   2.232   2.814   5.730 -0.5822  0.3358  1.1837
 2176TIP3   OH2 6491   3.407   0.756   1.909  0.3388  0.0135 -0.0295
 2176TIP3    H1 6492   3.403   0.830   1.969  0.5487 -0.4562  0.5741
 2176TIP3    H2 6493   3.422   0.680   1.965  1.1955 -0.3528 -0.7340
 2177TIP3   OH2 6494   3.466   2.277   4.097 -0.3517 -0.3332  0.2562
 2177TIP3    H1 6495   3.423   2.363   4.097 -1.3454 -0.7910  1.3055
 2177TIP3    H2 6496   3.393   2.214   4.094  0.3499 -1.1412 -0.2854
 2178TIP3   OH2 6497   1.282   5.487   1.171  0.3842 -0.1490 -0.3716
 2178TIP3    H1 6498   1.358   5.477   1.228  1.4640 -1.1104 -1.9151
 2178TIP3    H2 6499   1.271   5.582   1.162  1.1681  0.0034  0.1697
 2179TIP3   OH2 6500   6.026   4.180   5.544 -0.4451 -0.1349  0.2035
 2179TIP3    H1 6501   5.979   4.114   5.493 -0.1456  1.3902 -2.2509
 2179TIP3    H2 6502   5.962   4.210   5.609 -0.8539 -2.1694  0.7843
 2180TIP3   OH2 6503   3.258   2.932   5.726 -0.4827 -0.7009 -0.0030
 2180TIP3    H1 6504   3.344   2.935   5.683 -0.1158  0.2619  0.7493
 2180TIP3    H2 6505   3.240   2.838   5.737 -0.0102 -0.9341 -1.0965
 2181TIP3   OH2 6506   6.907   3.898   5.819  0.2726 -0.5562  0.1261
 2181TIP3    H1 6507   6.955   3.963   5.869 -0.8872 -0.0326  0.6102
 2181TIP3    H2 6508   6.974   3.838   5.786  1.1745 -0.2597  1.3433
 2182TIP3   OH2 6509   2.983   6.387   2.741  0.0235 -0.3472  0.4734
 2182TIP3    H1 6510   2.985   6.447   2.816  0.0255  0.8921 -0.5049
 2182TIP3    H2 6511   3.069   6.394   2.702  0.2012 -1.4013  0.6428
 2183TIP3   OH2 6512   3.977   1.660   3.752 -0.2002  0.1038  0.0963
 2183TIP3    H1 6513   3.971   1.589   3.687 -0.0669 -0.8248  1.0600
 2183TIP3    H2 6514   3.965   1.616   3.836  1.8583  0.8878  0.8837
 2184TIP3   OH2 6515   2.546   4.926   4.892 -0.0866 -0.7903  0.1843
 2184TIP3    H1 6516   2.553   4.934   4.987  0.2142  1.1527  0.0395
 2184TIP3    H2 6517   2.457   4.955   4.873  0.2131 -0.1038 -0.2040
 2185TIP3   OH2 6518   0.802   0.184   2.208 -0.1699  0.4886  0.4939
 2185TIP3    H1 6519   0.759   0.171   2.123 -1.8874 -1.3235  1.5516
 2185TIP3    H2 6520   0.747   0.247   2.254 -0.1147  0.3178  0.8019
 2186TIP3   OH2 6521   5.424   6.776   5.027 -0.2646 -0.1241  0.0708
 2186TIP3    H1 6522   5.507   6.787   4.981 -0.5923  1.0651 -0.2569
 2186TIP3    H2 6523   5.386   6.697   4.988 -0.5995  0.9174 -1.8561
 2187TIP3   OH2 6524   1.448   4.358   3.929  0.1319 -0.0910  0.0691
 2187TIP3    H1 6525   1.479   4.295   3.863  4.3787  0.4916  1.2349
 2187TIP3    H2 6526   1.416   4.303   4.001 -2.5378 -0.7258 -1.4672
 2188TIP3   OH2 6527   0.705   1.948   5.714  0.3811 -0.2290 -0.1569
 2188TIP3    H1 6528   0.623   1.906   5.691  0.3814 -1.0821  1.3114
 2188TIP3    H2 6529   0.680   2.026   5.763  0.4400 -0.1523 -0.2476
 2189TIP3   OH2 6530   4.894   1.193   5.671  0.0795  0.4303 -0.4125
 2189TIP3    H1 6531   4.820   1.230   5.719 -0.3434 -2.0480  1.0318
 2189TIP3    H2 6532   4.859   1.173   5.584  0.0359  2.2774 -0.8653
 2190TIP3   OH2 6533   4.479   2.712   2.025  0.4495  0.1858 -0.2764
 2190TIP3    H1 6534   4.574   2.720   2.012  0.6182  0.2058  0.8644
 2190TIP3    H2 6535   4.470   2.690   2.118 -0.6241 -0.6455 -0.5604
 2191TIP3   OH2 6536   4.151   3.809   3.085  0.0235 -0.3647 -0.2468
 2191TIP3    H1 6537   4.102   3.759   3.151 -0.6292  0.4245 -0.1158
 2191TIP3    H2 6538   4.104   3.793   3.003 -1.6077  1.8177  0.1729
 2192TIP3   OH2 6539   0.203   2.557   0.672 -0.3311  0.1105  0.2228
 2192TIP3    H1 6540   0.163   2.534   0.589  2.5288 -0.2554 -1.2041
 2192TIP3    H2 6541   0.239   2.645   0.658  1.1992 -0.4150  0.5926
 2193TIP3   OH2 6542   5.893   4.107   3.795  0.6627 -0.1793 -0.3795
 2193TIP3    H1 6543   5.872   4.015   3.806 -0.4814  0.0849 -0.2718
 2193TIP3    H2 6544   5.816   4.146   3.754  1.7876  0.4100 -2.0796
 2194TIP3   OH2 6545   5.099   1.084   1.031  0.0893  0.2668 -0.1918
 2194TIP3    H1 6546   5.107   1.125   0.945 -0.8198  0.9064  0.0081
 2194TIP3    H2 6547   5.187   1.087   1.068  0.1500  1.5315 -0.4160
 2195TIP3   OH2 6548   2.881   5.407   3.940 -0.0626 -0.2680 -0.3379
 2195TIP3    H1 6549   2.965   5.368   3.965 -0.1235 -0.5890 -0.6350
 2195TIP3    H2 6550   2.838   5.426   4.024  0.1422 -0.4603 -0.1883
 2196TIP3   OH2 6551   6.601   0.588   0.726 -0.3533  0.5784 -0.8500
 2196TIP3    H1 6552   6.628   0.555   0.812  0.7062  0.4421 -1.2231
 2196TIP3    H2 6553   6.526   0.535   0.702 -0.1215  0.0360 -0.3900
 2197TIP3   OH2 6554   1.962   5.751   4.241 -0.1724  0.2291 -0.0909
 2197TIP3    H1 6555   1.871   5.755   4.213  0.5442 -0.7596 -2.8236
 2197TIP3    H2 6556   1.998   5.837   4.218 -0.1713  0.2912  0.1359
 2198TIP3   OH2 6557   5.662   6.217   0.678 -0.0759  0.2023  0.0584
 2198TIP3    H1 6558   5.755   6.234   0.694  0.1796 -0.0768 -1.0250
 2198TIP3    H2 6559   5.622   6.303   0.674  0.2320  0.3464  0.0380
 2199TIP3   OH2 6560   1.331   6.655   4.553  0.0624  0.1375  0.0882
 2199TIP3    H1 6561   1.250   6.642   4.504  0.3383  0.4844 -0.4669
 2199TIP3    H2 6562   1.399   6.612   4.501  0.2929  0.1621  0.3647
 2200TIP3   OH2 6563   6.466   0.635   5.791  0.1369  0.6376  0.3042
 2200TIP3    H1 6564   6.385   0.685   5.801 -1.0463 -1.4134  1.5337
 2200TIP3    H2 6565   6.523   0.693   5.741 -1.4150  2.8903  0.9697
 2201TIP3   OH2 6566   0.751   6.629   1.157  0.2188 -0.0429 -0.0255
 2201TIP3    H1 6567   0.683   6.653   1.093 -0.6524 -0.9233  0.5401
 2201TIP3    H2 6568   0.702   6.595   1.232  1.2073  0.9569  1.1330
 2202TIP3   OH2 6569   0.214   3.570   0.619 -0.1755 -0.1307  0.1762
 2202TIP3    H1 6570   0.133   3.545   0.574 -0.6496 -0.2210  1.0685
 2202TIP3    H2 6571   0.195   3.656   0.656 -0.1928 -0.5649  1.1907
 2203TIP3   OH2 6572   1.834   3.714   3.892 -0.1282  0.4397  0.4761
 2203TIP3    H1 6573   1.915   3.665   3.878 -0.6065 -0.8139  1.9800
 2203TIP3    H2 6574   1.797   3.723   3.804  0.8894 -0.2821 -0.0493
 2204TIP3   OH2 6575   0.838   3.627   3.220 -0.2539  0.0230 -0.3345
 2204TIP3    H1 6576   0.933   3.633   3.230 -0.5020  1.7792  1.7671
 2204TIP3    H2 6577   0.821   3.533   3.212  1.7480 -0.2340 -2.5552
 2205TIP3   OH2 6578   4.180   1.602   1.919 -0.6677 -0.3235  0.1606
 2205TIP3    H1 6579   4.250   1.642   1.970  0.9509 -0.4856 -1.8372
 2205TIP3    H2 6580   4.159   1.666   1.852  0.0597 -1.6540 -1.4023
 2206TIP3   OH2 6581   5.860   5.587   3.565  0.1380 -0.6181  0.1444
 2206TIP3    H1 6582   5.945   5.594   3.608  0.0607 -1.4025  0.4274
 2206TIP3    H2 6583   5.858   5.662   3.505 -0.1097  1.0409  2.1026
 2207TIP3   OH2 6584   6.868   1.041   5.448 -0.2893 -0.3344  0.6222
 2207TIP3    H1 6585   6.783   1.085   5.451 -1.1425 -1.9522  2.3840
 2207TIP3    H2 6586   6.925   1.096   5.502 -0.4235  0.3069  0.1288
 2208TIP3   OH2 6587   5.407   1.822   4.349 -0.2732  0.6511 -0.3325
 2208TIP3    H1 6588   5.471   1.812   4.419  0.3827  0.0909 -0.9961
 2208TIP3    H2 6589   5.451   1.877   4.284 -0.6145  0.5937 -0.6138
 2209TIP3   OH2 6590   5.470   1.956   3.333  0.3656 -0.1161  0.4454
 2209TIP3    H1 6591   5.379   1.960   3.364 -0.8570 -2.4057 -2.3909
 2209TIP3    H2 6592   5.467   1.993   3.245  2.2173 -0.2341  0.3006
 2210TIP3   OH2 6593   2.306   6.569   0.972  0.5942  0.2889  0.0197
 2210TIP3    H1 6594   2.257   6.627   0.913 -1.4449  0.4151  1.6881
 2210TIP3    H2 6595   2.379   6.537   0.920 -0.9558  0.5630 -2.5005
 2211TIP3   OH2 6596   0.355   0.748   3.755  0.0274  0.2708 -0.3089
 2211TIP3    H1 6597   0.384   0.682   3.818 -0.2056 -0.0051 -0.4878
 2211TIP3    H2 6598   0.380   0.832   3.794 -2.7279  0.3323  1.5879
 2212TIP3   OH2 6599   1.156   0.456   4.213 -0.3465  0.3868  0.4133
 2212TIP3    H1 6600   1.249   0.466   4.191 -0.6841  2.3463 -0.3635
 2212TIP3    H2 6601   1.139   0.362   4.203  1.4189  0.0657  0.0542
 2213TIP3   OH2 6602   0.360   3.425   2.725  0.7798  0.1411 -0.3124
 2213TIP3    H1 6603   0.352   3.520   2.737 -0.9866  0.0844 -0.7618
 2213TIP3    H2 6604   0.398   3.394   2.807  2.5267  1.3467 -0.6211
 2214TIP3   OH2 6605   1.138   1.233   2.625  0.0353 -0.2136 -0.3231
 2214TIP3    H1 6606   1.187   1.215   2.705  0.0319 -2.1545 -0.7113
 2214TIP3    H2 6607   1.192   1.296   2.577 -0.1833  1.3227  1.3702
 2215TIP3   OH2 6608   2.879   0.403   3.799 -0.4671  0.4918 -0.0640
 2215TIP3    H1 6609   2.876   0.485   3.748 -0.5081  0.0735 -0.7565
 2215TIP3    H2 6610   2.887   0.335   3.732 -0.4248 -0.0688  0.5114
 2216TIP3   OH2 6611   6.877   3.587   1.740 -0.0985  0.6432  0.0941
 2216TIP3    H1 6612   6.834   3.604   1.657 -1.3622  0.2564  0.6425
 2216TIP3    H2 6613   6.965   3.623   1.730  0.3227 -0.8229 -1.9461
 2217TIP3   OH2 6614   0.219   5.577   1.506  0.3166  0.0650  0.4136
 2217TIP3    H1 6615   0.237   5.668   1.529 -0.5791  0.4321 -0.3086
 2217TIP3    H2 6616   0.289   5.554   1.445  1.3444 -0.1822  1.6409
 2218TIP3   OH2 6617   2.079   1.524   0.048  0.1167  0.6234  0.0591
 2218TIP3    H1 6618   2.170   1.526   0.021  0.3661  0.2978  0.8669
 2218TIP3    H2 6619   2.069   1.441   0.096 -0.9845 -0.0998 -1.3379
 2219TIP3   OH2 6620   6.045   3.568   5.616 -0.3613 -0.8583 -0.9358
 2219TIP3    H1 6621   6.021   3.659   5.598 -1.5568 -0.8698  0.4215
 2219TIP3    H2 6622   6.140   3.570   5.628 -0.6262  0.7800  1.7886
 2220TIP3   OH2 6623   0.667   2.918   0.645 -0.0530 -0.3079  0.6942
 2220TIP3    H1 6624   0.746   2.968   0.661 -1.4101  1.6519  1.7237
 2220TIP3    H2 6625   0.680   2.836   0.693  1.9178 -0.6964 -0.4081
 2221TIP3   OH2 6626   1.222   5.293   2.300 -0.1334  0.3831 -0.1416
 2221TIP3    H1 6627   1.160   5.264   2.233 -2.3982  1.6688  1.2470
 2221TIP3    H2 6628   1.221   5.223   2.366 -0.3654  0.5385  0.0222
 2222TIP3   OH2 6629   2.210   0.436   1.447 -0.0170 -0.3904  0.5730
 2222TIP3    H1 6630   2.158   0.391   1.380 -2.0272  2.7778 -0.2549
 2222TIP3    H2 6631   2.291   0.460   1.402  0.0550 -1.0878  0.3152
 2223TIP3   OH2 6632   3.099   0.772   0.875  0.1787 -0.4844 -0.1933
 2223TIP3    H1 6633   3.031   0.731   0.930 -1.2441  0.1526 -1.4029
 2223TIP3    H2 6634   3.131   0.701   0.820 -0.7993 -0.4494 -0.8418
 2224TIP3   OH2 6635   5.401   2.535   0.914 -0.3997  0.3692  0.0513
 2224TIP3    H1 6636   5.407   2.617   0.865  1.9928 -0.1627 -0.6709
 2224TIP3    H2 6637   5.399   2.467   0.847 -0.8020 -0.2338  0.6599
 2225TIP3   OH2 6638   0.554   1.310   0.308 -0.1034  0.7142  0.3952
 2225TIP3    H1 6639   0.548   1.380   0.373  2.0536  0.2944  1.1432
 2225TIP3    H2 6640   0.648   1.297   0.296 -0.4593 -0.8729 -1.0285
 2226TIP3   OH2 6641   0.758   5.744   1.106 -0.0974 -0.4168 -0.1661
 2226TIP3    H1 6642   0.803   5.764   1.024  0.2928  1.4035  0.4615
 2226TIP3    H2 6643   0.671   5.781   1.096  0.1197  0.2815  0.4167
 2227TIP3   OH2 6644   3.167   2.218   1.374  0.2915  0.6151 -0.1431
 2227TIP3    H1 6645   3.241   2.236   1.316  1.4377 -0.8205  0.8025
 2227TIP3    H2 6646   3.175   2.125   1.394 -0.3027  0.9702  1.9654
 2228TIP3   OH2 6647   5.669   4.953   2.713 -0.0271  0.0708 -0.3184
 2228TIP3    H1 6648   5.608   4.918   2.777 -0.4628 -0.8693 -1.2362
 2228TIP3    H2 6649   5.631   4.931   2.628  0.3364  1.6448 -0.9235
 2229TIP3   OH2 6650   3.725   0.800   4.960  0.2975  0.3672 -0.5027
 2229TIP3    H1 6651   3.666   0.870   4.933 -0.7730 -0.5579 -0.6198
 2229TIP3    H2 6652   3.731   0.742   4.884  2.8751  1.3764 -1.1854
 2230TIP3   OH2 6653   3.322   4.547   2.530  0.3907 -0.1825 -0.3782
 2230TIP3    H1 6654   3.330   4.488   2.605  0.1357  0.9208  0.5444
 2230TIP3    H2 6655   3.394   4.609   2.540 -0.1553  0.4992 -0.5479
 2231TIP3   OH2 6656   1.443   3.937   3.950 -0.2186  0.0260 -0.1530
 2231TIP3    H1 6657   1.513   3.883   3.987  1.0729  1.8899  0.3122
 2231TIP3    H2 6658   1.439   3.911   3.858  1.0189 -0.2388 -0.1545
 2232TIP3   OH2 6659   2.431   5.075   2.202 -0.2802 -0.4729  0.2058
 2232TIP3    H1 6660   2.413   4.999   2.146 -0.0081 -0.1201 -0.3609
 2232TIP3    H2 6661   2.355   5.132   2.190 -0.6544 -0.7955  0.9016
 2233TIP3   OH2 6662   1.107   3.513   0.532 -0.1158 -0.4485  0.1894
 2233TIP3    H1 6663   1.113   3.583   0.467  1.2282 -1.0409 -0.3409
 2233TIP3    H2 6664   1.063   3.555   0.607 -0.0837  0.7306 -0.4239
 2234TIP3   OH2 6665   1.807   2.071   4.231 -0.1495 -0.2185  0.2852
 2234TIP3    H1 6666   1.716   2.100   4.245  0.7465  1.7271  2.9346
 2234TIP3    H2 6667   1.804   1.976   4.242 -2.0423 -0.3884 -1.1693
 2235TIP3   OH2 6668   3.075   6.256   2.357  0.3721 -0.2834  0.0757
 2235TIP3    H1 6669   3.169   6.271   2.366  0.8613 -2.7400 -0.4109
 2235TIP3    H2 6670   3.057   6.273   2.264  0.5523 -0.9155 -0.0736
 2236TIP3   OH2 6671   6.296   6.652   5.820 -0.1594  0.1214  0.3066
 2236TIP3    H1 6672   6.296   6.747   5.811  0.9959  0.2508  1.3814
 2236TIP3    H2 6673   6.249   6.636   5.902  0.4306 -0.1529  0.6024
 2237TIP3   OH2 6674   4.253   4.313   2.713  0.3425 -0.0106 -0.3137
 2237TIP3    H1 6675   4.244   4.219   2.729 -0.4784  0.2126  0.6587
 2237TIP3    H2 6676   4.175   4.335   2.662  0.0895  0.2798  0.1858
 2238TIP3   OH2 6677   3.332   4.835   2.757 -0.1088  0.5625 -0.3914
 2238TIP3    H1 6678   3.259   4.896   2.749  1.9616  3.2334 -0.3865
 2238TIP3    H2 6679   3.379   4.863   2.835  0.5861 -1.5422  0.0270
 2239TIP3   OH2 6680   0.614   0.716   2.704 -0.9837 -0.4874  0.2377
 2239TIP3    H1 6681   0.659   0.793   2.668 -0.0778 -0.2413  1.8218
 2239TIP3    H2 6682   0.533   0.711   2.653 -1.6956  2.2858  0.9052
 2240TIP3   OH2 6683   2.096   3.856   0.264  0.0021 -0.2637  0.6629
 2240TIP3    H1 6684   2.161   3.801   0.308 -0.0627 -1.3419 -0.5090
 2240TIP3    H2 6685   2.101   3.829   0.172  0.6989  2.4401 -0.1884
 2241TIP3   OH2 6686   1.952   1.056   5.689 -0.4270 -0.2002  0.2193
 2241TIP3    H1 6687   2.044   1.033   5.699 -0.7394 -1.3281  0.5460
 2241TIP3    H2 6688   1.916   1.053   5.777 -1.0793 -1.1110 -0.0617
 2242TIP3   OH2 6689   2.390   3.043   5.713 -0.0775 -0.3788  1.0413
 2242TIP3    H1 6690   2.350   2.971   5.665 -2.9454  0.7426  1.5413
 2242TIP3    H2 6691   2.418   3.004   5.796  0.0241 -1.2464  0.6113
 2243TIP3   OH2 6692   3.459   3.861   1.952  0.0347  0.3949 -0.4346
 2243TIP3    H1 6693   3.381   3.867   2.007 -0.3719 -0.5741 -0.9003
 2243TIP3    H2 6694   3.517   3.801   1.999  0.5434  1.1639 -0.0549
 2244TIP3   OH2 6695   3.606   4.665   4.169  0.2577 -0.0686  0.2031
 2244TIP3    H1 6696   3.661   4.660   4.247  1.0743  0.3076 -0.3341
 2244TIP3    H2 6697   3.548   4.739   4.186 -1.0653 -1.3099  1.3655
 2245TIP3   OH2 6698   3.046   2.133   5.009  0.0735  1.0039  0.7402
 2245TIP3    H1 6699   3.072   2.208   5.063 -0.0724  0.8089  1.0867
 2245TIP3    H2 6700   3.070   2.056   5.062  0.6187  0.8009  0.2007
 2246TIP3   OH2 6701   0.564   0.927   0.060 -0.1517 -0.9520  0.2544
 2246TIP3    H1 6702   0.608   0.965  -0.016 -0.0409 -0.2283  0.6699
 2246TIP3    H2 6703   0.500   0.993   0.086 -0.1105 -1.1384  0.8544
 2247TIP3   OH2 6704   2.420   2.430   4.105  0.3678 -0.1285  0.1166
 2247TIP3    H1 6705   2.434   2.350   4.155  0.9842 -0.4992 -0.6214
 2247TIP3    H2 6706   2.475   2.496   4.148 -0.3163 -0.0296  0.8644
 2248TIP3   OH2 6707   1.639   6.592   4.733 -0.8134  0.6039  0.5108
 2248TIP3    H1 6708   1.587   6.544   4.798 -0.2059  1.2918  1.5370
 2248TIP3    H2 6709   1.601   6.567   4.649 -2.9312  1.2426  1.2195
 2249TIP3   OH2 6710   6.302   2.485   0.656  0.3102 -0.1078 -0.1925
 2249TIP3    H1 6711   6.376   2.466   0.714  0.0249 -0.1564  0.1599
 2249TIP3    H2 6712   6.225   2.456   0.705 -0.0429  0.9124 -0.1052
 2250TIP3   OH2 6713   1.357   6.189   4.105 -0.2449 -0.3105 -0.3359
 2250TIP3    H1 6714   1.318   6.235   4.031 -0.3017 -0.1746 -0.2207
 2250TIP3    H2 6715   1.385   6.258   4.165  1.3477 -0.3395 -1.0061
 2251TIP3   OH2 6716   6.056   3.616   3.710 -0.0431 -0.3589 -0.2732
 2251TIP3    H1 6717   6.002   3.601   3.788 -0.3707  1.1360 -0.1704
 2251TIP3    H2 6718   6.140   3.646   3.745  0.2492 -0.9359 -0.4752
 2252TIP3   OH2 6719   1.454   0.340   3.386  0.3233  0.3955 -0.8191
 2252TIP3    H1 6720   1.515   0.295   3.328 -1.8582 -2.9000 -0.8147
 2252TIP3    H2 6721   1.509   0.376   3.456  2.5700  0.9925 -2.7613
 2253TIP3   OH2 6722   2.690   4.202   1.355 -0.0351  1.0369 -0.6155
 2253TIP3    H1 6723   2.622   4.136   1.366  0.0679  0.8046 -1.3536
 2253TIP3    H2 6724   2.761   4.173   1.413 -0.2967  0.9245 -0.3480
 2254TIP3   OH2 6725   1.913   0.202   0.091  0.2807 -0.2332 -0.0825
 2254TIP3    H1 6726   1.928   0.281   0.143  1.5120 -1.3381  1.3275
 2254TIP3    H2 6727   1.824   0.211   0.058 -0.0317  1.1720  1.0742
 2255TIP3   OH2 6728   6.359   3.415   4.930  0.0439 -0.0039 -0.7678
 2255TIP3    H1 6729   6.437   3.461   4.898  1.7029 -1.2796  1.2084
 2255TIP3    H2 6730   6.300   3.484   4.960  0.5765  0.9648 -1.8761
 2256TIP3   OH2 6731   7.020   0.877   3.624 -0.1699 -0.2684  0.2182
 2256TIP3    H1 6732   6.967   0.797   3.619  0.6576 -0.8150  0.1197
 2256TIP3    H2 6733   7.076   0.864   3.700  3.3487 -1.9318 -2.3803
 2257TIP3   OH2 6734   4.402   0.800   3.140 -0.2078 -0.4320  0.0263
 2257TIP3    H1 6735   4.442   0.884   3.165  3.7398 -1.2297 -2.7145
 2257TIP3    H2 6736   4.354   0.820   3.059 -1.6345 -0.3914  0.8447
 2258TIP3   OH2 6737   2.223   0.206   2.307 -0.0717 -0.1758  0.4048
 2258TIP3    H1 6738   2.215   0.241   2.396 -3.3708 -0.7619  0.4560
 2258TIP3    H2 6739   2.220   0.111   2.319 -2.1054 -0.2413 -0.3750
 2259TIP3   OH2 6740   4.594   0.256   5.520  0.5799  0.6397  0.7765
 2259TIP3    H1 6741   4.630   0.208   5.445 -0.0736  0.7229  0.4013
 2259TIP3    H2 6742   4.592   0.193   5.591 -0.7128 -0.0403  0.1596
 2260TIP3   OH2 6743   4.800   5.998   5.515  0.3406 -0.1725 -0.1597
 2260TIP3    H1 6744   4.889   6.010   5.549  0.1989 -0.7612  0.4361
 2260TIP3    H2 6745   4.743   6.029   5.585  0.0586  2.6560 -1.4870
 2261TIP3   OH2 6746   5.786   2.737   1.201 -0.1873 -0.1462  0.7867
 2261TIP3    H1 6747   5.799   2.781   1.118 -1.2401 -0.4899  0.4277
 2261TIP3    H2 6748   5.844   2.783   1.262 -1.3367  1.8437  0.4664
 2262TIP3   OH2 6749   1.565   1.646   0.790 -0.0138  0.1886  0.4906
 2262TIP3    H1 6750   1.554   1.650   0.695 -0.8798 -0.5904  0.5311
 2262TIP3    H2 6751   1.533   1.730   0.821  0.7534  0.6458  0.0555
 2263TIP3   OH2 6752   6.753   1.961   4.888  0.0391 -0.0076  0.4148
 2263TIP3    H1 6753   6.784   2.051   4.897 -1.4924  0.5490  0.4467
 2263TIP3    H2 6754   6.831   1.907   4.901  0.7747  1.2756  1.6359
 2264TIP3   OH2 6755   0.112   6.096   1.335 -0.0060 -0.4169 -0.0109
 2264TIP3    H1 6756   0.035   6.124   1.384  0.3164 -0.4476  0.5145
 2264TIP3    H2 6757   0.096   6.127   1.246  0.7092  2.2127  0.6925
 2265TIP3   OH2 6758   2.738   4.573   1.423  0.7464 -0.1626  0.3983
 2265TIP3    H1 6759   2.675   4.523   1.475 -0.5717  1.0294  0.0327
 2265TIP3    H2 6760   2.791   4.620   1.488 -1.4192  1.9654  0.7815
 2266TIP3   OH2 6761   1.854   4.679   3.426  0.3568 -0.3866 -0.0823
 2266TIP3    H1 6762   1.861   4.752   3.487  1.6288  0.2763 -0.9708
 2266TIP3    H2 6763   1.815   4.717   3.347  1.6140 -0.4737 -0.7804
 2267TIP3   OH2 6764   5.119   2.673   0.499 -0.2543  0.0081 -0.6213
 2267TIP3    H1 6765   5.037   2.722   0.499  0.1396  0.7574  0.9802
 2267TIP3    H2 6766   5.125   2.638   0.588  1.6282  0.8150 -0.3922
 2268TIP3   OH2 6767   2.140   0.964   3.371 -0.1721  0.1071 -0.0695
 2268TIP3    H1 6768   2.076   0.904   3.332  1.4296 -0.8297 -1.4171
 2268TIP3    H2 6769   2.124   0.959   3.465 -2.7191  0.7094 -0.4197
 2269TIP3   OH2 6770   2.663   4.844   1.103 -0.1682 -0.0204  0.5963
 2269TIP3    H1 6771   2.620   4.899   1.037  0.8839  0.5423  0.3645
 2269TIP3    H2 6772   2.603   4.845   1.178 -1.0674 -0.1336 -0.1002
 2270TIP3   OH2 6773   0.439   5.748   4.877  0.1215 -0.3815  0.2940
 2270TIP3    H1 6774   0.468   5.833   4.910  1.4443 -0.9952  0.7957
 2270TIP3    H2 6775   0.514   5.714   4.828 -1.2547 -0.1755 -2.1167
 2271TIP3   OH2 6776   0.777   4.869   0.604  0.1215  0.1523  0.2110
 2271TIP3    H1 6777   0.691   4.884   0.566  0.0902 -0.8085 -0.1106
 2271TIP3    H2 6778   0.819   4.805   0.546  1.9053  2.1832 -0.9047
 2272TIP3   OH2 6779   1.538   2.500   2.933  0.3023 -0.0683  0.1883
 2272TIP3    H1 6780   1.631   2.507   2.915  0.2305  0.9715  0.1812
 2272TIP3    H2 6781   1.501   2.583   2.905 -0.5268 -0.2121  0.8010
 2273TIP3   OH2 6782   2.036   4.859   4.872  0.3918 -0.0746 -0.4773
 2273TIP3    H1 6783   1.953   4.810   4.872  1.0591 -1.5149  3.0582
 2273TIP3    H2 6784   2.017   4.937   4.925  1.3505 -0.6651  0.7836
 2274TIP3   OH2 6785   3.104   3.987   5.732 -0.2150 -0.0739 -0.0655
 2274TIP3    H1 6786   3.045   3.935   5.678 -0.8086  1.1106 -0.6051
 2274TIP3    H2 6787   3.049   4.023   5.802  0.0500  0.3066 -0.0472
 2275TIP3   OH2 6788   0.370   6.013   1.382 -0.1333 -0.0356  0.1009
 2275TIP3    H1 6789   0.277   6.015   1.359 -0.0324 -2.2032 -0.7105
 2275TIP3    H2 6790   0.374   5.963   1.463  0.3500 -0.0652  0.0605
 2276TIP3   OH2 6791   3.430   4.644   0.361 -0.1231 -0.3952  0.5499
 2276TIP3    H1 6792   3.433   4.585   0.436  1.0722 -2.4237 -0.9856
 2276TIP3    H2 6793   3.385   4.594   0.293  1.5117  0.1408 -1.0118
 2277TIP3   OH2 6794   5.925   1.788   4.670 -0.4913 -0.5147 -0.3828
 2277TIP3    H1 6795   5.964   1.703   4.650  0.4821 -0.6381  1.8292
 2277TIP3    H2 6796   5.881   1.776   4.754 -1.1977  0.9105 -0.5136
 2278TIP3   OH2 6797   3.881   0.262   5.325  0.2681 -0.0393  0.6279
 2278TIP3    H1 6798   3.935   0.231   5.252 -2.0987  0.8858 -1.6452
 2278TIP3    H2 6799   3.803   0.207   5.323 -0.6426  1.1859  1.3009
 2279TIP3   OH2 6800   3.403   0.593   4.253 -0.0527  0.5788  0.2087
 2279TIP3    H1 6801   3.465   0.664   4.237 -1.1305  1.7105  0.8758
 2279TIP3    H2 6802   3.379   0.562   4.165  0.3609  1.1034 -0.0950
 2280TIP3   OH2 6803   7.152   6.567   5.048 -0.0389 -1.0064 -0.1895
 2280TIP3    H1 6804   7.232   6.516   5.057  0.1209 -0.8219 -0.5433
 2280TIP3    H2 6805   7.168   6.624   4.973 -0.1937 -0.3863  0.2449
 2281TIP3   OH2 6806   5.004   5.374   4.960 -0.9048 -0.6027  0.4622
 2281TIP3    H1 6807   4.944   5.322   4.906  0.5554 -0.0261 -1.8623
 2281TIP3    H2 6808   4.967   5.462   4.957 -0.0195 -0.2351 -1.0183
 2282TIP3   OH2 6809   1.080   4.770   3.028 -0.0337  0.0569  0.3607
 2282TIP3    H1 6810   1.139   4.839   2.996  0.5575 -0.2021  0.8648
 2282TIP3    H2 6811   1.010   4.818   3.073 -1.1616  0.4521 -1.6998
 2283TIP3   OH2 6812   4.741   0.824   3.340  0.1481 -0.1067  0.4475
 2283TIP3    H1 6813   4.818   0.851   3.391  0.2670  1.7976 -0.6291
 2283TIP3    H2 6814   4.673   0.885   3.368 -1.5045 -2.6452  2.4509
 2284TIP3   OH2 6815   5.491   3.274   5.286 -0.0683  0.0693 -0.3014
 2284TIP3    H1 6816   5.523   3.220   5.358 -1.2485 -1.2482 -0.7038
 2284TIP3    H2 6817   5.421   3.222   5.246 -0.4001  1.3667 -1.5249
 2285TIP3   OH2 6818   5.759   0.768   5.692 -0.3413 -0.4985 -0.2727
 2285TIP3    H1 6819   5.761   0.675   5.669  3.5412 -1.0737  1.4988
 2285TIP3    H2 6820   5.812   0.774   5.771 -1.1446  3.1605  0.1674
 2286TIP3   OH2 6821   2.776   3.347   5.577 -0.0433  0.2051 -0.0414
 2286TIP3    H1 6822   2.792   3.437   5.549  0.1729 -0.0200 -0.6705
 2286TIP3    H2 6823   2.779   3.350   5.672 -0.6766  0.9797 -0.0367
 2287TIP3   OH2 6824   6.089   0.168   0.957 -0.0657  0.3041  0.2013
 2287TIP3    H1 6825   6.178   0.141   0.982  0.1127 -0.8244 -1.4297
 2287TIP3    H2 6826   6.041   0.086   0.949 -0.4357  0.6566 -1.7401
 2288TIP3   OH2 6827   0.755   5.522   2.859  0.0376  0.4153  0.2187
 2288TIP3    H1 6828   0.785   5.439   2.896 -0.3144  0.5689  0.8751
 2288TIP3    H2 6829   0.833   5.562   2.823  0.4996  0.5002  1.2819
 2289TIP3   OH2 6830   7.119   0.851   1.263 -0.3767  0.3105 -0.2181
 2289TIP3    H1 6831   7.070   0.915   1.315  0.0117  0.5923 -0.1977
 2289TIP3    H2 6832   7.191   0.824   1.320 -1.3046 -1.1943  0.3251
 2290TIP3   OH2 6833   1.123   1.018   0.789  0.5488  0.4102  0.6013
 2290TIP3    H1 6834   1.128   1.042   0.697  1.3781  0.0948  0.5551
 2290TIP3    H2 6835   1.125   1.102   0.836  3.4280  0.5179  0.4432
 2291TIP3   OH2 6836   0.005   2.276   1.225 -0.6673 -0.9000 -0.4526
 2291TIP3    H1 6837   0.100   2.283   1.233 -0.7762  1.5514 -0.6346
 2291TIP3    H2 6838  -0.019   2.341   1.159 -2.3958 -2.1613 -1.1381
 2292TIP3   OH2 6839   6.044   4.494   4.471 -0.1602 -0.2716  0.1494
 2292TIP3    H1 6840   6.110   4.464   4.409  0.1861  0.1033  0.3371
 2292TIP3    H2 6841   6.091   4.551   4.532 -0.5921 -0.2487  0.4691
 2293TIP3   OH2 6842   6.034   5.346   0.595  0.7049 -0.3297  0.0927
 2293TIP3    H1 6843   6.097   5.320   0.662 -0.1608 -1.4489  0.4996
 2293TIP3    H2 6844   6.088   5.383   0.525  1.9180 -1.9986  0.0881
 2294TIP3   OH2 6845   3.116   2.556   3.623 -0.3848 -0.4339  0.3370
 2294TIP3    H1 6846   3.078   2.633   3.581  2.2514  1.6103  1.3981
 2294TIP3    H2 6847   3.043   2.495   3.633 -2.3196  1.3847 -1.7030
 2295TIP3   OH2 6848   4.720   5.625   4.130 -0.0330 -0.0190  0.0867
 2295TIP3    H1 6849   4.733   5.668   4.215  0.1567 -0.7864  0.4572
 2295TIP3    H2 6850   4.808   5.624   4.091 -0.2722  1.1261 -0.5193
 2296TIP3   OH2 6851   0.506   0.679   0.436  0.1849  0.0846 -0.0618
 2296TIP3    H1 6852   0.428   0.717   0.476  0.7559  1.2179 -0.0111
 2296TIP3    H2 6853   0.548   0.752   0.390  2.4339  0.0465  1.7737
 2297TIP3   OH2 6854   6.482   3.685   0.711  0.2819 -0.1038  0.5261
 2297TIP3    H1 6855   6.496   3.625   0.784 -1.6408 -2.0893 -0.6301
 2297TIP3    H2 6856   6.491   3.630   0.633 -2.3620  0.8642 -0.5738
 2298TIP3   OH2 6857   3.599   2.445   0.674 -0.1158 -0.1395  0.2793
 2298TIP3    H1 6858   3.591   2.376   0.608  0.5088  2.0714 -2.2779
 2298TIP3    H2 6859   3.691   2.443   0.700 -0.0064 -0.0301 -0.0943
 2299TIP3   OH2 6860   6.497   0.879   2.285  0.0498 -0.2054  0.1704
 2299TIP3    H1 6861   6.465   0.803   2.333  2.4463 -0.9742  0.7129
 2299TIP3    H2 6862   6.543   0.842   2.209 -1.2861  0.8782 -1.2403
 2300TIP3   OH2 6863   5.787   2.397   4.332  0.2018  0.0556  0.0798
 2300TIP3    H1 6864   5.782   2.434   4.420  0.7277  0.6342 -0.1303
 2300TIP3    H2 6865   5.806   2.304   4.347 -0.4333 -0.0042  0.5880
 2301TIP3   OH2 6866   6.181   3.895   1.660 -0.2672 -0.1853 -0.0596
 2301TIP3    H1 6867   6.121   3.966   1.682 -0.1130 -0.4457  1.3117
 2301TIP3    H2 6868   6.169   3.831   1.731 -0.2508 -1.4352 -1.1486
 2302TIP3   OH2 6869   6.754   5.020   1.658  0.0806  0.6032 -0.8698
 2302TIP3    H1 6870   6.690   5.078   1.699  0.3914  0.1980  0.2115
 2302TIP3    H2 6871   6.700   4.950   1.620 -0.1455  0.4151 -0.2153
 2303TIP3   OH2 6872   0.092   6.355   3.556 -0.4243 -0.0652  0.0170
 2303TIP3    H1 6873   0.091   6.275   3.610 -0.8155  0.1538  0.3436
 2303TIP3    H2 6874   0.080   6.426   3.619 -1.4090  0.1628 -0.4184
 2304TIP3   OH2 6875   1.314   2.406   3.141  0.3305 -0.3353 -0.5628
 2304TIP3    H1 6876   1.373   2.331   3.151 -0.1688 -0.6989 -0.2772
 2304TIP3    H2 6877   1.368   2.473   3.100  0.6087 -1.0765 -1.4652
 2305TIP3   OH2 6878   4.037   4.818   4.641  0.4515  0.0989 -0.8674
 2305TIP3    H1 6879   4.007   4.908   4.631  0.6923  0.2353 -0.3975
 2305TIP3    H2 6880   4.071   4.814   4.730  1.4039 -0.1776 -1.2350
 2306TIP3   OH2 6881   2.646   5.590   5.313  0.2013  0.2557 -0.2112
 2306TIP3    H1 6882   2.713   5.656   5.298 -0.0387  0.0650 -2.5116
 2306TIP3    H2 6883   2.692   5.506   5.303  0.2738  0.0347  1.5931
 2307TIP3   OH2 6884   3.420   5.244   2.263 -0.3580 -0.2439  0.0825
 2307TIP3    H1 6885   3.415   5.182   2.337  0.0820  0.0268  0.3387
 2307TIP3    H2 6886   3.368   5.319   2.291  2.1155  1.1193  1.3510
 2308TIP3   OH2 6887   3.330   1.860   4.685  0.0739  0.0492 -0.0069
 2308TIP3    H1 6888   3.403   1.909   4.649  1.5555 -1.9804  0.0831
 2308TIP3    H2 6889   3.303   1.800   4.615 -2.2052  1.4063 -0.3968
 2309TIP3   OH2 6890   6.997   5.621   0.390  1.0393  1.2176 -0.1717
 2309TIP3    H1 6891   6.923   5.591   0.339  0.5627  2.0974 -0.0239
 2309TIP3    H2 6892   7.002   5.715   0.372  3.3349  0.8657 -1.7391
 2310TIP3   OH2 6893   6.671   1.675   3.490 -0.0317 -0.3773 -0.4501
 2310TIP3    H1 6894   6.762   1.666   3.519 -0.0060 -2.0193 -0.9320
 2310TIP3    H2 6895   6.670   1.637   3.402 -1.2999 -0.9948 -0.2019
 2311TIP3   OH2 6896   2.980   0.379   2.123 -0.5438 -0.0415 -0.7082
 2311TIP3    H1 6897   2.935   0.300   2.093  0.7136 -0.4488 -1.6389
 2311TIP3    H2 6898   2.987   0.434   2.045 -0.2946  0.4483 -0.3504
 2312TIP3   OH2 6899   1.386   5.625   1.850 -0.3130 -0.1387  0.4157
 2312TIP3    H1 6900   1.365   5.717   1.870  1.5434  0.2462  0.7290
 2312TIP3    H2 6901   1.378   5.620   1.755 -0.7366  0.2543  0.4212
 2313TIP3   OH2 6902   1.670   1.778   2.782 -0.0889  0.0246 -0.7447
 2313TIP3    H1 6903   1.625   1.725   2.717 -0.6485  0.2351 -0.5313
 2313TIP3    H2 6904   1.761   1.746   2.780 -0.4841 -1.1654 -0.3677
 2314TIP3   OH2 6905   4.483   5.770   1.921 -0.0486 -0.2083  0.0569
 2314TIP3    H1 6906   4.555   5.713   1.893 -0.2657 -0.9733  1.0196
 2314TIP3    H2 6907   4.492   5.776   2.016 -0.3041  1.0132  0.0213
 2315TIP3   OH2 6908   3.295   5.896   2.744  0.2172 -0.4084  0.4518
 2315TIP3    H1 6909   3.329   5.895   2.834 -0.1480  0.8572  0.6278
 2315TIP3    H2 6910   3.201   5.914   2.754  0.2821  0.3462 -0.1969
 2316TIP3   OH2 6911   0.322   2.355   2.943 -0.2268 -0.6650 -0.0892
 2316TIP3    H1 6912   0.352   2.264   2.938 -0.7578 -0.8064 -0.8030
 2316TIP3    H2 6913   0.335   2.390   2.855  2.1386  0.6766  0.6770
 2317TIP3   OH2 6914   2.755   4.531   3.926  0.3774  0.0821  0.1842
 2317TIP3    H1 6915   2.727   4.592   3.858  1.3105 -0.1148 -0.4149
 2317TIP3    H2 6916   2.716   4.563   4.007 -4.9210 -2.3161 -0.9931
 2318TIP3   OH2 6917   6.226   3.433   2.177  0.3122  0.5533 -0.4514
 2318TIP3    H1 6918   6.133   3.435   2.199  0.5507  1.2890  0.5727
 2318TIP3    H2 6919   6.249   3.340   2.176 -0.1207  0.4167  0.7201
 2319TIP3   OH2 6920   3.224   1.955   1.430 -0.1815  0.1343 -0.2848
 2319TIP3    H1 6921   3.280   1.879   1.444 -1.4755 -0.3791  2.7546
 2319TIP3    H2 6922   3.149   1.921   1.380  0.2580 -0.0605 -0.8258
 2320TIP3   OH2 6923   6.946   2.043   4.340  0.0873 -0.1067 -0.5558
 2320TIP3    H1 6924   6.914   1.991   4.267 -0.1221 -0.7476 -0.0150
 2320TIP3    H2 6925   6.888   2.120   4.342 -0.5024 -0.5514 -0.4743
 2321TIP3   OH2 6926   0.445   4.035   1.367 -0.3364 -0.1493 -0.5965
 2321TIP3    H1 6927   0.483   3.996   1.446 -0.2797  0.8303 -0.1154
 2321TIP3    H2 6928   0.508   4.016   1.297  1.0169  1.2982  0.1470
 2322TIP3   OH2 6929   5.845   1.511   3.433 -0.2544  0.8005  0.2189
 2322TIP3    H1 6930   5.864   1.418   3.418  0.8154  1.4789 -3.4575
 2322TIP3    H2 6931   5.756   1.512   3.468  0.2575 -1.6274  1.8567
 2323TIP3   OH2 6932   0.372   4.028   1.055  0.3141  0.8831  0.3445
 2323TIP3    H1 6933   0.449   4.038   1.111  1.7541  1.4640 -1.6284
 2323TIP3    H2 6934   0.387   4.087   0.982 -1.6886  0.4750 -0.4792
 2324TIP3   OH2 6935   3.937   1.132   3.328  0.3609 -0.6231 -0.2675
 2324TIP3    H1 6936   3.991   1.068   3.283  1.1701 -0.7377  0.8225
 2324TIP3    H2 6937   3.849   1.119   3.293  0.6375 -1.8814 -0.5297
 2325TIP3   OH2 6938   0.226   3.775   4.173  0.2317  0.0445 -0.4732
 2325TIP3    H1 6939   0.138   3.796   4.204 -0.4185 -2.1026 -0.7128
 2325TIP3    H2 6940   0.253   3.699   4.224  1.1385 -0.5515 -1.7701
 2326TIP3   OH2 6941   2.982   6.574   2.944 -0.0753 -0.2457  0.2888
 2326TIP3    H1 6942   3.063   6.580   2.995  1.1548 -1.3476 -1.4178
 2326TIP3    H2 6943   2.973   6.660   2.904 -0.6474  0.3893  1.7478
 2327TIP3   OH2 6944   3.195   6.268   3.134  0.0893 -0.0845 -0.2503
 2327TIP3    H1 6945   3.129   6.199   3.131 -0.6772  0.5613  1.1170
 2327TIP3    H2 6946   3.212   6.281   3.227  0.1801  1.5955 -0.4720
 2328TIP3   OH2 6947   4.277   4.031   2.599 -0.1454  0.3507  0.1271
 2328TIP3    H1 6948   4.195   3.990   2.571  1.2409 -1.5657 -1.4343
 2328TIP3    H2 6949   4.288   4.105   2.539 -0.3414  0.0854 -0.2441
 2329TIP3   OH2 6950   4.006   4.164   0.152  0.3169  0.2814  0.5380
 2329TIP3    H1 6951   4.035   4.214   0.076 -0.7555  0.9544  0.5494
 2329TIP3    H2 6952   3.943   4.100   0.117  0.0123  0.4239  0.8125
 2330TIP3   OH2 6953   4.033   5.204   1.240  0.7211  0.0372  0.5423
 2330TIP3    H1 6954   4.038   5.257   1.320  0.9240  0.0998  0.4899
 2330TIP3    H2 6955   4.014   5.115   1.271  2.4167 -0.2752  0.7980
 2331TIP3   OH2 6956   3.073   0.863   2.016  0.0629 -0.4812 -0.2401
 2331TIP3    H1 6957   3.078   0.772   1.986  0.4017 -1.2074  1.8069
 2331TIP3    H2 6958   2.989   0.868   2.063  0.4325 -0.0099  0.3958
 2332TIP3   OH2 6959   2.676   2.550   1.420 -0.5738  0.2098 -0.3936
 2332TIP3    H1 6960   2.639   2.589   1.341  0.5665  0.0567 -1.0134
 2332TIP3    H2 6961   2.758   2.596   1.434 -0.1332 -0.6641 -0.0508
 2333TIP3   OH2 6962   0.646   3.983   1.196  0.1078 -0.6503 -0.0163
 2333TIP3    H1 6963   0.722   3.934   1.227  1.8411 -0.0481 -2.8843
 2333TIP3    H2 6964   0.683   4.059   1.152 -2.0238 -0.8219 -2.4032
 2334TIP3   OH2 6965   0.055   2.162   2.020  0.4760 -0.5591 -0.4288
 2334TIP3    H1 6966   0.039   2.243   1.972 -0.2313  0.4046  1.3829
 2334TIP3    H2 6967   0.117   2.185   2.089  0.0393 -1.4845  0.3019
 2335TIP3   OH2 6968   3.143   0.422   5.837 -0.4110  0.5685 -0.4179
 2335TIP3    H1 6969   3.122   0.505   5.796 -0.4536  0.8683  0.1965
 2335TIP3    H2 6970   3.238   0.423   5.847 -0.4857  0.9009  0.3210
 2336TIP3   OH2 6971   3.530   4.624   1.490  0.5667 -0.1424 -0.4095
 2336TIP3    H1 6972   3.535   4.528   1.492  1.4051 -0.1350 -1.4916
 2336TIP3    H2 6973   3.484   4.644   1.409  0.1143  0.3651 -0.0296
 2337TIP3   OH2 6974   3.936   2.096   4.089 -0.2503 -0.2565  0.6520
 2337TIP3    H1 6975   3.923   2.056   4.003 -0.7978 -0.9246  1.0289
 2337TIP3    H2 6976   3.890   2.180   4.084  0.3434  0.0354  0.0635
 2338TIP3   OH2 6977   0.576   5.687   0.538 -0.0793 -0.1711  0.0756
 2338TIP3    H1 6978   0.538   5.774   0.525  1.7634  0.7315  0.5081
 2338TIP3    H2 6979   0.583   5.651   0.450  2.4402  1.6099 -0.5690
 2339TIP3   OH2 6980   3.891   5.901   2.489  0.0271 -0.1152  0.3079
 2339TIP3    H1 6981   3.912   5.841   2.417 -0.9312  1.5939 -1.4983
 2339TIP3    H2 6982   3.975   5.939   2.514  0.2914 -0.1869 -0.4459
 2340TIP3   OH2 6983   0.116   2.369   4.721 -0.0541 -0.4672 -0.2563
 2340TIP3    H1 6984   0.174   2.316   4.667  0.0382 -0.1012 -0.5185
 2340TIP3    H2 6985   0.063   2.419   4.659  0.2103  0.1242 -0.0229
 2341TIP3   OH2 6986   6.457   0.379   3.265  0.1903 -0.2492  0.1836
 2341TIP3    H1 6987   6.416   0.451   3.312  1.7422 -0.0022  1.2281
 2341TIP3    H2 6988   6.466   0.309   3.330 -0.0958 -0.9305 -0.4805
 2342TIP3   OH2 6989   5.345   6.466   0.569 -0.2610  0.3295 -0.6438
 2342TIP3    H1 6990   5.392   6.402   0.517  0.3163  0.0852  0.1527
 2342TIP3    H2 6991   5.406   6.539   0.580 -0.1207  0.0908  0.2376
 2343TIP3   OH2 6992   0.487   2.470   4.810  0.0445 -0.3679  0.2114
 2343TIP3    H1 6993   0.576   2.448   4.837  0.2795  1.6196  1.2520
 2343TIP3    H2 6994   0.491   2.473   4.714  1.2320  0.1842  0.2586
 2344TIP3   OH2 6995   2.548   5.421   4.969  0.2663 -0.2241  0.8382
 2344TIP3    H1 6996   2.597   5.346   4.934 -0.3638 -0.3079  0.1203
 2344TIP3    H2 6997   2.527   5.474   4.892  0.3128  0.4632  1.2922
 2345TIP3   OH2 6998   6.133   1.478   3.248 -0.5323  0.5361 -0.1814
 2345TIP3    H1 6999   6.111   1.422   3.322  1.2072 -0.3646 -0.2940
 2345TIP3    H2 7000   6.103   1.430   3.171  0.0035  0.2410 -0.2106
 2346TIP3   OH2 7001   3.303   6.224   0.947 -0.4948  0.2132 -0.0447
 2346TIP3    H1 7002   3.285   6.183   1.031  0.2228 -0.9185 -0.4167
 2346TIP3    H2 7003   3.374   6.286   0.965 -1.7532  1.5234  0.5687
 2347TIP3   OH2 7004   0.830   5.417   3.519  0.6813 -0.6822  0.0867
 2347TIP3    H1 7005   0.791   5.374   3.443  0.8414  0.1922 -0.5069
 2347TIP3    H2 7006   0.806   5.509   3.510  1.0342 -0.4964  0.8946
 2348TIP3   OH2 7007   1.167   2.569   0.197 -0.5978  0.0120 -0.1368
 2348TIP3    H1 7008   1.261   2.569   0.217 -0.7364  1.9661  0.7817
 2348TIP3    H2 7009   1.139   2.479   0.210  0.9081 -0.3481  0.8355
 2349TIP3   OH2 7010   3.267   3.717   4.329 -0.7906  0.4745  0.0649
 2349TIP3    H1 7011   3.199   3.712   4.263  0.2759 -0.2960 -1.0099
 2349TIP3    H2 7012   3.305   3.629   4.332 -0.8077  0.4893  1.7082
 2350TIP3   OH2 7013   4.375   3.258   3.433  0.0350  0.2613  0.0161
 2350TIP3    H1 7014   4.359   3.287   3.523  2.0922  1.2091  0.1531
 2350TIP3    H2 7015   4.392   3.164   3.440 -1.1345  0.0695  0.4071
 2351TIP3   OH2 7016   5.444   3.710   3.523  0.1763  0.7795 -0.1870
 2351TIP3    H1 7017   5.473   3.801   3.530 -0.7276  1.1609 -1.1730
 2351TIP3    H2 7018   5.469   3.683   3.435  0.4611  0.0631  0.1107
 2352TIP3   OH2 7019   2.595   2.393   0.540 -0.6697  0.2217 -0.2243
 2352TIP3    H1 7020   2.544   2.441   0.605 -1.4612  1.4114 -1.6614
 2352TIP3    H2 7021   2.686   2.402   0.569 -0.8594  2.0990 -0.1204
 2353TIP3   OH2 7022   1.082   1.159   5.374 -0.1875  0.0794  0.3220
 2353TIP3    H1 7023   1.030   1.177   5.452 -1.3046 -2.0773  0.1451
 2353TIP3    H2 7024   1.105   1.067   5.381  0.2641  0.0005 -1.5691
 2354TIP3   OH2 7025   0.343   0.669   4.196  0.0603 -0.1155 -0.0446
 2354TIP3    H1 7026   0.362   0.587   4.241  2.1481 -0.1597 -0.9139
 2354TIP3    H2 7027   0.361   0.737   4.262  0.5402 -0.2752 -0.0102
 2355TIP3   OH2 7028   6.936   0.145   4.810  0.6805  0.1629  0.2549
 2355TIP3    H1 7029   6.861   0.146   4.751  2.2979  0.1342 -1.9257
 2355TIP3    H2 7030   6.914   0.209   4.878 -0.7329  1.1537 -1.0666
 2356TIP3   OH2 7031   2.289   4.199   5.490  0.3687 -0.2142  0.2503
 2356TIP3    H1 7032   2.209   4.250   5.505 -0.8226 -1.3307 -1.8771
 2356TIP3    H2 7033   2.338   4.249   5.425  0.8512 -0.1103  0.6881
 2357TIP3   OH2 7034   5.234   6.195   4.692  0.2481  0.0775 -0.4019
 2357TIP3    H1 7035   5.226   6.267   4.630  0.2745 -0.2678 -0.8109
 2357TIP3    H2 7036   5.322   6.204   4.729  0.7400 -0.4875 -1.3946
 2358TIP3   OH2 7037   4.732   1.370   4.343  0.1897  0.5475 -0.5292
 2358TIP3    H1 7038   4.668   1.434   4.313 -0.2999  0.3829  0.1229
 2358TIP3    H2 7039   4.752   1.317   4.266  0.5118  1.4144 -1.0416
 2359TIP3   OH2 7040   5.369   0.972   0.177  0.2567 -0.7962  0.3065
 2359TIP3    H1 7041   5.368   0.877   0.166  2.3396 -0.7071 -1.3665
 2359TIP3    H2 7042   5.348   1.008   0.091  2.8605  0.1619 -0.0293
 2360TIP3   OH2 7043   6.650   2.865   4.962 -0.7622  0.5890  0.3067
 2360TIP3    H1 7044   6.663   2.914   5.044 -0.5193  1.1671 -0.0690
 2360TIP3    H2 7045   6.659   2.773   4.988 -2.2397  0.6737  1.2118
 2361TIP3   OH2 7046   4.521   0.674   4.391 -0.1561  0.3259  0.0956
 2361TIP3    H1 7047   4.567   0.591   4.400  1.3246  1.1581  0.5856
 2361TIP3    H2 7048   4.559   0.714   4.313  1.0535  1.6646  1.3175
 2362TIP3   OH2 7049   2.747   5.916   0.466  0.0107  0.3252  0.0216
 2362TIP3    H1 7050   2.745   5.996   0.519 -0.1712 -0.4797  1.2618
 2362TIP3    H2 7051   2.655   5.896   0.449  0.0029 -0.2788  0.7462
 2363TIP3   OH2 7052   0.392   6.466   1.037 -0.1382 -0.6814 -0.9205
 2363TIP3    H1 7053   0.302   6.452   1.068  0.2424 -1.0218  0.0755
 2363TIP3    H2 7054   0.437   6.505   1.112  1.0522 -2.3780 -0.7212
 2364TIP3   OH2 7055   3.331   6.333   0.660  0.1061  0.1855 -0.3931
 2364TIP3    H1 7056   3.293   6.333   0.748  1.9441  2.5118  0.4909
 2364TIP3    H2 7057   3.405   6.272   0.666  0.9594  1.2323  0.0741
 2365TIP3   OH2 7058   6.600   3.963   4.487  0.1795 -0.4398 -0.0622
 2365TIP3    H1 7059   6.562   3.951   4.573  1.3116 -0.1444  0.5012
 2365TIP3    H2 7060   6.529   3.943   4.426 -1.0231  0.6176  0.9365
 2366TIP3   OH2 7061   1.630   5.599   5.433  0.1465  0.1049  0.2644
 2366TIP3    H1 7062   1.695   5.537   5.399 -1.3290 -1.3131 -0.0655
 2366TIP3    H2 7063   1.631   5.671   5.370  1.5507  0.2387  0.3971
 2367TIP3   OH2 7064   3.405   2.181   5.543 -0.7846  0.1441 -0.2279
 2367TIP3    H1 7065   3.455   2.263   5.545 -2.0568  0.9483  0.4128
 2367TIP3    H2 7066   3.432   2.138   5.463  0.5197  0.8046 -0.1717
 2368TIP3   OH2 7067   2.674   6.700   1.063 -0.6239  0.2378 -1.0423
 2368TIP3    H1 7068   2.732   6.637   1.020  0.2780  0.9384 -0.9074
 2368TIP3    H2 7069   2.604   6.648   1.100 -0.6391 -0.5350 -2.1160
 2369TIP3   OH2 7070   3.429   0.052   0.229  0.0138  0.2254  0.1057
 2369TIP3    H1 7071   3.514   0.071   0.268  0.0101 -0.3587  0.4236
 2369TIP3    H2 7072   3.447   0.036   0.137  0.6615 -2.4139  0.6142
 2370TIP3   OH2 7073   2.844   6.486   1.645  0.4329  0.1210  0.1533
 2370TIP3    H1 7074   2.914   6.424   1.627  1.1215  0.9058  0.0684
 2370TIP3    H2 7075   2.888   6.561   1.685  0.0930  1.8748 -2.5338
 2371TIP3   OH2 7076   5.132   5.261   3.036  0.4887 -0.5018  0.4889
 2371TIP3    H1 7077   5.153   5.264   3.129 -1.7581  2.1846  1.0474
 2371TIP3    H2 7078   5.037   5.253   3.033  0.5456 -1.1182 -1.6237
 2372TIP3   OH2 7079   4.973   2.051   5.824  0.2565  0.2927 -0.2936
 2372TIP3    H1 7080   4.910   2.067   5.895  0.0219  0.6107 -0.5735
 2372TIP3    H2 7081   4.928   1.990   5.765 -0.1887  1.3142 -1.0225
 2373TIP3   OH2 7082   1.889   2.495   2.040  0.0919 -0.0823 -0.7341
 2373TIP3    H1 7083   1.952   2.478   1.970 -0.3087  0.1739 -1.1578
 2373TIP3    H2 7084   1.858   2.585   2.024  0.8702  0.4327  0.4482
 2374TIP3   OH2 7085   0.459   4.645   0.681 -0.7275 -0.4644 -0.7996
 2374TIP3    H1 7086   0.384   4.700   0.659 -2.0566 -0.5777  2.6837
 2374TIP3    H2 7087   0.516   4.703   0.731 -1.2463 -1.6608  1.3097
 2375TIP3   OH2 7088   7.003   6.683   3.238 -0.4832 -0.3290  0.4220
 2375TIP3    H1 7089   7.024   6.738   3.313  2.5012  0.2759 -0.6945
 2375TIP3    H2 7090   7.082   6.685   3.184 -2.1256 -1.5161 -2.2679
 2376TIP3   OH2 7091   1.258   5.532   3.808  0.1984  0.4799 -0.2326
 2376TIP3    H1 7092   1.226   5.607   3.857  0.5563  1.1603 -1.0182
 2376TIP3    H2 7093   1.194   5.521   3.736 -2.1537 -2.4541  2.0268
 2377TIP3   OH2 7094   0.111   4.517   5.266  0.1195  0.1607 -0.1527
 2377TIP3    H1 7095   0.139   4.567   5.190  1.4646 -1.2803 -0.6681
 2377TIP3    H2 7096   0.073   4.437   5.229  1.5646 -0.9533  0.6201
 2378TIP3   OH2 7097   2.022   3.381   5.718 -0.5683 -0.4775  0.2329
 2378TIP3    H1 7098   1.946   3.410   5.668 -1.8258 -0.3777  2.0961
 2378TIP3    H2 7099   1.994   3.300   5.760 -0.7936  1.0618  3.3265
 2379TIP3   OH2 7100   4.036   0.394   4.806 -0.4241  0.2286  0.2111
 2379TIP3    H1 7101   4.085   0.337   4.748 -1.6479  1.1071 -1.7952
 2379TIP3    H2 7102   4.049   0.482   4.772 -1.8289  0.6902  0.7480
 2380TIP3   OH2 7103   3.627   2.645   0.249 -0.3861  0.5324 -0.2031
 2380TIP3    H1 7104   3.558   2.659   0.184 -0.8271  1.4621  0.4513
 2380TIP3    H2 7105   3.581   2.636   0.332  0.2964  1.9521  0.3695
 2381TIP3   OH2 7106   5.626   5.352   5.832 -0.0351  0.2884  0.2368
 2381TIP3    H1 7107   5.599   5.358   5.740  0.5669  0.3163  0.0559
 2381TIP3    H2 7108   5.609   5.261   5.856 -0.9596  0.4860  0.3460
 2382TIP3   OH2 7109   4.990   2.022   4.862  0.4282 -0.2735 -0.2642
 2382TIP3    H1 7110   4.990   1.968   4.784  0.4164 -1.8722  0.7865
 2382TIP3    H2 7111   4.991   1.959   4.935  3.1214  1.1279  1.0406
 2383TIP3   OH2 7112   4.843   0.752   0.372 -0.3519 -0.5408 -0.2930
 2383TIP3    H1 7113   4.809   0.829   0.325 -0.4509  0.3831  1.2242
 2383TIP3    H2 7114   4.931   0.739   0.335 -0.3827  0.2209 -0.6640
 2384TIP3   OH2 7115   6.595   1.906   2.260 -0.1509 -0.6501 -0.0362
 2384TIP3    H1 7116   6.625   1.963   2.189 -0.1507 -0.6967 -0.0736
 2384TIP3    H2 7117   6.572   1.966   2.330  1.1433 -0.6543  0.4262
 2385TIP3   OH2 7118   4.907   4.802   5.304 -0.2716 -0.5943 -0.2238
 2385TIP3    H1 7119   4.940   4.820   5.216 -0.5770  0.4933 -0.1209
 2385TIP3    H2 7120   4.976   4.748   5.344  1.6331  1.8987  0.1045
 2386TIP3   OH2 7121   2.217   3.191   3.187 -0.6608 -0.2264  0.3126
 2386TIP3    H1 7122   2.175   3.275   3.171 -1.1942 -0.4566  0.4503
 2386TIP3    H2 7123   2.165   3.128   3.136 -0.4695 -0.5158  0.4687
 2387TIP3   OH2 7124   7.236   5.267   5.425 -0.1152 -0.3196 -0.1280
 2387TIP3    H1 7125   7.144   5.241   5.424 -0.0664 -0.5163  0.3854
 2387TIP3    H2 7126   7.249   5.312   5.341 -0.7261 -0.1156 -0.1151
 2388TIP3   OH2 7127   2.059   0.209   3.233 -0.1174 -0.2013 -0.6200
 2388TIP3    H1 7128   2.113   0.153   3.289  2.6956  1.9020 -1.0398
 2388TIP3    H2 7129   2.040   0.154   3.156  0.0970 -1.4944  0.2157
 2389TIP3   OH2 7130   3.932   1.368   5.519  0.3641 -0.3374 -0.3062
 2389TIP3    H1 7131   4.024   1.385   5.536  0.7158 -1.0541 -1.4124
 2389TIP3    H2 7132   3.920   1.275   5.538 -0.7169  0.2206  2.1649
 2390TIP3   OH2 7133   2.361   1.823   4.599 -0.1590  0.3909  0.3264
 2390TIP3    H1 7134   2.274   1.859   4.583 -0.0635  0.0965 -0.9829
 2390TIP3    H2 7135   2.374   1.759   4.528  0.1408 -1.3788  1.8982
 2391TIP3   OH2 7136   5.178   5.849   4.676 -0.8038  0.2353  0.0794
 2391TIP3    H1 7137   5.158   5.912   4.606  1.0927 -1.3216 -2.0215
 2391TIP3    H2 7138   5.271   5.828   4.663 -1.5353 -3.6433  0.0253
 2392TIP3   OH2 7139   2.405   4.440   0.190 -0.4811  0.0857  0.5961
 2392TIP3    H1 7140   2.476   4.494   0.223  0.4908 -1.0505  0.4446
 2392TIP3    H2 7141   2.394   4.467   0.099 -0.3966  0.4200  0.6866
 2393TIP3   OH2 7142   0.193   3.811   3.412  0.1204 -0.2393  0.1455
 2393TIP3    H1 7143   0.262   3.872   3.388  2.1666 -1.5612  2.1651
 2393TIP3    H2 7144   0.180   3.757   3.334  1.3066  0.1322 -0.3328
 2394TIP3   OH2 7145   1.616   0.156   0.607  0.0545 -0.2860  0.2420
 2394TIP3    H1 7146   1.617   0.198   0.521  0.7837 -1.8815 -0.5842
 2394TIP3    H2 7147   1.527   0.168   0.639  0.1785  1.6325 -0.0524
 2395TIP3   OH2 7148   7.142   2.849   5.666  0.5078  0.3802 -0.0097
 2395TIP3    H1 7149   7.088   2.837   5.588 -0.1543  2.0633  0.1451
 2395TIP3    H2 7150   7.090   2.813   5.737  0.0895  0.9434 -0.0270
 2396TIP3   OH2 7151   1.427   5.417   4.008  0.3243 -0.4074 -0.2576
 2396TIP3    H1 7152   1.409   5.325   3.985 -1.1703  0.1326 -1.4583
 2396TIP3    H2 7153   1.361   5.466   3.959  1.1358  1.3219  0.3336
 2397TIP3   OH2 7154   0.262   6.538   0.777  0.7878 -0.3635  0.4443
 2397TIP3    H1 7155   0.289   6.597   0.847  0.8013  3.6086 -2.5959
 2397TIP3    H2 7156   0.167   6.551   0.769  0.5617 -1.7670  0.4829
 2398TIP3   OH2 7157   2.463   1.694   3.326  0.1718  0.3968 -0.3701
 2398TIP3    H1 7158   2.512   1.731   3.399 -1.7019 -2.5080  2.6065
 2398TIP3    H2 7159   2.525   1.635   3.283  0.3028 -0.6706  1.2301
 2399TIP3   OH2 7160   5.268   2.618   1.405 -0.8085  0.1971 -0.8552
 2399TIP3    H1 7161   5.359   2.608   1.374 -0.0017  0.9654  1.1063
 2399TIP3    H2 7162   5.218   2.639   1.326  0.7550 -0.0693 -1.9631
 2400TIP3   OH2 7163   1.259   0.246   5.725  0.2220  0.1792  0.3073
 2400TIP3    H1 7164   1.323   0.289   5.667 -0.2332  1.3162  0.6215
 2400TIP3    H2 7165   1.178   0.295   5.712 -0.4242 -0.8561  0.3866
 2401TIP3   OH2 7166   1.508   4.282   3.356 -0.0091  0.0150 -0.3633
 2401TIP3    H1 7167   1.540   4.331   3.280  0.6793  2.8899  1.5903
 2401TIP3    H2 7168   1.510   4.346   3.427 -1.1044 -2.3905  1.9819
 2402TIP3   OH2 7169   5.289   1.833   4.949 -0.2747 -0.1132 -0.8076
 2402TIP3    H1 7170   5.359   1.880   4.993 -0.0922 -0.1960 -1.0072
 2402TIP3    H2 7171   5.211   1.852   5.000 -0.2165  0.4638 -0.9262
 2403TIP3   OH2 7172   0.280   2.263   1.200  0.2742  0.7045  0.1568
 2403TIP3    H1 7173   0.276   2.279   1.106 -3.0804 -2.9723 -0.5697
 2403TIP3    H2 7174   0.322   2.177   1.208  0.1733  0.7876  2.0275
 2404TIP3   OH2 7175   1.910   5.881   4.533  0.4503  0.1472 -0.0221
 2404TIP3    H1 7176   1.891   5.906   4.442  0.2569  0.6768  0.1607
 2404TIP3    H2 7177   2.002   5.905   4.546  0.5433 -0.1315 -0.1394
 2405TIP3   OH2 7178   5.107   5.590   1.586 -0.2651  0.0075 -0.2376
 2405TIP3    H1 7179   5.169   5.644   1.634  0.7228 -0.2740 -1.1531
 2405TIP3    H2 7180   5.157   5.555   1.512 -1.3774 -0.6427 -0.7215
 2406TIP3   OH2 7181   4.584   6.180   4.740 -0.5905  0.2633 -0.0869
 2406TIP3    H1 7182   4.564   6.087   4.748  1.0569 -0.1201 -0.1885
 2406TIP3    H2 7183   4.638   6.186   4.661 -2.5138  1.6367 -1.3974
 2407TIP3   OH2 7184   0.924   1.802   5.609  0.2386  0.3786 -0.3825
 2407TIP3    H1 7185   0.860   1.751   5.559 -0.4403 -1.0289  1.7845
 2407TIP3    H2 7186   0.874   1.872   5.650  0.4979  0.5753 -0.3939
 2408TIP3   OH2 7187   6.904   4.155   5.149 -0.0977 -0.1024  0.4737
 2408TIP3    H1 7188   6.977   4.152   5.211  0.2863 -1.6870 -0.0053
 2408TIP3    H2 7189   6.856   4.074   5.164 -0.3001 -0.2702 -0.9301
 2409TIP3   OH2 7190   0.037   4.510   2.429  0.0448 -0.6398  0.2094
 2409TIP3    H1 7191  -0.003   4.594   2.453 -0.2946 -0.8920  0.5317
 2409TIP3    H2 7192  -0.027   4.470   2.370 -0.0240 -0.8954  0.4574
 2410TIP3   OH2 7193   4.288   5.750   2.336 -0.2581 -0.3831  0.3035
 2410TIP3    H1 7194   4.307   5.734   2.429  1.7978 -0.0970 -0.0249
 2410TIP3    H2 7195   4.231   5.678   2.311 -1.2457 -0.2161  1.8829
 2411TIP3   OH2 7196   3.799   2.899   0.320 -0.1587  0.4805  0.0146
 2411TIP3    H1 7197   3.891   2.924   0.333 -0.3353  0.2845  1.9257
 2411TIP3    H2 7198   3.802   2.804   0.305 -0.0432  0.4634  0.1395
 2412TIP3   OH2 7199   4.935   4.207   0.441 -0.4342  0.1708  0.6476
 2412TIP3    H1 7200   4.981   4.260   0.506 -2.0912  0.1202  1.9274
 2412TIP3    H2 7201   4.989   4.213   0.362  0.9633  1.2960  1.6436
 2413TIP3   OH2 7202   3.264   5.993   5.605 -0.4636 -0.0807 -0.4676
 2413TIP3    H1 7203   3.318   5.992   5.684 -0.7607  0.8141 -0.2416
 2413TIP3    H2 7204   3.229   6.081   5.602  0.1148  0.1166 -2.0021
 2414TIP3   OH2 7205   1.658   3.338   1.768 -0.0732  0.3842  0.0047
 2414TIP3    H1 7206   1.602   3.336   1.690  0.9510 -0.1877 -0.7255
 2414TIP3    H2 7207   1.665   3.431   1.790 -0.9138  0.4996 -0.1619
 2415TIP3   OH2 7208   5.478   2.585   5.383  0.0816  0.6360 -0.0940
 2415TIP3    H1 7209   5.488   2.529   5.459 -0.0018  0.1766 -0.4149
 2415TIP3    H2 7210   5.384   2.592   5.370  0.0644  1.5511  0.4480
 2416TIP3   OH2 7211   2.477   4.296   2.133 -0.1312  0.4737  0.0249
 2416TIP3    H1 7212   2.382   4.293   2.142 -0.1995  1.7076 -0.1186
 2416TIP3    H2 7213   2.508   4.334   2.215  0.4121 -1.5288  0.8134
 2417TIP3   OH2 7214   7.081   3.895   1.085  0.0876  0.5558 -0.1334
 2417TIP3    H1 7215   7.109   3.844   1.161  0.5351 -1.5031 -1.5931
 2417TIP3    H2 7216   7.158   3.897   1.028 -0.1703  2.2475 -0.4735
 2418TIP3   OH2 7217   3.037   4.036   5.401  0.1371  0.1954 -0.0840
 2418TIP3    H1 7218   3.029   3.948   5.363 -0.7795  1.1778 -2.3570
 2418TIP3    H2 7219   3.129   4.042   5.428 -0.1082 -1.9351  1.5054
 2419TIP3   OH2 7220   5.345   0.345   1.302  0.5358 -0.4437  0.6127
 2419TIP3    H1 7221   5.281   0.410   1.274  0.5536 -0.8289 -0.3519
 2419TIP3    H2 7222   5.317   0.264   1.259  1.6856 -0.6083  0.1548
 2420TIP3   OH2 7223   3.360   5.918   2.194 -0.1395 -0.4082 -0.3867
 2420TIP3    H1 7224   3.408   5.835   2.194 -2.2920 -1.7094  0.4119
 2420TIP3    H2 7225   3.378   5.956   2.280  0.8193 -0.0208 -0.7403
 2421TIP3   OH2 7226   2.835   4.357   4.309  0.2220 -0.3808  0.5069
 2421TIP3    H1 7227   2.766   4.421   4.329 -0.2624 -0.8369  0.3199
 2421TIP3    H2 7228   2.880   4.344   4.392  0.1999  0.0508  0.5931
 2422TIP3   OH2 7229   2.748   5.590   1.560 -0.0102 -0.3530 -0.0773
 2422TIP3    H1 7230   2.704   5.612   1.642  1.7553  0.9162  0.5765
 2422TIP3    H2 7231   2.828   5.544   1.587  0.3892 -0.3014 -1.1135
 2423TIP3   OH2 7232   2.866   4.599   3.283  0.4814  0.0491  0.1168
 2423TIP3    H1 7233   2.782   4.644   3.273  0.8669  0.9354  0.7218
 2423TIP3    H2 7234   2.903   4.597   3.195  0.3636  0.7646  0.0427
 2424TIP3   OH2 7235   2.514   2.554   3.662  0.2621  0.3272 -0.0165
 2424TIP3    H1 7236   2.581   2.607   3.705 -0.2703 -0.8463  2.5041
 2424TIP3    H2 7237   2.447   2.542   3.729 -1.4801 -0.2909 -1.7736
 2425TIP3   OH2 7238   0.729   5.411   0.053  0.3956  0.1133 -0.5121
 2425TIP3    H1 7239   0.778   5.459   0.119 -0.3977 -0.7514  0.7510
 2425TIP3    H2 7240   0.784   5.335   0.032  0.1304 -0.2612  0.0879
 2426TIP3   OH2 7241   0.565   2.333   5.424  0.4446  0.2280  0.3288
 2426TIP3    H1 7242   0.487   2.293   5.464  1.2256  0.2823  1.9774
 2426TIP3    H2 7243   0.629   2.338   5.495  1.7332  0.8160 -0.8227
 2427TIP3   OH2 7244   3.274   5.910   4.666  0.1753  1.0841  0.6107
 2427TIP3    H1 7245   3.326   5.830   4.676 -1.6552 -0.1959  0.2585
 2427TIP3    H2 7246   3.334   5.980   4.693  1.9767 -0.3320  0.5128
 2428TIP3   OH2 7247   0.658   4.515   2.513  0.0384  0.2239  0.5387
 2428TIP3    H1 7248   0.647   4.470   2.429  0.5772  1.1017 -0.0157
 2428TIP3    H2 7249   0.673   4.606   2.490  2.1607  0.1822  1.4841
 2429TIP3   OH2 7250   6.294   3.996   0.714 -0.3535 -0.2543 -0.3914
 2429TIP3    H1 7251   6.350   3.923   0.687 -1.4233 -0.9058 -0.8977
 2429TIP3    H2 7252   6.283   3.984   0.808  1.3664  0.6068 -0.0411
 2430TIP3   OH2 7253   1.444   1.166   3.167  0.4931 -0.2312  0.4655
 2430TIP3    H1 7254   1.444   1.092   3.106 -0.6771 -0.8168  1.1420
 2430TIP3    H2 7255   1.509   1.143   3.233  0.0512 -0.7290  0.7356
 2431TIP3   OH2 7256   4.083   3.165   3.512  0.4901  0.1805  0.5387
 2431TIP3    H1 7257   3.994   3.194   3.491  0.0983 -1.3508 -0.0579
 2431TIP3    H2 7258   4.110   3.115   3.436  2.3675  1.6303  0.1948
 2432TIP3   OH2 7259   3.948   0.560   5.324  0.9037 -0.2252  0.6194
 2432TIP3    H1 7260   3.938   0.466   5.338 -0.3079 -0.3828 -0.9983
 2432TIP3    H2 7261   4.040   0.571   5.297  0.6040 -1.2496 -0.9743
 2433TIP3   OH2 7262   3.722   2.722   1.413  0.3035 -0.3395  0.2413
 2433TIP3    H1 7263   3.784   2.672   1.361 -0.7441 -0.7830 -0.5975
 2433TIP3    H2 7264   3.673   2.657   1.463  1.2694  0.0724  1.8028
 2434TIP3   OH2 7265   0.881   2.695   3.503 -0.3882 -0.2517  0.0362
 2434TIP3    H1 7266   0.900   2.789   3.496  0.0525 -0.3322  0.1664
 2434TIP3    H2 7267   0.836   2.674   3.421 -0.8222  0.1500  0.1623
 2435TIP3   OH2 7268   3.707   1.253   2.833  0.5178  1.0656  0.0070
 2435TIP3    H1 7269   3.725   1.236   2.740 -1.3675  0.5221 -0.3064
 2435TIP3    H2 7270   3.634   1.316   2.832 -1.0286 -0.6060  1.0353
 2436TIP3   OH2 7271   6.934   0.101   2.194 -0.4022  0.1517 -0.1587
 2436TIP3    H1 7272   6.862   0.142   2.146 -1.1806  0.4399  1.2005
 2436TIP3    H2 7273   6.891   0.043   2.257  0.4982  0.9552  1.2572
 2437TIP3   OH2 7274   3.078   1.494   2.526  0.0170 -0.3514  0.0485
 2437TIP3    H1 7275   3.024   1.453   2.458  0.3503  0.3986 -0.6905
 2437TIP3    H2 7276   3.037   1.580   2.539  0.2916 -0.2718  0.3849
 2438TIP3   OH2 7277   3.143   3.292   4.421  0.2783 -0.0938 -0.0059
 2438TIP3    H1 7278   3.080   3.359   4.395  0.9703  0.2786 -0.8128
 2438TIP3    H2 7279   3.090   3.218   4.449 -0.5085  0.3328 -0.3350
 2439TIP3   OH2 7280   2.489   0.966   4.479  0.1405 -0.4324  0.5617
 2439TIP3    H1 7281   2.510   1.059   4.471  0.4543 -0.5038  0.5507
 2439TIP3    H2 7282   2.573   0.925   4.501 -0.1719 -0.5880  1.5160
 2440TIP3   OH2 7283   1.051   2.729   2.890 -0.2449 -0.2968 -0.3883
 2440TIP3    H1 7284   1.013   2.643   2.870  0.4257 -1.3280  2.3998
 2440TIP3    H2 7285   1.011   2.755   2.973  1.9196  0.5968  0.4331
 2441TIP3   OH2 7286   3.329   4.900   3.207  0.0010 -0.1217 -0.1450
 2441TIP3    H1 7287   3.252   4.951   3.182  1.7244  2.7292 -0.1530
 2441TIP3    H2 7288   3.338   4.916   3.301  0.9130  0.0871 -0.2628
 2442TIP3   OH2 7289   2.914   1.904   1.611  0.1333 -0.4818 -0.1884
 2442TIP3    H1 7290   2.867   1.985   1.590 -0.8218 -0.7534  0.8129
 2442TIP3    H2 7291   2.983   1.899   1.545  0.6404  1.4879  0.1277
 2443TIP3   OH2 7292   0.304   4.908   2.163  0.1894 -0.4360 -0.0755
 2443TIP3    H1 7293   0.274   4.875   2.248  2.4491  0.2859  1.0750
 2443TIP3    H2 7294   0.234   4.967   2.135 -0.8654 -1.1252  0.9943
 2444TIP3   OH2 7295   6.007   6.465   5.711 -0.4643 -0.3811 -0.3456
 2444TIP3    H1 7296   6.102   6.479   5.701 -0.8148  0.7718 -2.7897
 2444TIP3    H2 7297   5.995   6.453   5.805  2.3290 -2.4423 -0.1201
 2445TIP3   OH2 7298   3.818   1.121   4.745 -0.4495  0.1849 -0.2698
 2445TIP3    H1 7299   3.851   1.043   4.700  2.0149  0.2448  1.2773
 2445TIP3    H2 7300   3.808   1.095   4.836  2.6294  2.1449  0.7870
 2446TIP3   OH2 7301   2.348   6.185   1.540  0.7292 -0.1474 -0.0695
 2446TIP3    H1 7302   2.426   6.194   1.595  1.6486 -0.6006 -1.2449
 2446TIP3    H2 7303   2.376   6.215   1.454 -0.4878 -0.0766 -0.4584
 2447TIP3   OH2 7304   4.287   4.068   3.914  0.7514 -0.0547  0.4017
 2447TIP3    H1 7305   4.381   4.063   3.896  0.3744 -0.9009 -1.6789
 2447TIP3    H2 7306   4.256   4.140   3.858 -0.0295 -0.6310  0.0767
 2448TIP3   OH2 7307   2.414   3.363   3.504  0.9640  0.1987  0.8080
 2448TIP3    H1 7308   2.414   3.271   3.532 -0.4346 -0.2977 -0.6763
 2448TIP3    H2 7309   2.411   3.412   3.586  1.9795 -1.0501  1.6379
 2449TIP3   OH2 7310   1.185   3.986   0.404 -0.0136 -0.4141 -0.2439
 2449TIP3    H1 7311   1.225   3.956   0.486  0.6485 -1.3500 -0.8914
 2449TIP3    H2 7312   1.202   4.080   0.403  0.8250 -0.5473  0.2469
 2450TIP3   OH2 7313   2.381   2.736   4.470 -0.3571  0.5124 -0.3331
 2450TIP3    H1 7314   2.296   2.708   4.437 -1.1966  1.9395  0.5263
 2450TIP3    H2 7315   2.375   2.831   4.475  1.2750  0.6352 -0.1927
 2451TIP3   OH2 7316   5.279   2.575   3.309 -0.9142 -0.2219 -0.6270
 2451TIP3    H1 7317   5.215   2.594   3.241 -0.7219  0.7525 -0.5475
 2451TIP3    H2 7318   5.342   2.647   3.305 -1.2220  0.1883  0.9534
 2452TIP3   OH2 7319   2.285   5.381   1.460  0.1523 -0.3163  0.0100
 2452TIP3    H1 7320   2.321   5.365   1.373 -1.5551  2.2276 -1.2809
 2452TIP3    H2 7321   2.191   5.365   1.451  0.2630 -3.2994  2.3664
 2453TIP3   OH2 7322   4.503   3.187   5.170 -0.6660 -0.5375 -0.1532
 2453TIP3    H1 7323   4.589   3.214   5.140 -0.6646  0.1631  0.4364
 2453TIP3    H2 7324   4.448   3.265   5.159 -1.1510 -0.8815 -0.2334
 2454TIP3   OH2 7325   0.201   6.286   4.384 -0.3371 -0.3625  0.7290
 2454TIP3    H1 7326   0.183   6.344   4.309  0.2234  0.3182  1.1124
 2454TIP3    H2 7327   0.128   6.301   4.444 -0.4438 -0.4205  0.6147
 2455TIP3   OH2 7328   5.668   0.216   0.805 -0.0246  0.1115 -0.3704
 2455TIP3    H1 7329   5.684   0.290   0.865  3.2478 -0.5096 -0.2791
 2455TIP3    H2 7330   5.691   0.250   0.719 -0.4365 -0.2557 -0.6291
 2456TIP3   OH2 7331   4.366   2.970   1.901 -0.3051 -0.5471 -0.0475
 2456TIP3    H1 7332   4.432   2.984   1.833  0.4345  0.9723  0.9269
 2456TIP3    H2 7333   4.393   2.889   1.945  0.1496 -0.6408 -0.4957
 2457TIP3   OH2 7334   1.314   4.363   2.324 -0.0635  0.3987  0.1071
 2457TIP3    H1 7335   1.305   4.384   2.231  0.5612 -0.3169 -0.1256
 2457TIP3    H2 7336   1.229   4.385   2.362  0.1673  2.2099 -0.3203
 2458TIP3   OH2 7337   6.895   3.339   3.307  0.1398  0.4240  0.3187
 2458TIP3    H1 7338   6.827   3.323   3.372 -0.2158 -1.7017 -0.4659
 2458TIP3    H2 7339   6.848   3.372   3.231 -0.0688 -0.9444 -0.1870
 2459TIP3   OH2 7340   6.321   6.081   1.931  0.5599 -0.4598  0.3207
 2459TIP3    H1 7341   6.253   6.147   1.921  0.5269 -0.7184 -1.5885
 2459TIP3    H2 7342   6.390   6.125   1.980 -0.0252  0.5384  0.2829
 2460TIP3   OH2 7343   4.033   1.091   5.511 -0.0622 -0.3484 -0.0757
 2460TIP3    H1 7344   4.054   1.105   5.419 -0.7393 -0.2660 -0.2269
 2460TIP3    H2 7345   4.117   1.078   5.554  0.1959 -1.6286 -0.9101
 2461TIP3   OH2 7346   5.915   5.981   0.689  0.5144 -0.7600  0.3668
 2461TIP3    H1 7347   5.885   6.048   0.752  0.2970 -1.9268  1.5508
 2461TIP3    H2 7348   5.838   5.929   0.671  0.2010  0.4116 -2.0812
 2462TIP3   OH2 7349   0.067   0.549   0.390  0.2664 -0.2970  0.7250
 2462TIP3    H1 7350   0.069   0.456   0.364 -0.5096 -0.0649 -0.2517
 2462TIP3    H2 7351  -0.026   0.573   0.383  0.5944  0.8120 -0.0287
 2463TIP3   OH2 7352   0.829   5.704   5.324 -0.1266 -0.2324  0.3288
 2463TIP3    H1 7353   0.920   5.689   5.351 -0.1630 -0.5813  0.2637
 2463TIP3    H2 7354   0.786   5.735   5.404  0.8658  3.6815 -0.4381
 2464TIP3   OH2 7355   0.902   6.160   0.559 -0.2846  0.4162  0.2226
 2464TIP3    H1 7356   0.886   6.223   0.630  2.2994  0.7270  0.6390
 2464TIP3    H2 7357   0.982   6.192   0.517  0.7159 -2.1906 -0.0124
 2465TIP3   OH2 7358   2.087   0.948   4.785  0.1338 -0.4407  0.1175
 2465TIP3    H1 7359   2.158   0.970   4.845 -0.4364 -1.6369  1.2617
 2465TIP3    H2 7360   2.008   0.977   4.830 -0.3448 -1.8124  0.1970
 2466TIP3   OH2 7361   0.564   3.751   1.099 -0.2733  0.1483 -0.3329
 2466TIP3    H1 7362   0.566   3.844   1.121  0.0379  0.5986 -2.0700
 2466TIP3    H2 7363   0.471   3.730   1.092 -0.3849 -0.0736  1.5284
 2467TIP3   OH2 7364   7.033   5.010   4.603  0.4455  0.5722  0.1063
 2467TIP3    H1 7365   6.994   4.924   4.591 -0.4111  1.0325 -0.5599
 2467TIP3    H2 7366   7.077   5.005   4.689 -0.1100 -0.3229  0.3516
 2468TIP3   OH2 7367   0.565   6.008   1.599  0.0805 -0.1206  0.5781
 2468TIP3    H1 7368   0.590   6.074   1.664  0.9801 -1.0964  1.2457
 2468TIP3    H2 7369   0.532   5.935   1.651 -0.3016 -0.4505 -0.1267
 2469TIP3   OH2 7370   6.226   4.279   5.717  0.5395  0.5312  0.6215
 2469TIP3    H1 7371   6.297   4.307   5.659 -0.2085  1.0823 -0.0338
 2469TIP3    H2 7372   6.160   4.241   5.659  0.0283  0.5817  1.1609
 2470TIP3   OH2 7373   4.935   1.103   1.268 -0.2911 -0.4423 -0.2322
 2470TIP3    H1 7374   4.967   1.097   1.178 -2.4925 -0.3676 -1.1001
 2470TIP3    H2 7375   5.013   1.103   1.322  1.1338  0.2330 -2.1820
 2471TIP3   OH2 7376   5.252   3.401   0.144  0.3914  0.0636  0.6024
 2471TIP3    H1 7377   5.276   3.480   0.096  0.4732 -0.2195  0.1656
 2471TIP3    H2 7378   5.336   3.366   0.175  0.3583  0.1245  0.7649
 2472TIP3   OH2 7379   3.167   3.224   2.226  0.1282 -0.8545 -0.3034
 2472TIP3    H1 7380   3.198   3.202   2.138  0.7593 -0.9127 -0.0758
 2472TIP3    H2 7381   3.207   3.158   2.283 -1.2704 -1.5676 -0.1093
 2473TIP3   OH2 7382   4.232   4.859   0.581 -0.0807  0.2994 -0.6959
 2473TIP3    H1 7383   4.195   4.783   0.536 -1.4719  1.2352 -1.2049
 2473TIP3    H2 7384   4.176   4.872   0.657  0.8626  0.1253  0.0420
 2474TIP3   OH2 7385   4.677   1.277   2.406 -0.1367 -0.0398 -0.2851
 2474TIP3    H1 7386   4.763   1.321   2.407  0.4286 -1.1136  0.8068
 2474TIP3    H2 7387   4.646   1.285   2.496 -0.7753 -0.4585 -0.4672
 2475TIP3   OH2 7388   2.733   4.911   2.194  0.3178  0.0021  0.2592
 2475TIP3    H1 7389   2.804   4.910   2.259  0.4868  1.3277  0.1215
 2475TIP3    H2 7390   2.708   5.003   2.188 -0.7865 -0.3284 -0.3891
 2476TIP3   OH2 7391   5.529   2.270   1.449  0.6268 -0.3901  0.1814
 2476TIP3    H1 7392   5.590   2.290   1.378  0.7942 -2.0274 -0.1824
 2476TIP3    H2 7393   5.447   2.249   1.404  0.2365  0.2295  0.5844
 2477TIP3   OH2 7394   3.967   1.933   2.289  0.2253 -0.1207  0.6856
 2477TIP3    H1 7395   3.882   1.890   2.285 -0.5678  1.4603 -0.5518
 2477TIP3    H2 7396   3.963   1.988   2.367  0.0710  0.0087  0.5871
 2478TIP3   OH2 7397   3.995   3.219   2.674 -0.8479 -0.0526  0.3154
 2478TIP3    H1 7398   4.029   3.201   2.587  1.4139  2.6468  0.5056
 2478TIP3    H2 7399   4.027   3.147   2.728 -0.0267 -0.3878 -0.5881
 2479TIP3   OH2 7400   0.744   4.317   4.652  0.4448  0.5291  0.0386
 2479TIP3    H1 7401   0.683   4.360   4.592 -0.5610 -0.2660  0.4641
 2479TIP3    H2 7402   0.719   4.348   4.739 -0.3326 -0.8700  0.3619
 2480TIP3   OH2 7403   1.241   5.140   3.009  0.1161  0.0077 -0.1545
 2480TIP3    H1 7404   1.196   5.196   3.072 -1.3135 -0.4706 -0.7073
 2480TIP3    H2 7405   1.315   5.104   3.057  0.2645  1.2922  0.6173
 2481TIP3   OH2 7406   1.863   5.060   2.501  0.2168 -0.0756 -0.0377
 2481TIP3    H1 7407   1.767   5.054   2.507  0.1754  0.2088 -0.4270
 2481TIP3    H2 7408   1.893   5.026   2.586 -0.2694  0.9122  0.5502
 2482TIP3   OH2 7409   2.047   0.582   2.472  0.4523  0.1924  0.6542
 2482TIP3    H1 7410   2.022   0.489   2.470 -0.1075  0.3588 -0.3442
 2482TIP3    H2 7411   1.964   0.629   2.479  0.5889  0.6821 -0.8001
 2483TIP3   OH2 7412   5.515   3.826   4.490  0.2272  0.6626  0.0460
 2483TIP3    H1 7413   5.552   3.887   4.553  0.8236  0.5297 -0.1726
 2483TIP3    H2 7414   5.475   3.758   4.545 -0.3976  1.2089  0.2878
 2484TIP3   OH2 7415   2.460   6.577   0.024 -0.7785 -0.1187  0.1303
 2484TIP3    H1 7416   2.372   6.548   0.000 -0.9139  0.7056 -0.4394
 2484TIP3    H2 7417   2.513   6.498   0.022 -0.5343 -0.0881 -4.0305
 2485TIP3   OH2 7418   1.814   2.450   3.885 -0.3114 -0.4283  0.8180
 2485TIP3    H1 7419   1.859   2.375   3.923  1.1398 -0.6987 -1.2983
 2485TIP3    H2 7420   1.877   2.489   3.825 -2.7440 -0.7016 -2.1460
 2486TIP3   OH2 7421   7.039   2.059   1.314  0.5158 -0.2588 -0.1188
 2486TIP3    H1 7422   7.083   2.123   1.258  0.5602 -0.4334 -0.2860
 2486TIP3    H2 7423   6.978   2.014   1.256  0.9594 -0.8208 -0.1589
 2487TIP3   OH2 7424   6.163   6.733   3.562  0.2820  0.2440  0.2189
 2487TIP3    H1 7425   6.140   6.640   3.555 -0.4402  0.4171  0.1934
 2487TIP3    H2 7426   6.081   6.779   3.544  0.9949  0.9377 -1.4152
 2488TIP3   OH2 7427   1.646   5.804   0.334  0.3754  0.0048 -0.2128
 2488TIP3    H1 7428   1.633   5.869   0.265 -2.3208 -1.2937 -1.0925
 2488TIP3    H2 7429   1.594   5.838   0.408 -0.9999 -1.0242 -0.6594
 2489TIP3   OH2 7430   2.608   4.063   2.118 -0.0452  0.0245  0.1774
 2489TIP3    H1 7431   2.680   4.084   2.177 -0.3000 -0.9198  0.8470
 2489TIP3    H2 7432   2.555   4.143   2.114  0.4085  0.3454  0.5957
 2490TIP3   OH2 7433   4.372   3.287   4.168  0.2282  0.4712  0.9126
 2490TIP3    H1 7434   4.292   3.238   4.186 -0.4524  1.8109  1.7552
 2490TIP3    H2 7435   4.430   3.268   4.241 -0.1531  1.1094  1.3994
 2491TIP3   OH2 7436   5.882   5.149   0.816 -0.2163  0.1408 -0.6396
 2491TIP3    H1 7437   5.830   5.149   0.896 -1.8708 -0.6676 -1.6600
 2491TIP3    H2 7438   5.870   5.236   0.780 -1.5371 -0.2608 -1.2418
 2492TIP3   OH2 7439   4.885   4.083   5.697 -0.0882 -0.2753 -0.0382
 2492TIP3    H1 7440   4.868   4.051   5.608  2.8848  1.1729 -1.2705
 2492TIP3    H2 7441   4.975   4.055   5.715 -1.2297 -2.3103  3.4514
 2493TIP3   OH2 7442   5.991   3.644   1.804  0.1109 -0.3425  0.2120
 2493TIP3    H1 7443   5.921   3.645   1.740  0.6861  0.9651 -0.4407
 2493TIP3    H2 7444   5.947   3.654   1.888 -0.5432 -0.5796 -0.0942
 2494TIP3   OH2 7445   6.141   6.648   4.451 -0.0183  0.1575 -0.0767
 2494TIP3    H1 7446   6.171   6.677   4.365 -1.8545 -0.0246 -0.8250
 2494TIP3    H2 7447   6.101   6.562   4.434 -0.3022  0.0706  0.9840
 2495TIP3   OH2 7448   4.292   0.831   1.261  0.0540 -0.1404  0.1501
 2495TIP3    H1 7449   4.214   0.780   1.240  1.0492 -1.4220 -0.5237
 2495TIP3    H2 7450   4.259   0.903   1.315 -1.7895  0.1889 -1.3280
 2496TIP3   OH2 7451   1.941   1.184   2.797 -0.7588  0.1455  0.5860
 2496TIP3    H1 7452   1.944   1.088   2.802 -2.9788 -0.0747 -0.7591
 2496TIP3    H2 7453   2.003   1.206   2.728 -1.2285 -0.4948 -0.0677
 2497TIP3   OH2 7454   5.406   6.795   1.174 -0.2646  0.1435 -0.3718
 2497TIP3    H1 7455   5.462   6.824   1.246  0.5314  1.4508 -1.4814
 2497TIP3    H2 7456   5.374   6.709   1.202  3.3561 -1.3318 -0.2550
 2498TIP3   OH2 7457   5.202   2.782   4.686 -0.0504  0.0545  0.2559
 2498TIP3    H1 7458   5.209   2.793   4.781  0.6841  1.0035  0.1044
 2498TIP3    H2 7459   5.208   2.687   4.672 -1.3794 -0.2063  1.2338
 2499TIP3   OH2 7460   1.285   0.898   2.889 -0.9081  0.4952  0.3781
 2499TIP3    H1 7461   1.337   0.879   2.967 -0.9899  0.3970  0.4094
 2499TIP3    H2 7462   1.332   0.856   2.817 -1.0490  0.2332  0.4363
 2500TIP3   OH2 7463   4.575   0.453   1.310  0.0398  0.6251  0.4394
 2500TIP3    H1 7464   4.614   0.481   1.392  1.3304 -0.3382  0.1837
 2500TIP3    H2 7465   4.618   0.370   1.289 -3.0313 -1.1902  0.7395
 2501TIP3   OH2 7466   6.686   3.962   1.299  0.0879 -0.0510  0.1101
 2501TIP3    H1 7467   6.668   3.959   1.393 -0.7322  0.8316  0.0036
 2501TIP3    H2 7468   6.690   3.871   1.272 -0.3376 -0.3078  0.8874
 2502TIP3   OH2 7469   4.704   4.527   1.291  0.8612 -0.3025 -0.0456
 2502TIP3    H1 7470   4.756   4.599   1.256  0.6393  0.7332  1.6319
 2502TIP3    H2 7471   4.615   4.544   1.260  1.3275 -1.6917 -2.3374
 2503TIP3   OH2 7472   3.372   1.971   4.956 -0.1425  0.0669  0.1114
 2503TIP3    H1 7473   3.465   1.947   4.960  0.2593  1.6894  1.1241
 2503TIP3    H2 7474   3.348   1.958   4.864  0.6597 -1.7707  0.1028
 2504TIP3   OH2 7475   3.561   5.729   2.181  0.1092 -0.1430 -0.0095
 2504TIP3    H1 7476   3.558   5.637   2.156  0.3109 -0.0841 -0.2653
 2504TIP3    H2 7477   3.654   5.746   2.199 -0.0745 -0.2458  1.0436
 2505TIP3   OH2 7478   1.990   6.416   2.922 -0.4568 -0.2042  0.2278
 2505TIP3    H1 7479   2.075   6.457   2.906  0.0719 -1.2001  0.4018
 2505TIP3    H2 7480   1.987   6.343   2.861 -0.2567 -1.4548  1.6608
 2506TIP3   OH2 7481   6.240   6.351   4.080  0.1040  0.0075 -0.4292
 2506TIP3    H1 7482   6.224   6.358   3.986  0.4260 -0.3214 -0.5131
 2506TIP3    H2 7483   6.197   6.269   4.106 -0.7879  0.5628 -0.1044
 2507TIP3   OH2 7484   6.490   1.290   5.854 -0.1661  0.1193  0.0622
 2507TIP3    H1 7485   6.502   1.328   5.941 -2.1824 -0.9599  0.8804
 2507TIP3    H2 7486   6.398   1.305   5.834  0.2344  0.2337 -1.8558
 2508TIP3   OH2 7487   5.895   1.686   5.804  0.1854  0.4450 -0.0205
 2508TIP3    H1 7488   5.987   1.662   5.817  0.3517  0.8150 -0.4851
 2508TIP3    H2 7489   5.846   1.604   5.817  0.3138  0.7181  2.8507
 2509TIP3   OH2 7490   0.908   5.123   5.595 -0.3614  0.0075  0.4382
 2509TIP3    H1 7491   0.999   5.093   5.587 -0.1022  0.9636 -0.2947
 2509TIP3    H2 7492   0.869   5.103   5.511 -0.4030  0.9649  0.2174
 2510TIP3   OH2 7493   4.221   6.368   0.152  0.3260 -0.3287 -0.0523
 2510TIP3    H1 7494   4.238   6.458   0.179  0.2881 -0.3250 -0.0409
 2510TIP3    H2 7495   4.270   6.314   0.214 -0.0547 -0.3329  0.2424
 2511TIP3   OH2 7496   2.001   3.021   3.128  0.1850  0.1053 -0.2886
 2511TIP3    H1 7497   1.931   3.072   3.169 -0.8705  1.0707 -3.0906
 2511TIP3    H2 7498   1.978   2.930   3.145  0.2333  0.4230  1.8301
 2512TIP3   OH2 7499   5.014   2.302   5.744  0.2248 -0.4687 -0.5522
 2512TIP3    H1 7500   4.999   2.217   5.786  1.0696  0.7924  2.6598
 2512TIP3    H2 7501   5.107   2.301   5.720  0.9952  0.3585  1.9786
 2513TIP3   OH2 7502   5.483   0.812   5.012 -0.0283 -0.2705 -0.1747
 2513TIP3    H1 7503   5.549   0.831   4.945 -0.4898 -0.1817 -0.6175
 2513TIP3    H2 7504   5.418   0.759   4.966 -0.7990  0.5283 -0.0387
 2514TIP3   OH2 7505   2.679   0.522   3.030 -0.1109  0.4872  0.2955
 2514TIP3    H1 7506   2.747   0.476   2.981  0.8409  1.5497  0.5812
 2514TIP3    H2 7507   2.727   0.581   3.088 -1.2296 -0.1375  1.9238
 2515TIP3   OH2 7508   5.142   0.463   0.369  0.1672  0.4613 -0.3773
 2515TIP3    H1 7509   5.096   0.511   0.300  1.5367  0.8131 -1.0867
 2515TIP3    H2 7510   5.189   0.530   0.418  1.4728 -0.0324 -0.8910
 2516TIP3   OH2 7511   5.988   3.029   2.537 -0.2310  0.2249  0.3996
 2516TIP3    H1 7512   5.963   3.003   2.626 -0.6117 -0.5813  0.0699
 2516TIP3    H2 7513   5.914   3.082   2.506 -0.1751  0.3619  0.4976
 2517TIP3   OH2 7514   2.672   4.554   4.362  0.7787 -0.1138 -0.0790
 2517TIP3    H1 7515   2.659   4.542   4.456  1.1039 -0.9684 -0.1339
 2517TIP3    H2 7516   2.706   4.643   4.354  0.2260  0.1608  0.5566
 2518TIP3   OH2 7517   2.997   4.290   0.270 -0.0310 -0.2290 -0.1791
 2518TIP3    H1 7518   3.080   4.271   0.314 -0.5396 -0.8514  0.5516
 2518TIP3    H2 7519   3.018   4.290   0.177  0.6607 -1.0733 -0.0368
 2519TIP3   OH2 7520   2.682   3.725   4.670 -0.7649 -0.6564 -0.1892
 2519TIP3    H1 7521   2.662   3.793   4.606 -0.3354  0.5836  0.9411
 2519TIP3    H2 7522   2.777   3.727   4.678 -0.7956 -0.9608  0.2980
 2520TIP3   OH2 7523   6.542   2.812   3.102 -0.3766 -0.3601  0.0696
 2520TIP3    H1 7524   6.485   2.848   3.035  1.0830  0.1490 -0.9642
 2520TIP3    H2 7525   6.490   2.745   3.146 -1.4530 -0.5203 -1.3938
 2521TIP3   OH2 7526   1.250   2.883   5.735 -0.2547 -0.3527  0.1834
 2521TIP3    H1 7527   1.331   2.891   5.785 -0.9413 -0.3793  1.3259
 2521TIP3    H2 7528   1.266   2.935   5.656  0.8705 -0.3561  0.3955
 2522TIP3   OH2 7529   2.379   1.050   4.808  0.2868 -0.5748 -0.1837
 2522TIP3    H1 7530   2.379   1.130   4.861 -0.3831  0.5850 -1.8339
 2522TIP3    H2 7531   2.471   1.030   4.794  0.5447  1.4204 -1.8278
 2523TIP3   OH2 7532   3.988   4.164   5.883  0.0895  0.0002 -0.0134
 2523TIP3    H1 7533   3.943   4.085   5.852  0.3018 -0.2441  0.2844
 2523TIP3    H2 7534   4.058   4.130   5.939 -0.7453  0.4372  1.3377
 2524TIP3   OH2 7535   1.315   6.425   0.717 -0.3510  0.0916  0.1369
 2524TIP3    H1 7536   1.319   6.451   0.625 -2.1680  0.2617  0.0671
 2524TIP3    H2 7537   1.338   6.504   0.765  0.1823  0.1207 -0.1574
 2525TIP3   OH2 7538   3.454   2.557   3.373 -0.1802  0.9474  0.2027
 2525TIP3    H1 7539   3.361   2.546   3.351 -0.0409 -1.8465  0.6317
 2525TIP3    H2 7540   3.455   2.569   3.468 -0.1092  0.2308  0.3040
 2526TIP3   OH2 7541   0.565   5.671   3.080 -0.8628 -0.2205  0.3285
 2526TIP3    H1 7542   0.533   5.629   3.000 -1.2415 -0.0103  0.3670
 2526TIP3    H2 7543   0.486   5.697   3.127 -0.6360  0.5869  0.2782
 2527TIP3   OH2 7544   0.491   2.890   4.222 -0.2860  0.2198 -0.2157
 2527TIP3    H1 7545   0.548   2.875   4.146 -1.0402  1.2367 -1.0139
 2527TIP3    H2 7546   0.550   2.917   4.292  0.5401 -1.6654 -0.1237
 2528TIP3   OH2 7547   6.738   4.141   0.638  0.0716 -0.0625 -0.2344
 2528TIP3    H1 7548   6.755   4.191   0.558  0.1357 -0.5518 -0.5345
 2528TIP3    H2 7549   6.684   4.068   0.609  1.0579 -0.8931 -0.0416
 2529TIP3   OH2 7550   0.512   4.412   0.780 -0.1720 -0.5358 -0.5705
 2529TIP3    H1 7551   0.486   4.491   0.732  0.4440 -0.0924 -0.1774
 2529TIP3    H2 7552   0.522   4.441   0.870 -0.8903 -1.2744 -0.2316
 2530TIP3   OH2 7553   4.215   5.561   3.005  0.2583  0.0780  0.2615
 2530TIP3    H1 7554   4.212   5.564   3.100 -1.0216  0.5470  0.2255
 2530TIP3    H2 7555   4.124   5.570   2.978  0.8303  2.9298 -1.0793
 2531TIP3   OH2 7556   1.275   2.149   2.472 -0.4436 -0.3441 -0.0831
 2531TIP3    H1 7557   1.327   2.083   2.426  1.0846  0.1317  0.9130
 2531TIP3    H2 7558   1.333   2.224   2.481 -0.3967 -0.6455  3.2160
 2532TIP3   OH2 7559   1.439   4.103   2.847 -0.2080 -0.4303 -0.4643
 2532TIP3    H1 7560   1.384   4.167   2.893 -0.1635 -0.2441 -0.6699
 2532TIP3    H2 7561   1.385   4.024   2.844  0.0413 -0.6581  0.5055
 2533TIP3   OH2 7562   6.447   3.266   0.248 -0.0785  0.0527 -0.3705
 2533TIP3    H1 7563   6.413   3.211   0.177 -0.7628  0.9875 -0.7900
 2533TIP3    H2 7564   6.473   3.348   0.204 -0.2539  0.5401  0.4208
 2534TIP3   OH2 7565   5.742   0.229   5.662 -0.9709  0.1902  0.2694
 2534TIP3    H1 7566   5.728   0.157   5.600 -1.2514 -1.8130  2.4964
 2534TIP3    H2 7567   5.835   0.224   5.683 -0.9358  0.6758  0.2369
 2535TIP3   OH2 7568   1.977   4.542   4.608 -0.4196  0.0548  0.2944
 2535TIP3    H1 7569   1.966   4.459   4.563 -0.5670  0.0506  0.3377
 2535TIP3    H2 7570   1.965   4.608   4.540  1.1926  0.0269 -0.0675
 2536TIP3   OH2 7571   7.206   6.418   0.991  0.3815  0.2562  0.0729
 2536TIP3    H1 7572   7.114   6.430   0.967  1.0218 -1.7620 -4.4976
 2536TIP3    H2 7573   7.252   6.487   0.944  1.3811  0.0568  0.7397
 2537TIP3   OH2 7574   2.230   2.603   1.809 -0.3242 -0.3315 -0.0511
 2537TIP3    H1 7575   2.318   2.639   1.821 -0.0144 -0.2652 -2.0506
 2537TIP3    H2 7576   2.183   2.671   1.762 -1.1429 -0.7514  0.1549
 2538TIP3   OH2 7577   5.308   0.204   5.006 -0.2350  0.3449 -0.6652
 2538TIP3    H1 7578   5.311   0.275   5.070 -3.8262 -0.6327  0.7971
 2538TIP3    H2 7579   5.372   0.140   5.039  0.7988  1.5161 -0.3068
 2539TIP3   OH2 7580   3.235   1.333   3.875  0.2701 -0.7978 -0.1865
 2539TIP3    H1 7581   3.213   1.360   3.964  0.4394 -0.9869 -0.0866
 2539TIP3    H2 7582   3.272   1.245   3.885  2.1641 -0.0570 -0.2037
 2540TIP3   OH2 7583   0.936   2.196   0.591 -0.5225  0.7195  0.0999
 2540TIP3    H1 7584   0.849   2.234   0.574 -1.7153 -1.5700  0.6079
 2540TIP3    H2 7585   0.975   2.187   0.504 -1.5420  0.1751 -0.3261
 2541TIP3   OH2 7586   6.680   2.119   0.427 -0.0613  0.7201  0.1841
 2541TIP3    H1 7587   6.644   2.076   0.350 -0.8500  0.4526  0.6885
 2541TIP3    H2 7588   6.718   2.201   0.394 -0.5030  0.6698 -0.4615
 2542TIP3   OH2 7589   4.260   5.714   0.615  0.2933 -0.2291 -0.1763
 2542TIP3    H1 7590   4.328   5.747   0.556 -1.3489  0.6405 -1.6899
 2542TIP3    H2 7591   4.202   5.663   0.559 -0.9412  0.0177  0.8344
 2543TIP3   OH2 7592   2.789   1.285   4.012  0.0593  0.1971 -0.0820
 2543TIP3    H1 7593   2.790   1.364   3.960 -0.8685  0.1753 -0.1437
 2543TIP3    H2 7594   2.881   1.256   4.013 -0.1174 -0.8365 -3.2575
 2544TIP3   OH2 7595   0.585   0.175   3.757  0.1288 -0.3573  0.6251
 2544TIP3    H1 7596   0.619   0.113   3.821 -1.4943 -0.0595  1.8415
 2544TIP3    H2 7597   0.523   0.229   3.806  1.2028  2.0258 -0.4606
 2545TIP3   OH2 7598   6.449   1.284   0.614 -0.7963  0.3046 -0.4601
 2545TIP3    H1 7599   6.383   1.335   0.568  0.7230  2.2084 -0.6521
 2545TIP3    H2 7600   6.529   1.335   0.605  0.5831 -1.6213  0.2813
 2546TIP3   OH2 7601   0.324   0.559   2.807 -0.6932 -0.6523  0.0298
 2546TIP3    H1 7602   0.280   0.643   2.797 -0.1007 -0.3686 -0.2641
 2546TIP3    H2 7603   0.295   0.507   2.733 -0.7442 -0.5594 -0.0159
 2547TIP3   OH2 7604   5.507   4.503   1.014 -0.2769  0.2653 -0.3553
 2547TIP3    H1 7605   5.598   4.478   0.998 -0.0773 -0.3744  1.5262
 2547TIP3    H2 7606   5.496   4.587   0.968  1.2870  0.3925 -0.5334
 2548TIP3   OH2 7607   5.237   3.515   5.053  0.1519 -0.2520 -0.1083
 2548TIP3    H1 7608   5.207   3.602   5.030 -2.5648 -1.1989 -0.5280
 2548TIP3    H2 7609   5.298   3.491   4.984  0.1882  0.9502 -0.5001
 2549TIP3   OH2 7610   0.672   5.032   5.819  0.1925 -0.1734  0.2196
 2549TIP3    H1 7611   0.609   5.092   5.779 -0.8459 -1.5330 -0.2751
 2549TIP3    H2 7612   0.746   5.031   5.759 -0.8927 -1.3585 -1.1758
 2550TIP3   OH2 7613   5.828   3.260   3.350 -0.6237  0.3251 -0.3256
 2550TIP3    H1 7614   5.816   3.285   3.442  1.5802  0.6371 -0.0647
 2550TIP3    H2 7615   5.874   3.176   3.353  0.1772  0.7140 -1.1119
 2551TIP3   OH2 7616   6.575   2.536   2.784 -0.2887 -0.1705 -0.6824
 2551TIP3    H1 7617   6.482   2.522   2.804 -0.5831 -1.8119 -2.7900
 2551TIP3    H2 7618   6.615   2.451   2.800  0.8070  0.4182 -0.2081
 2552TIP3   OH2 7619   0.994   4.210   4.736 -0.1262 -0.3097  0.5492
 2552TIP3    H1 7620   0.912   4.257   4.722  0.8080  1.0844 -0.4034
 2552TIP3    H2 7621   1.010   4.164   4.654 -0.1014 -0.8357  0.8423
 2553TIP3   OH2 7622   3.761   5.397   4.435 -0.0489  0.1664  0.3035
 2553TIP3    H1 7623   3.800   5.428   4.353 -0.8763  1.7124  0.4485
 2553TIP3    H2 7624   3.800   5.451   4.503  0.1824 -0.6967  0.8778
 2554TIP3   OH2 7625   6.591   6.666   1.108 -0.0445 -0.0693  0.4788
 2554TIP3    H1 7626   6.524   6.730   1.134 -0.6842 -0.4974 -0.0701
 2554TIP3    H2 7627   6.649   6.716   1.050 -0.6363 -0.0064 -0.0827
 2555TIP3   OH2 7628   4.491   0.804   4.668  0.6054  0.4281  0.1506
 2555TIP3    H1 7629   4.432   0.817   4.742  1.2099  1.0245  0.5288
 2555TIP3    H2 7630   4.454   0.857   4.598  0.3588  0.3175  0.1938
 2556TIP3   OH2 7631   0.438   2.747   4.609  0.1569 -1.0884 -0.3970
 2556TIP3    H1 7632   0.406   2.728   4.697 -0.3729 -0.6230 -0.4847
 2556TIP3    H2 7633   0.382   2.697   4.550 -0.7703  0.1176 -0.5817
 2557TIP3   OH2 7634   6.217   5.335   1.239  0.1186  0.1813  0.1373
 2557TIP3    H1 7635   6.173   5.250   1.238 -0.2869  0.3805  0.6163
 2557TIP3    H2 7636   6.190   5.376   1.156  1.2618 -0.6146 -0.6653
 2558TIP3   OH2 7637   0.553   0.383   1.208  0.2498 -0.1310 -0.2801
 2558TIP3    H1 7638   0.482   0.424   1.258 -0.4388  0.7904 -1.9431
 2558TIP3    H2 7639   0.628   0.384   1.268 -1.1533 -1.3777  1.6251
 2559TIP3   OH2 7640   3.998   4.022   3.367  0.6547 -0.1505 -0.0126
 2559TIP3    H1 7641   4.011   4.094   3.305  0.2762  0.2471  0.3595
 2559TIP3    H2 7642   3.906   3.998   3.356  0.9572 -1.0794 -0.6582
 2560TIP3   OH2 7643   1.436   2.305   5.808  0.0148 -0.1528  0.2427
 2560TIP3    H1 7644   1.401   2.230   5.760 -1.4017  0.7070 -0.1372
 2560TIP3    H2 7645   1.530   2.302   5.792  0.0452 -2.0987  0.6367
 2561TIP3   OH2 7646   3.134   5.647   5.289 -0.1102 -0.2935 -0.6735
 2561TIP3    H1 7647   3.192   5.719   5.315  0.7101 -0.1232 -2.8072
 2561TIP3    H2 7648   3.139   5.585   5.361  3.2790 -0.5967 -1.0248
 2562TIP3   OH2 7649   1.635   0.701   2.194  0.2092  0.5725  0.2305
 2562TIP3    H1 7650   1.701   0.636   2.171  0.3538  0.9084 -0.3271
 2562TIP3    H2 7651   1.616   0.746   2.111 -1.1220  0.1127  0.2501
 2563TIP3   OH2 7652   4.000   3.564   5.627  0.1880  0.3767 -0.0325
 2563TIP3    H1 7653   4.029   3.497   5.689 -0.3501  1.1547  1.0942
 2563TIP3    H2 7654   4.015   3.525   5.541 -1.0542 -1.6111  0.5823
 2564TIP3   OH2 7655   6.089   3.824   3.222 -0.0443 -0.7105  0.4618
 2564TIP3    H1 7656   6.142   3.901   3.242  0.7316 -1.2905  0.6906
 2564TIP3    H2 7657   6.008   3.837   3.273 -0.0432  0.0745  0.2781
 2565TIP3   OH2 7658   6.904   4.389   1.044  0.7608  0.3349  0.5019
 2565TIP3    H1 7659   6.949   4.352   0.968  0.3144  0.9530 -0.0684
 2565TIP3    H2 7660   6.890   4.314   1.102 -2.9938 -1.1771 -1.9999
 2566TIP3   OH2 7661   3.475   0.930   3.818  0.4397  0.3226  0.3620
 2566TIP3    H1 7662   3.477   0.988   3.741  1.0241  1.1278  0.9653
 2566TIP3    H2 7663   3.557   0.881   3.812  0.8743  0.9522  0.8672
 2567TIP3   OH2 7664   5.461   4.130   0.150  0.4254  0.1576 -0.2601
 2567TIP3    H1 7665   5.472   4.156   0.059  1.5521  0.0722 -0.1633
 2567TIP3    H2 7666   5.550   4.115   0.182 -0.0070 -0.7995  0.5709
 2568TIP3   OH2 7667   0.275   0.068   5.490 -0.2265 -0.0344  0.2172
 2568TIP3    H1 7668   0.359   0.091   5.449 -0.9769  1.4047 -0.6225
 2568TIP3    H2 7669   0.252   0.146   5.541 -2.1057  0.5622 -1.4006
 2569TIP3   OH2 7670   2.228   4.691   0.700  0.5626 -0.4173 -0.6782
 2569TIP3    H1 7671   2.178   4.612   0.678 -0.4980  0.6035 -2.1838
 2569TIP3    H2 7672   2.181   4.729   0.775  0.0216 -0.2984 -1.0754
 2570TIP3   OH2 7673   4.314   6.118   3.339  0.5982  0.2154  0.1729
 2570TIP3    H1 7674   4.391   6.093   3.390  0.3019  0.1182  0.5744
 2570TIP3    H2 7675   4.244   6.062   3.371  0.2578  0.5954  0.1066
 2571TIP3   OH2 7676   6.664   3.646   3.877 -0.2195 -0.1057 -0.2126
 2571TIP3    H1 7677   6.729   3.591   3.834 -0.8239 -1.1104  0.1411
 2571TIP3    H2 7678   6.593   3.587   3.898 -1.3754  1.0236 -0.8147
 2572TIP3   OH2 7679   3.282   1.961   2.042  0.2600 -0.0534  0.4362
 2572TIP3    H1 7680   3.222   2.029   2.073  0.5946  1.7485 -2.5387
 2572TIP3    H2 7681   3.264   1.954   1.949  0.5840 -3.8047  0.5068
 2573TIP3   OH2 7682   2.539   0.496   1.563  0.2189  0.5642 -0.5841
 2573TIP3    H1 7683   2.553   0.402   1.562  0.7762  0.6435 -0.8953
 2573TIP3    H2 7684   2.481   0.511   1.637 -0.2500 -0.0699 -0.8180
 2574TIP3   OH2 7685   2.028   2.297   4.757  0.2020 -0.0107 -0.0336
 2574TIP3    H1 7686   1.985   2.319   4.674 -1.0190 -1.0259  0.2939
 2574TIP3    H2 7687   2.003   2.368   4.816  0.9516  0.6364 -0.4732
 2575TIP3   OH2 7688   2.263   2.968   2.547 -0.4583  0.1463 -0.4824
 2575TIP3    H1 7689   2.246   2.886   2.500 -1.9773  0.7771 -1.0753
 2575TIP3    H2 7690   2.313   2.941   2.624  0.3250 -1.1567 -1.3947
 2576TIP3   OH2 7691   0.299   4.013   2.446 -0.2440  0.1962 -0.7901
 2576TIP3    H1 7692   0.245   3.965   2.383  1.0028 -0.6750 -1.2422
 2576TIP3    H2 7693   0.249   4.010   2.528 -0.7580 -0.8361 -1.1150
 2577TIP3   OH2 7694   3.883   5.938   4.894 -0.1473 -0.2214 -0.0278
 2577TIP3    H1 7695   3.832   5.931   4.974  1.7113  0.7406  1.3105
 2577TIP3    H2 7696   3.888   6.032   4.877  1.4126 -0.2673  0.0587
 2578TIP3   OH2 7697   2.741   3.539   2.917 -0.1206 -0.0049  0.5778
 2578TIP3    H1 7698   2.650   3.540   2.889  0.3466 -0.4332 -1.1012
 2578TIP3    H2 7699   2.791   3.563   2.839  1.2620 -0.8300  1.1592
 2579TIP3   OH2 7700   6.035   2.617   2.098  0.4568  0.2582 -0.0848
 2579TIP3    H1 7701   6.072   2.700   2.068  2.0095 -0.1810  0.4666
 2579TIP3    H2 7702   5.998   2.636   2.184  1.1298  0.3214  0.1972
 2580TIP3   OH2 7703   1.329   5.034   2.476  0.3864  0.5055 -0.2476
 2580TIP3    H1 7704   1.281   4.951   2.473  2.5549 -0.8222  0.0263
 2580TIP3    H2 7705   1.322   5.063   2.567 -0.0964  0.4644 -0.2702
 2581TIP3   OH2 7706   4.806   5.506   2.962  0.0191  0.9259 -0.1961
 2581TIP3    H1 7707   4.770   5.588   2.995 -0.5039  0.2769  0.8587
 2581TIP3    H2 7708   4.739   5.472   2.903  0.9329  2.0597 -1.9927
 2582TIP3   OH2 7709   6.542   6.020   1.047  0.6058  0.1649  0.2506
 2582TIP3    H1 7710   6.465   6.000   0.993  0.4527  0.9121  0.1770
 2582TIP3    H2 7711   6.517   5.992   1.136  0.7013 -0.6803  0.0175
 2583TIP3   OH2 7712   6.151   1.248   5.530  0.0531  0.3927  0.7693
 2583TIP3    H1 7713   6.182   1.272   5.617 -0.1906  1.3497  0.6037
 2583TIP3    H2 7714   6.231   1.244   5.477 -0.0176  2.1770  0.4983
 2584TIP3   OH2 7715   4.723   4.688   5.645  0.0702 -0.0729 -0.0876
 2584TIP3    H1 7716   4.752   4.753   5.580 -0.1302  0.8506  0.7154
 2584TIP3    H2 7717   4.695   4.741   5.720  0.6099 -1.1206  0.8874
 2585TIP3   OH2 7718   4.350   2.914   0.709  0.1131  0.4134 -0.5694
 2585TIP3    H1 7719   4.291   2.989   0.718 -0.6000 -0.0710 -1.0732
 2585TIP3    H2 7720   4.294   2.837   0.724  0.0990 -0.1596 -3.1653
 2586TIP3   OH2 7721   4.449   1.155   0.329  0.0832  0.1171  0.1539
 2586TIP3    H1 7722   4.511   1.227   0.316  1.1992 -1.0166 -1.1773
 2586TIP3    H2 7723   4.457   1.133   0.422  0.7537  0.8032  0.2685
 2587TIP3   OH2 7724   5.284   0.590   1.724 -0.5526  0.3636  0.5925
 2587TIP3    H1 7725   5.277   0.531   1.799  0.7824 -0.5355  0.0507
 2587TIP3    H2 7726   5.377   0.590   1.701 -0.8351  1.0838 -0.6971
 2588TIP3   OH2 7727   6.138   2.782   3.018  0.2005 -0.0379  0.0854
 2588TIP3    H1 7728   6.132   2.764   3.112 -0.1772  1.6525  0.4276
 2588TIP3    H2 7729   6.046   2.792   2.991  0.2521 -1.4345 -0.6873
 2589TIP3   OH2 7730   0.848   2.590   0.371  0.0178  0.4928 -0.1061
 2589TIP3    H1 7731   0.850   2.497   0.353  0.4032  0.6663 -0.9866
 2589TIP3    H2 7732   0.776   2.624   0.317  0.4228  0.8376 -0.4334
 2590TIP3   OH2 7733   7.067   4.458   1.482 -0.3203  0.8240  0.2385
 2590TIP3    H1 7734   6.998   4.412   1.434 -1.4383  1.7242  0.9340
 2590TIP3    H2 7735   7.133   4.390   1.499 -0.4850  0.1935 -1.3998
 2591TIP3   OH2 7736   1.690   3.324   3.535  0.2274 -0.1705  0.0341
 2591TIP3    H1 7737   1.762   3.262   3.523 -0.5302 -1.2923  1.0109
 2591TIP3    H2 7738   1.614   3.269   3.554 -0.7344  1.0165 -0.2397
 2592TIP3   OH2 7739   0.593   5.042   4.438  0.3132  0.1786 -0.3971
 2592TIP3    H1 7740   0.644   5.027   4.358 -1.4671  0.3700 -1.6317
 2592TIP3    H2 7741   0.515   5.088   4.408 -0.5518 -0.0103  1.4313
 2593TIP3   OH2 7742   1.126   2.737   4.513  0.6307 -0.9545  0.5830
 2593TIP3    H1 7743   1.157   2.774   4.596 -0.5781 -1.7190  1.4281
 2593TIP3    H2 7744   1.115   2.812   4.455  0.7475 -0.3056  1.3846
 2594TIP3   OH2 7745   5.809   3.766   5.286 -0.3183  0.0015  0.1897
 2594TIP3    H1 7746   5.759   3.791   5.208  0.1125 -0.6579 -0.3065
 2594TIP3    H2 7747   5.761   3.691   5.322 -0.3767  0.1495  0.4205
 2595TIP3   OH2 7748   3.018   4.771   3.858 -0.1193  0.2810 -0.3960
 2595TIP3    H1 7749   2.981   4.752   3.944  0.8630 -2.2089 -0.4562
 2595TIP3    H2 7750   3.035   4.685   3.819  3.2100  1.2465 -1.4269
 2596TIP3   OH2 7751   6.213   6.586   5.162  0.8237  0.3025 -0.3291
 2596TIP3    H1 7752   6.140   6.543   5.207  0.8017 -1.6573 -2.0702
 2596TIP3    H2 7753   6.267   6.622   5.232 -1.6832  1.7104  1.0292
 2597TIP3   OH2 7754   7.208   2.806   3.526 -0.2146  0.5134 -0.0803
 2597TIP3    H1 7755   7.245   2.887   3.489  1.0687  0.1421  0.3380
 2597TIP3    H2 7756   7.122   2.832   3.557  0.1088  1.6993 -0.0991
 2598TIP3   OH2 7757   5.037   2.649   2.886  0.2400 -0.3068 -0.1788
 2598TIP3    H1 7758   4.943   2.665   2.876  0.0009 -0.8015  1.1409
 2598TIP3    H2 7759   5.052   2.564   2.844 -0.0567 -0.6237  0.3541
 2599TIP3   OH2 7760   6.584   6.103   1.472  0.4337  0.1713  0.4334
 2599TIP3    H1 7761   6.564   6.072   1.561 -1.1333  1.5537  0.6170
 2599TIP3    H2 7762   6.536   6.186   1.465  1.0008  0.3665 -1.5132
 2600TIP3   OH2 7763   4.154   0.033   1.878  0.5087  0.5938  0.2986
 2600TIP3    H1 7764   4.133  -0.020   1.954 -3.1914  1.3756  0.0012
 2600TIP3    H2 7765   4.247   0.017   1.862  0.5375 -2.4401  2.7028
 2601TIP3   OH2 7766   3.090   5.648   3.346  0.0903  0.2673 -0.0901
 2601TIP3    H1 7767   3.062   5.557   3.351 -3.3063  1.1936  0.9027
 2601TIP3    H2 7768   3.126   5.667   3.433  0.1090  0.0397 -0.0489
 2602TIP3   OH2 7769   3.901   1.940   0.841 -0.0375  0.0761  0.7664
 2602TIP3    H1 7770   3.892   1.907   0.752 -1.5946 -0.6349  1.1605
 2602TIP3    H2 7771   3.914   2.034   0.830 -0.7643  0.0798 -0.1967
 2603TIP3   OH2 7772   6.328   4.403   2.243 -0.3420 -0.0239 -1.0326
 2603TIP3    H1 7773   6.285   4.486   2.265  0.1296  0.4109 -1.7163
 2603TIP3    H2 7774   6.422   4.425   2.240 -0.3226 -0.2066 -2.7452
 2604TIP3   OH2 7775   4.573   5.435   0.373  0.3697  0.0220  0.4377
 2604TIP3    H1 7776   4.505   5.370   0.355 -1.0409  1.5419  0.0540
 2604TIP3    H2 7777   4.642   5.386   0.416 -0.7410 -1.6930  0.3529
 2605TIP3   OH2 7778   4.623   1.822   3.655 -0.3665 -0.1024  0.1142
 2605TIP3    H1 7779   4.704   1.817   3.604  0.4356  1.7404  1.1215
 2605TIP3    H2 7780   4.562   1.765   3.609  0.6967  0.5091 -2.1834
 2606TIP3   OH2 7781   4.492   4.292   2.172 -0.0073  0.6634  0.0324
 2606TIP3    H1 7782   4.479   4.295   2.077 -1.4998  0.6985  0.2055
 2606TIP3    H2 7783   4.534   4.208   2.188  1.7590  1.3530 -0.7956
 2607TIP3   OH2 7784   3.265   4.845   4.025  0.6255 -0.1293  0.1453
 2607TIP3    H1 7785   3.176   4.820   4.048  0.9313 -0.5579  0.8791
 2607TIP3    H2 7786   3.256   4.892   3.942 -0.0988 -1.6502 -0.6738
 2608TIP3   OH2 7787   0.733   5.998   4.779 -0.5484  0.4351  0.4395
 2608TIP3    H1 7788   0.733   5.917   4.728 -1.9084  0.8901 -0.3647
 2608TIP3    H2 7789   0.748   6.067   4.714 -1.4534  0.9657  0.7637
 2609TIP3   OH2 7790   6.944   2.054   0.914 -0.3679  0.2262 -0.4748
 2609TIP3    H1 7791   6.855   2.018   0.922 -1.0024  1.9040  0.5104
 2609TIP3    H2 7792   6.937   2.120   0.846 -0.2755  1.4294  0.6468
 2610TIP3   OH2 7793   2.787   3.604   5.024  0.1413  0.2301 -0.0306
 2610TIP3    H1 7794   2.867   3.561   5.052  0.3842  0.0719 -0.9462
 2610TIP3    H2 7795   2.808   3.697   5.025  0.4944  0.1651 -0.7153
 2611TIP3   OH2 7796   4.919   1.955   0.352 -0.3659  0.3281 -0.7623
 2611TIP3    H1 7797   4.953   2.043   0.335 -1.8742  0.8099 -1.4528
 2611TIP3    H2 7798   4.995   1.905   0.381  0.2931  2.2214  1.0738
 2612TIP3   OH2 7799   6.769   1.033   0.143  0.2886 -0.2526 -0.0869
 2612TIP3    H1 7800   6.760   0.941   0.119 -1.3594 -0.2313  0.2755
 2612TIP3    H2 7801   6.714   1.043   0.221  2.1754  0.5885  1.2167
 2613TIP3   OH2 7802   5.445   2.589   4.462 -0.3774 -0.6845  0.2000
 2613TIP3    H1 7803   5.522   2.548   4.500  0.4953  0.4699 -0.2964
 2613TIP3    H2 7804   5.378   2.582   4.530 -0.3262 -3.0381  0.0923
 2614TIP3   OH2 7805   4.612   2.013   5.804 -0.0276  0.5502  0.0715
 2614TIP3    H1 7806   4.576   1.934   5.844 -0.2107 -0.6532 -2.2950
 2614TIP3    H2 7807   4.685   1.981   5.751  0.7030  2.1653  0.0609
 2615TIP3   OH2 7808   0.172   5.358   1.264 -0.4008  0.8432 -0.0208
 2615TIP3    H1 7809   0.259   5.399   1.274  0.8448 -1.4903 -0.6621
 2615TIP3    H2 7810   0.120   5.425   1.219  1.2608  2.0570 -0.2692
 2616TIP3   OH2 7811   1.944   1.460   0.656 -0.1086  0.0550 -0.1473
 2616TIP3    H1 7812   1.963   1.368   0.674 -2.0190 -0.6274 -1.3398
 2616TIP3    H2 7813   1.860   1.477   0.698 -0.6153  0.7426 -1.3723
 2617TIP3   OH2 7814   5.951   6.123   2.940  0.2809 -0.2122 -0.0600
 2617TIP3    H1 7815   5.863   6.161   2.934  1.3448  2.3236 -1.0666
 2617TIP3    H2 7816   5.996   6.154   2.861  2.0048 -1.6752  0.2928
 2618TIP3   OH2 7817   3.232   1.018   0.652 -0.2431 -0.1352  0.0812
 2618TIP3    H1 7818   3.176   0.963   0.597 -0.5495  0.9451 -0.7315
 2618TIP3    H2 7819   3.303   1.046   0.593  0.5282 -0.5594  0.7911
 2619TIP3   OH2 7820   6.799   6.817   4.079  0.6709 -0.4433  0.3553
 2619TIP3    H1 7821   6.737   6.803   4.007  0.9806  0.7832 -0.1709
 2619TIP3    H2 7822   6.859   6.743   4.073  1.7708  0.5148 -1.8199
 2620TIP3   OH2 7823   5.133   1.326   1.414  0.1437  0.4299 -0.4799
 2620TIP3    H1 7824   5.130   1.250   1.472  2.3129 -0.8613 -1.9253
 2620TIP3    H2 7825   5.183   1.392   1.463  0.0418  0.1673 -0.0196
 2621TIP3   OH2 7826   3.312   6.699   0.321  0.1470 -0.3470 -0.4985
 2621TIP3    H1 7827   3.365   6.770   0.358  0.0659 -1.4988  2.0908
 2621TIP3    H2 7828   3.264   6.664   0.396 -2.0595 -1.2642 -2.2324
 2622TIP3   OH2 7829   3.019   4.330   3.159 -0.5104 -1.0225 -0.2744
 2622TIP3    H1 7830   3.111   4.332   3.186 -0.5177  0.5003 -0.2547
 2622TIP3    H2 7831   2.971   4.301   3.236 -0.3231  1.2518  0.7851
 2623TIP3   OH2 7832   4.764   1.248   4.093 -0.1740  0.4413  0.4967
 2623TIP3    H1 7833   4.811   1.331   4.081  1.0487 -0.2873  0.0786
 2623TIP3    H2 7834   4.724   1.231   4.008 -1.4608  1.1983  0.9297
 2624TIP3   OH2 7835   1.143   2.803   5.408  0.0744 -0.3282 -0.7715
 2624TIP3    H1 7836   1.078   2.733   5.414 -0.3706  0.1240 -0.1495
 2624TIP3    H2 7837   1.097   2.881   5.440  0.6690  0.1730 -1.1226
 2625TIP3   OH2 7838   2.269   1.285   4.246 -0.5112  0.4507  0.1091
 2625TIP3    H1 7839   2.209   1.328   4.307 -1.5169  0.6768 -0.9895
 2625TIP3    H2 7840   2.261   1.337   4.166  1.7562  0.9389  0.1536
 2626TIP3   OH2 7841   1.158   1.506   5.736 -0.2814 -0.4257 -0.0211
 2626TIP3    H1 7842   1.154   1.427   5.790  0.1544 -1.5419 -1.5371
 2626TIP3    H2 7843   1.114   1.481   5.654 -1.1603  1.2865 -0.1148
 2627TIP3   OH2 7844   3.013   6.065   3.099 -0.4732  0.0538 -0.2516
 2627TIP3    H1 7845   2.974   6.097   3.018  1.2883 -2.6630 -2.3318
 2627TIP3    H2 7846   2.956   5.992   3.125  0.2586 -0.5991 -0.4257
 2628TIP3   OH2 7847   6.328   1.252   1.695 -0.0598  0.0141  0.2730
 2628TIP3    H1 7848   6.370   1.299   1.622 -2.4669  1.9839  0.0448
 2628TIP3    H2 7849   6.399   1.238   1.757  1.1191  2.7691 -0.2819
 2629TIP3   OH2 7850   1.474   4.506   0.775  0.3560  0.1641  0.1435
 2629TIP3    H1 7851   1.544   4.570   0.761  0.5612 -0.4863 -2.1602
 2629TIP3    H2 7852   1.515   4.421   0.763 -0.6734 -0.2567 -0.5246
 2630TIP3   OH2 7853   6.646   3.912   3.050 -0.5275  0.3165 -0.6461
 2630TIP3    H1 7854   6.567   3.874   3.089 -0.0116 -0.7469 -0.6120
 2630TIP3    H2 7855   6.718   3.870   3.097  0.0693  1.9723 -0.0248
 2631TIP3   OH2 7856   5.517   1.348   5.201  0.1533 -0.3376  0.3054
 2631TIP3    H1 7857   5.563   1.412   5.256 -1.7079  2.8553 -1.5415
 2631TIP3    H2 7858   5.472   1.291   5.263 -0.5834  2.0999  2.1811
 2632TIP3   OH2 7859   4.023   3.204   5.490 -0.1172  0.1369 -0.0913
 2632TIP3    H1 7860   4.042   3.290   5.453 -2.1516 -0.5342 -3.1049
 2632TIP3    H2 7861   3.930   3.206   5.509  0.2195 -0.7538  1.8908
 2633TIP3   OH2 7862   4.880   2.821   0.572  0.3663 -0.0180 -0.4827
 2633TIP3    H1 7863   4.828   2.759   0.623 -0.4532 -0.5716 -1.9226
 2633TIP3    H2 7864   4.860   2.906   0.611 -1.3027 -0.2713 -0.7004
 2634TIP3   OH2 7865   2.362   6.219   3.560 -0.1383 -0.4372  0.0392
 2634TIP3    H1 7866   2.454   6.246   3.551 -0.6782  1.3975 -0.5617
 2634TIP3    H2 7867   2.350   6.207   3.654  0.5301  0.1360  0.2120
 2635TIP3   OH2 7868   0.005   5.503   3.461 -0.2358 -0.5639 -0.5154
 2635TIP3    H1 7869  -0.047   5.541   3.390  1.7299  1.2369 -1.0971
 2635TIP3    H2 7870   0.085   5.555   3.462  0.5183 -1.6322  1.9473
 2636TIP3   OH2 7871   4.548   2.953   1.687 -0.0387 -0.2634  0.4434
 2636TIP3    H1 7872   4.556   3.029   1.629  1.0779 -1.2581 -0.7571
 2636TIP3    H2 7873   4.637   2.918   1.695  0.2061  0.7230  4.1096
 2637TIP3   OH2 7874   1.635   3.220   1.166 -0.0581 -0.3997 -0.2940
 2637TIP3    H1 7875   1.621   3.174   1.083  0.2338  0.3637 -0.7732
 2637TIP3    H2 7876   1.574   3.178   1.227 -0.7198 -0.5607 -1.0477
 2638TIP3   OH2 7877   2.307   5.789   4.216 -0.4043  0.8786 -0.3605
 2638TIP3    H1 7878   2.249   5.717   4.192  0.4556 -0.1862  0.6480
 2638TIP3    H2 7879   2.284   5.810   4.307 -1.0746  2.3264 -0.8316
 2639TIP3   OH2 7880   0.032   6.737   4.827 -0.1804 -0.3950 -0.5147
 2639TIP3    H1 7881   0.070   6.822   4.847  0.1026 -1.0756  2.2044
 2639TIP3    H2 7882   0.107   6.679   4.814 -0.2482 -1.0480  1.6794
 2640TIP3   OH2 7883   3.550   1.028   0.642 -0.0408  0.1289  0.8706
 2640TIP3    H1 7884   3.644   1.024   0.625 -0.0275 -1.5058  1.1132
 2640TIP3    H2 7885   3.516   0.948   0.603 -1.2495  0.4445  1.2520
 2641TIP3   OH2 7886   5.519   5.598   1.364  0.1206 -0.2298  0.2886
 2641TIP3    H1 7887   5.536   5.587   1.457  0.3043 -0.4264  0.2335
 2641TIP3    H2 7888   5.506   5.692   1.352  2.3687  0.1148  0.1455
 2642TIP3   OH2 7889   3.891   6.268  -0.019  0.2448 -0.2358 -0.5415
 2642TIP3    H1 7890   3.868   6.351   0.022 -0.7129 -0.2096 -1.1022
 2642TIP3    H2 7891   3.923   6.213   0.053 -0.8495  0.0028  0.1426
 2643TIP3   OH2 7892   3.122   0.633   5.132  0.3256 -0.4607 -0.4074
 2643TIP3    H1 7893   3.209   0.595   5.144  0.0450 -1.3348 -1.0705
 2643TIP3    H2 7894   3.138   0.711   5.078  0.6454 -0.9328 -1.0133
 2644TIP3   OH2 7895   3.634   1.163   4.566  0.0228 -0.3782  0.1485
 2644TIP3    H1 7896   3.705   1.171   4.630  1.3884  0.0378 -1.3508
 2644TIP3    H2 7897   3.649   1.235   4.505 -1.1266 -0.8854 -0.7662
 2645TIP3   OH2 7898   6.118   6.444   1.447  0.5881  0.6169 -0.2102
 2645TIP3    H1 7899   6.094   6.519   1.501  1.2761  1.3287 -0.8786
 2645TIP3    H2 7900   6.154   6.482   1.368 -0.2917 -0.4220 -1.1369
 2646TIP3   OH2 7901   4.853   1.986   2.388 -0.0870  0.3025 -0.1320
 2646TIP3    H1 7902   4.835   1.925   2.459 -1.4680  0.5837 -0.2049
 2646TIP3    H2 7903   4.799   2.062   2.408 -1.0442  0.1184 -1.8074
 2647TIP3   OH2 7904   3.292   4.100   4.143  0.5208  0.6507 -0.2536
 2647TIP3    H1 7905   3.350   4.169   4.177  0.0051  1.1623 -0.3913
 2647TIP3    H2 7906   3.320   4.021   4.189  1.8840  0.7059 -0.9308
 2648TIP3   OH2 7907   0.602   4.158   4.937  0.2881 -0.7394 -0.0359
 2648TIP3    H1 7908   0.635   4.228   4.994 -0.9455 -0.0361 -0.1565
 2648TIP3    H2 7909   0.654   4.081   4.961  0.2669 -0.2902  1.5635
 2649TIP3   OH2 7910   5.990   1.265   3.092 -0.3130 -0.0134 -0.1090
 2649TIP3    H1 7911   6.006   1.272   2.998  0.8027  1.7627  0.1613
 2649TIP3    H2 7912   5.908   1.312   3.106 -1.6658 -2.1356 -0.4192
 2650TIP3   OH2 7913   5.246   1.896   0.223 -0.2265 -1.0974  0.3533
 2650TIP3    H1 7914   5.217   1.852   0.143 -2.7608  0.6192  0.2191
 2650TIP3    H2 7915   5.204   1.847   0.293 -0.7120 -0.6279  0.3935
 2651TIP3   OH2 7916   6.543   6.485   4.986 -0.0868  0.1115  0.1472
 2651TIP3    H1 7917   6.515   6.483   4.895 -1.0960 -0.0229  0.4482
 2651TIP3    H2 7918   6.537   6.577   5.011  1.3751  0.3480 -0.2543
 2652TIP3   OH2 7919   5.417   6.713   4.675  0.2070 -0.0923  0.3028
 2652TIP3    H1 7920   5.388   6.747   4.590  0.1987  1.0091  0.7210
 2652TIP3    H2 7921   5.446   6.624   4.657 -1.7733 -0.6369 -0.4778
 2653TIP3   OH2 7922   1.194   4.747   0.104 -0.4224  0.1222 -0.0292
 2653TIP3    H1 7923   1.178   4.804   0.029 -0.7650  0.2085  0.1069
 2653TIP3    H2 7924   1.124   4.681   0.100 -0.5633  0.2479  0.3283
 2654TIP3   OH2 7925   3.041   1.100   4.273  0.7320  0.4689  0.3210
 2654TIP3    H1 7926   3.063   1.096   4.179  2.9661  1.4352  0.7242
 2654TIP3    H2 7927   3.021   1.010   4.297  1.2095  0.0243 -0.8598
 2655TIP3   OH2 7928   3.817   1.084   5.325 -0.1242 -0.2663 -0.2090
 2655TIP3    H1 7929   3.883   1.122   5.267  0.0086  1.6969  1.1465
 2655TIP3    H2 7930   3.739   1.137   5.312 -0.9443 -1.4892 -0.5182
 2656TIP3   OH2 7931   1.678   1.961   3.015  0.1784 -0.0848  0.7001
 2656TIP3    H1 7932   1.659   1.930   2.927  0.7173 -1.5558  1.0820
 2656TIP3    H2 7933   1.738   1.896   3.051  0.1061  0.5901  2.0915
 2657TIP3   OH2 7934   4.779   2.767   1.912  0.0411 -0.2040  0.2563
 2657TIP3    H1 7935   4.816   2.697   1.857  1.7595  0.3172  0.6729
 2657TIP3    H2 7936   4.756   2.724   1.994  0.8172 -0.3655  0.4008
 2658TIP3   OH2 7937   5.854   2.343   0.901  0.2802  0.2989 -0.2032
 2658TIP3    H1 7938   5.918   2.413   0.912 -0.5749  0.8180  1.8779
 2658TIP3    H2 7939   5.890   2.269   0.950  0.4187 -0.2259 -1.0686
 2659TIP3   OH2 7940   6.717   3.878   1.774  0.1875  0.3767  0.2559
 2659TIP3    H1 7941   6.709   3.930   1.854 -0.0581  0.3653  0.2399
 2659TIP3    H2 7942   6.742   3.790   1.805 -0.4514  0.2266  0.3657
 2660TIP3   OH2 7943   4.505   2.200   0.511  0.3459 -0.2136 -0.0294
 2660TIP3    H1 7944   4.564   2.125   0.522 -0.3442 -0.7663  0.0650
 2660TIP3    H2 7945   4.453   2.178   0.434 -1.5669 -1.0522  1.3992
 2661TIP3   OH2 7946   7.251   1.858   2.021 -0.5089  0.5054  0.4357
 2661TIP3    H1 7947   7.212   1.945   2.028 -2.5711 -0.4199  1.3779
 2661TIP3    H2 7948   7.176   1.799   2.007  0.6120 -1.2845  1.5140
 2662TIP3   OH2 7949   2.114   3.316   3.659 -0.0048 -0.0555  0.3738
 2662TIP3    H1 7950   2.157   3.369   3.591  2.0428 -1.2256  0.6522
 2662TIP3    H2 7951   2.048   3.373   3.697  0.9747  1.7007 -0.4713
 2663TIP3   OH2 7952   5.512   4.022   3.817  0.4252  0.0246 -0.1395
 2663TIP3    H1 7953   5.455   3.961   3.865  1.3670 -0.0207  0.9599
 2663TIP3    H2 7954   5.601   3.990   3.834  0.8138  0.3329 -1.4968
 2664TIP3   OH2 7955   5.866   6.359   4.428  0.7488 -0.2103  0.2707
 2664TIP3    H1 7956   5.957   6.335   4.445  1.3739  2.3242  0.8975
 2664TIP3    H2 7957   5.850   6.436   4.482 -1.1339  0.6483 -1.3498
 2665TIP3   OH2 7958   6.899   3.553   0.447 -0.0030  0.1217 -0.0354
 2665TIP3    H1 7959   6.977   3.514   0.488 -0.7231 -1.2858  0.0323
 2665TIP3    H2 7960   6.866   3.613   0.514  0.8628  0.5421  0.0372
 2666TIP3   OH2 7961   0.867   3.920   2.168  0.3295  0.8427  0.5253
 2666TIP3    H1 7962   0.859   3.851   2.234 -0.7011 -0.6852 -1.1129
 2666TIP3    H2 7963   0.958   3.948   2.174  1.0349 -1.2976  0.6546
 2667TIP3   OH2 7964   0.562   0.122   4.161  1.0366  0.3747 -0.5396
 2667TIP3    H1 7965   0.515   0.164   4.089  1.1516 -0.5981 -1.1974
 2667TIP3    H2 7966   0.555   0.029   4.143  0.4279  0.0668  1.1186
 2668TIP3   OH2 7967   6.949   4.809   2.379 -0.2160 -0.0465  0.4307
 2668TIP3    H1 7968   6.940   4.904   2.369 -0.3795 -0.1539 -0.5975
 2668TIP3    H2 7969   7.008   4.798   2.453  0.1584  0.8756  0.2850
 2669TIP3   OH2 7970   2.771   3.826   0.209 -0.6181 -0.0357  0.0907
 2669TIP3    H1 7971   2.691   3.780   0.184 -0.7720  0.1029  0.3251
 2669TIP3    H2 7972   2.837   3.757   0.217 -0.1868  0.0609 -2.1412
 2670TIP3   OH2 7973   6.217   3.952   4.299  0.2185 -0.0911  0.1427
 2670TIP3    H1 7974   6.262   4.037   4.296  3.3398 -1.5800  0.5628
 2670TIP3    H2 7975   6.168   3.954   4.381 -1.1097  1.8832 -0.6476
 2671TIP3   OH2 7976   3.166   0.193   4.202  0.1707  0.7077  0.2352
 2671TIP3    H1 7977   3.222   0.246   4.259  0.8793 -0.0549  0.2732
 2671TIP3    H2 7978   3.218   0.114   4.184 -1.3487 -0.5954  1.2641
 2672TIP3   OH2 7979   0.624   2.417   1.839 -0.0421  0.6215 -0.2066
 2672TIP3    H1 7980   0.536   2.420   1.876 -0.4636  1.7983 -1.2583
 2672TIP3    H2 7981   0.622   2.479   1.767  1.0061 -0.9572 -1.6758
 2673TIP3   OH2 7982   0.248   2.584   4.471  0.3156  0.2008 -0.0621
 2673TIP3    H1 7983   0.156   2.585   4.444  0.7567 -0.1813 -1.7088
 2673TIP3    H2 7984   0.266   2.493   4.495  0.1765  0.3521  0.6420
 2674TIP3   OH2 7985   5.227   4.536   4.780  0.1158  0.3539 -0.1540
 2674TIP3    H1 7986   5.227   4.579   4.694 -0.4734  0.7234  0.0244
 2674TIP3    H2 7987   5.146   4.485   4.781  1.1354 -1.3881 -0.6522
 2675TIP3   OH2 7988   5.162   0.330   2.514  0.1560  0.1440 -0.1248
 2675TIP3    H1 7989   5.107   0.390   2.564 -0.2478  0.2088 -0.6339
 2675TIP3    H2 7990   5.203   0.384   2.447  1.3581  0.2191  0.6399
 2676TIP3   OH2 7991   4.022   2.354   5.512  0.1353  0.0386  0.1699
 2676TIP3    H1 7992   3.989   2.264   5.505  0.8613 -0.1332 -1.2004
 2676TIP3    H2 7993   4.044   2.363   5.605 -3.7407  0.1864  1.2618
 2677TIP3   OH2 7994   2.185   1.351   1.525  0.4942  0.1657 -0.0449
 2677TIP3    H1 7995   2.275   1.363   1.495  0.7406  2.5483  1.4055
 2677TIP3    H2 7996   2.192   1.293   1.601  0.8327  0.4765  0.1619
 2678TIP3   OH2 7997   0.565   3.843   1.545 -0.7685  0.3336 -0.1849
 2678TIP3    H1 7998   0.639   3.901   1.528 -0.2079 -0.4565 -0.5072
 2678TIP3    H2 7999   0.580   3.768   1.488 -1.7424  0.0850 -0.1378
 2679TIP3   OH2 8000   0.934   6.204   2.332  0.5105 -0.3955  0.3696
 2679TIP3    H1 8001   0.955   6.131   2.274  0.6114 -0.1611  0.1125
 2679TIP3    H2 8002   0.917   6.277   2.274 -0.9638 -0.5515  0.5616
 2680TIP3   OH2 8003   5.723   1.868   1.398  0.1763 -0.2781 -0.5401
 2680TIP3    H1 8004   5.657   1.933   1.375  0.0851 -0.4130 -0.6661
 2680TIP3    H2 8005   5.781   1.912   1.460  0.2105 -0.0271 -0.7505
 2681TIP3   OH2 8006   4.095   0.362   2.738  0.0099 -0.2331  0.0107
 2681TIP3    H1 8007   4.069   0.453   2.749  1.8473  0.2581  0.4977
 2681TIP3    H2 8008   4.063   0.319   2.818 -2.4064 -0.4637 -0.9729
 2682TIP3   OH2 8009   1.350   6.179   4.614  0.3130  0.0194  1.0004
 2682TIP3    H1 8010   1.300   6.217   4.542  0.9037 -0.4204  0.3476
 2682TIP3    H2 8011   1.408   6.250   4.643 -0.4925  0.4523  1.5982
 2683TIP3   OH2 8012   6.230   4.045   3.303  0.1064 -0.2817 -0.4914
 2683TIP3    H1 8013   6.178   4.074   3.378  0.7440 -0.2454 -0.0602
 2683TIP3    H2 8014   6.320   4.043   3.335  0.4651  0.3036 -1.4195
 2684TIP3   OH2 8015   5.593   3.289   3.747 -0.3286  0.1006  0.0655
 2684TIP3    H1 8016   5.653   3.289   3.822 -0.4964  0.4676  0.2030
 2684TIP3    H2 8017   5.519   3.236   3.777  0.2000 -0.8929 -0.3359
 2685TIP3   OH2 8018   1.829   4.022   4.792  0.0515  0.4604 -0.8144
 2685TIP3    H1 8019   1.744   4.064   4.806 -0.0896 -0.4166  1.4970
 2685TIP3    H2 8020   1.807   3.936   4.754 -0.3827 -0.6562  1.7303
 2686TIP3   OH2 8021   2.047   4.102   0.164  0.1960 -0.2112  0.2024
 2686TIP3    H1 8022   2.056   4.023   0.217  1.1491 -0.5190 -0.3904
 2686TIP3    H2 8023   2.131   4.148   0.174  0.0002  0.2491 -0.2094
 2687TIP3   OH2 8024   4.140   6.083   1.743 -0.4861  0.5852  0.6171
 2687TIP3    H1 8025   4.063   6.083   1.686  1.1743  0.9113 -1.7125
 2687TIP3    H2 8026   4.173   5.993   1.739 -0.5514  0.5158  1.4039
 2688TIP3   OH2 8027   1.819   2.663   0.212  0.3585 -0.0777 -0.1519
 2688TIP3    H1 8028   1.842   2.756   0.216 -0.2214  0.0738 -0.1761
 2688TIP3    H2 8029   1.786   2.643   0.299  0.6700 -0.3157 -0.0872
 2689TIP3   OH2 8030   4.345   0.979   4.499 -0.3317  0.1058 -0.4437
 2689TIP3    H1 8031   4.283   0.950   4.566  1.5087  1.3827  1.9849
 2689TIP3    H2 8032   4.295   0.976   4.418 -2.0347 -3.7928  0.5035
 2690TIP3   OH2 8033   7.174   1.867   0.401  0.6251  0.2960 -0.1465
 2690TIP3    H1 8034   7.166   1.947   0.453 -2.3995 -0.0948  0.2170
 2690TIP3    H2 8035   7.172   1.797   0.466  1.1483 -0.1214 -0.5765
 2691TIP3   OH2 8036   3.574   3.453   3.231  0.5679  0.2364  0.2335
 2691TIP3    H1 8037   3.602   3.538   3.265 -0.2629  0.7289 -0.2499
 2691TIP3    H2 8038   3.614   3.389   3.289  1.7875  0.9246  0.2002
 2692TIP3   OH2 8039   5.492   0.168   3.637  0.6845  0.5087 -0.2193
 2692TIP3    H1 8040   5.437   0.247   3.641  0.9169  0.8614 -2.5037
 2692TIP3    H2 8041   5.431   0.097   3.621  0.6679  0.5371 -0.2820
 2693TIP3   OH2 8042   1.772   4.884   5.651  0.3461 -0.0235  0.4137
 2693TIP3    H1 8043   1.832   4.908   5.580  0.0149  2.0850  0.7812
 2693TIP3    H2 8044   1.685   4.890   5.612  0.2566 -1.6681  0.2731
 2694TIP3   OH2 8045   5.861   0.680   4.146 -0.4349  0.0060 -0.1835
 2694TIP3    H1 8046   5.945   0.665   4.103 -0.1208 -0.2219  0.4975
 2694TIP3    H2 8047   5.869   0.767   4.184  0.6043 -1.1027  2.3396
 2695TIP3   OH2 8048   4.516   4.252   2.811  0.2509 -0.2546  0.6139
 2695TIP3    H1 8049   4.519   4.188   2.740 -0.3592 -0.1721  0.5094
 2695TIP3    H2 8050   4.430   4.293   2.803  0.8716  1.0361  0.2748
 2696TIP3   OH2 8051   1.853   6.040   2.579 -0.1113  0.2747 -1.2643
 2696TIP3    H1 8052   1.864   6.013   2.488 -0.9316 -1.5394 -0.8573
 2696TIP3    H2 8053   1.790   6.112   2.576 -0.1070  0.2497 -2.1148
 2697TIP3   OH2 8054   3.085   1.766   0.851  0.3056  0.5489  0.1271
 2697TIP3    H1 8055   3.150   1.829   0.822  1.5863 -0.4885  0.6625
 2697TIP3    H2 8056   3.082   1.699   0.782  0.4118  0.1714  0.4828
 2698TIP3   OH2 8057   2.129   1.046   2.571  0.3789 -0.9182  0.3514
 2698TIP3    H1 8058   2.140   0.963   2.524  2.0267 -0.6791  0.2741
 2698TIP3    H2 8059   2.096   1.107   2.505 -0.8095 -1.4766  0.4000
 2699TIP3   OH2 8060   0.930   1.090   3.372 -0.5131  0.6855 -0.1124
 2699TIP3    H1 8061   0.867   1.107   3.301 -0.3166 -0.8539 -0.7035
 2699TIP3    H2 8062   1.015   1.093   3.329 -0.2323  1.7833  0.4943
 2700TIP3   OH2 8063   5.356   0.663   1.021 -0.2818 -0.5280 -0.2044
 2700TIP3    H1 8064   5.432   0.644   1.077 -1.0755  0.0552  1.1077
 2700TIP3    H2 8065   5.370   0.753   0.993 -0.4984 -0.4109  0.0614
 2701TIP3   OH2 8066   1.483   4.750   3.067  0.0804 -0.1993  0.1714
 2701TIP3    H1 8067   1.569   4.722   3.034  0.5610  0.8326  0.5176
 2701TIP3    H2 8068   1.438   4.785   2.990  0.6037  0.7645  0.2911
 2702TIP3   OH2 8069   3.339   1.081   3.997  0.5341 -0.0137  0.0903
 2702TIP3    H1 8070   3.413   1.115   4.049  0.6879 -0.2319  0.0155
 2702TIP3    H2 8071   3.380   1.031   3.927  0.4251  2.2881 -1.7203
 2703TIP3   OH2 8072   1.309   0.897   2.367 -0.3973 -0.3167 -0.2982
 2703TIP3    H1 8073   1.344   0.810   2.389 -0.0876  0.1079  1.0232
 2703TIP3    H2 8074   1.352   0.956   2.429 -2.4006  0.4394  0.4638
 2704TIP3   OH2 8075   3.428   3.252   0.796 -0.0809 -0.2519 -0.0286
 2704TIP3    H1 8076   3.511   3.252   0.844 -0.2054 -0.5565  0.1942
 2704TIP3    H2 8077   3.396   3.162   0.806 -0.2185 -0.2567 -0.4947
 2705TIP3   OH2 8078   4.612   0.071   0.463 -1.0145  0.3185 -0.1843
 2705TIP3    H1 8079   4.553   0.145   0.475 -1.3570 -0.0046  0.1834
 2705TIP3    H2 8080   4.675   0.079   0.534 -1.0878  0.2304 -0.1076
 2706TIP3   OH2 8081   2.344   0.554   1.768  0.1464  0.4241 -0.8293
 2706TIP3    H1 8082   2.286   0.625   1.794  1.0801  1.0062 -0.3144
 2706TIP3    H2 8083   2.287   0.477   1.764 -1.4301  1.5896 -3.7941
 2707TIP3   OH2 8084   6.809   6.615   1.529  0.3893  0.0033 -0.6608
 2707TIP3    H1 8085   6.856   6.567   1.460  1.4208  1.4953 -1.0590
 2707TIP3    H2 8086   6.768   6.688   1.483 -0.7518 -0.1954  0.0067
 2708TIP3   OH2 8087   1.176   4.420   4.180 -0.4745 -0.1021 -0.0479
 2708TIP3    H1 8088   1.133   4.383   4.103 -0.7361  1.6345 -0.7763
 2708TIP3    H2 8089   1.105   4.433   4.243 -0.9612  1.8951 -0.9114
 2709TIP3   OH2 8090   6.966   0.033   5.164  0.0116 -0.6076  0.3141
 2709TIP3    H1 8091   6.938   0.063   5.250 -0.6739 -2.0346  0.6121
 2709TIP3    H2 8092   6.967  -0.063   5.171 -1.2578 -0.8091 -1.6295
 2710TIP3   OH2 8093   4.693   3.505   1.797 -0.7436 -0.1032  0.2703
 2710TIP3    H1 8094   4.665   3.497   1.706 -1.0507 -0.8547  0.4182
 2710TIP3    H2 8095   4.716   3.415   1.823  1.5601  0.4198  0.2547
 2711TIP3   OH2 8096   2.358   1.946   0.324  0.2784 -0.3194  0.0832
 2711TIP3    H1 8097   2.439   1.896   0.313 -0.2272 -1.0586 -0.3623
 2711TIP3    H2 8098   2.289   1.886   0.297 -0.4181  0.3286  0.3896
 2712TIP3   OH2 8099   1.951   5.889   0.746  0.1494 -0.0810 -0.3195
 2712TIP3    H1 8100   1.936   5.878   0.840  0.8620 -0.1826 -0.2064
 2712TIP3    H2 8101   1.994   5.974   0.738 -2.6928  1.3896 -0.8986
 2713TIP3   OH2 8102   3.010   6.339   3.930  0.0297 -0.2946  0.0025
 2713TIP3    H1 8103   2.934   6.330   3.987 -0.0962 -0.0270 -0.1222
 2713TIP3    H2 8104   3.038   6.430   3.940 -0.8168  0.1602 -1.3751
 2714TIP3   OH2 8105   5.277   3.245   0.659 -0.0218  0.6819  0.0349
 2714TIP3    H1 8106   5.364   3.251   0.698  0.2235 -0.2056 -0.3398
 2714TIP3    H2 8107   5.222   3.302   0.712  1.0680  2.3502 -0.5511
 2715TIP3   OH2 8108   7.153   2.409   3.499  0.5996  0.0416  0.6397
 2715TIP3    H1 8109   7.168   2.440   3.410  1.4176 -1.5563  0.1722
 2715TIP3    H2 8110   7.060   2.388   3.502  0.7797 -0.9967 -0.2522
 2716TIP3   OH2 8111   2.698   6.514   4.307 -0.4243 -0.1523 -0.3621
 2716TIP3    H1 8112   2.742   6.599   4.307  0.9587 -0.8130  1.4052
 2716TIP3    H2 8113   2.610   6.533   4.340  0.7642  0.2712  2.9275
 2717TIP3   OH2 8114   4.598   4.049   5.446 -0.2407  0.0768  0.2224
 2717TIP3    H1 8115   4.575   3.957   5.441  1.0096 -0.3421  1.5914
 2717TIP3    H2 8116   4.516   4.095   5.431 -1.1604 -1.2835  0.8820
 2718TIP3   OH2 8117   5.682   5.121   2.280 -0.0710 -0.3224  0.6507
 2718TIP3    H1 8118   5.657   5.079   2.198  0.4278 -0.4010  0.5395
 2718TIP3    H2 8119   5.686   5.214   2.259  1.1009 -0.4342  0.3087
 2719TIP3   OH2 8120   0.062   0.438   1.392 -0.3000 -0.4218 -0.0630
 2719TIP3    H1 8121   0.108   0.401   1.468  0.2356  0.4027  0.0188
 2719TIP3    H2 8122   0.110   0.404   1.316  1.6168  1.8513  0.0388
 2720TIP3   OH2 8123   5.455   3.486   4.383  0.0016  0.4430  0.2913
 2720TIP3    H1 8124   5.445   3.542   4.306 -0.8874  0.6295  0.5350
 2720TIP3    H2 8125   5.422   3.538   4.456 -1.7635 -0.7174  0.3822
 2721TIP3   OH2 8126   4.156   6.688   0.874  0.1791 -0.5553  0.0215
 2721TIP3    H1 8127   4.185   6.745   0.945 -0.0611 -0.7985  0.3220
 2721TIP3    H2 8128   4.161   6.600   0.911  2.4680 -0.9434 -1.0703
 2722TIP3   OH2 8129   6.683   1.486   0.158 -0.0536 -0.3111  0.0083
 2722TIP3    H1 8130   6.676   1.518   0.068  2.4169  0.1050 -0.0944
 2722TIP3    H2 8131   6.667   1.563   0.212 -2.0803 -0.6709 -0.0058
 2723TIP3   OH2 8132   4.018   4.797   2.244 -0.5748  0.3622 -0.6307
 2723TIP3    H1 8133   4.047   4.756   2.163  1.9861 -1.4751  1.0766
 2723TIP3    H2 8134   3.995   4.724   2.301  3.4803  1.0281  2.2903
 2724TIP3   OH2 8135   4.302   2.160   5.305 -0.1587  0.0645  0.2021
 2724TIP3    H1 8136   4.220   2.143   5.259 -0.6914  3.2736 -0.3195
 2724TIP3    H2 8137   4.369   2.156   5.236 -0.4853  1.4097 -0.2326
 2725TIP3   OH2 8138   6.187   4.036   4.562  0.3015  0.3680  0.1055
 2725TIP3    H1 8139   6.204   3.981   4.639 -0.3048 -0.0066 -0.0177
 2725TIP3    H2 8140   6.258   4.100   4.561  1.6576 -1.0942 -0.3666
 2726TIP3   OH2 8141   3.391   1.000   4.615 -0.3125  0.3562 -0.4178
 2726TIP3    H1 8142   3.471   1.051   4.627 -0.1940  0.4898 -1.6522
 2726TIP3    H2 8143   3.383   0.990   4.520 -0.2169 -2.1164 -0.2384
 2727TIP3   OH2 8144   1.095   4.962   4.878 -0.0374  0.0502  0.3253
 2727TIP3    H1 8145   1.089   4.967   4.782  1.6236  1.2386  0.2349
 2727TIP3    H2 8146   1.046   5.038   4.909  2.4075  1.7670  0.2055
 2728TIP3   OH2 8147   2.800   4.042   3.601  0.6588  0.3420 -0.8062
 2728TIP3    H1 8148   2.829   4.085   3.681 -0.2781 -1.2872  0.4548
 2728TIP3    H2 8149   2.707   4.025   3.614  0.8410 -1.4246 -1.5267
 2729TIP3   OH2 8150   5.619   5.336   1.671  0.3943  0.1123  0.0259
 2729TIP3    H1 8151   5.612   5.430   1.682 -0.1520  0.0318  0.4251
 2729TIP3    H2 8152   5.640   5.303   1.759 -0.0077 -0.1874  0.0132
 2730TIP3   OH2 8153   6.734   0.031   3.316  0.3198  0.3313  0.0314
 2730TIP3    H1 8154   6.737  -0.059   3.349 -0.1080  0.5017  0.5579
 2730TIP3    H2 8155   6.656   0.068   3.357  0.4691  0.9270 -0.2228
 2731TIP3   OH2 8156   5.174   1.963   3.749 -0.1227 -0.4845 -0.3070
 2731TIP3    H1 8157   5.214   2.044   3.718  0.5616 -0.6385  0.1543
 2731TIP3    H2 8158   5.247   1.910   3.780 -0.6182 -1.0490 -0.0723
 2732TIP3   OH2 8159   3.202   2.654   5.727  0.0833  0.2262  0.1967
 2732TIP3    H1 8160   3.110   2.670   5.750  0.2266 -2.8718  4.0324
 2732TIP3    H2 8161   3.203   2.565   5.692  1.4915  0.8591 -1.4935
 2733TIP3   OH2 8162   3.148   6.411   1.753  0.2660 -0.3297 -0.0254
 2733TIP3    H1 8163   3.194   6.448   1.678  1.1285 -1.3408 -0.0085
 2733TIP3    H2 8164   3.214   6.359   1.799  0.1453  1.3442  2.2231
 2734TIP3   OH2 8165   0.556   4.948   5.241  0.4923 -0.7702  0.4507
 2734TIP3    H1 8166   0.541   4.856   5.259 -1.8271 -1.4525 -3.7465
 2734TIP3    H2 8167   0.477   4.992   5.273  0.7090 -0.5203  0.6480
 2735TIP3   OH2 8168   2.583   1.063   5.451 -0.2132  0.5195  0.4242
 2735TIP3    H1 8169   2.648   1.071   5.521  1.2199  1.6569 -0.9551
 2735TIP3    H2 8170   2.572   1.153   5.419  1.0332 -0.2261 -2.3915
 2736TIP3   OH2 8171   6.087   0.418   5.052 -0.1314 -0.4096 -0.4680
 2736TIP3    H1 8172   6.025   0.492   5.045  0.5071  0.1156 -0.6751
 2736TIP3    H2 8173   6.078   0.389   5.143  0.7825  0.9854  0.1047
 2737TIP3   OH2 8174   3.250   5.666   0.575  0.8728 -0.1232 -0.2462
 2737TIP3    H1 8175   3.267   5.657   0.481  0.0815 -0.3406 -0.3760
 2737TIP3    H2 8176   3.164   5.626   0.588  1.4816 -1.1971  0.7763
 2738TIP3   OH2 8177   4.951   5.137   2.651  0.1880 -0.1551  0.3928
 2738TIP3    H1 8178   4.891   5.105   2.583  0.5519 -1.2385  0.5620
 2738TIP3    H2 8179   5.022   5.179   2.603 -1.3060  2.3888  0.2025
 2739TIP3   OH2 8180   4.820   3.143   2.759  0.0074 -0.3674  0.3435
 2739TIP3    H1 8181   4.788   3.140   2.850  0.0527  0.5309  0.3970
 2739TIP3    H2 8182   4.866   3.227   2.753  0.2204 -0.5359 -0.4435
 2740TIP3   OH2 8183   4.292   6.593   4.591 -0.3231 -0.9001 -0.3174
 2740TIP3    H1 8184   4.349   6.629   4.660  0.7578 -0.3192 -1.4587
 2740TIP3    H2 8185   4.248   6.519   4.632  1.6701 -1.7114  0.4918
 2741TIP3   OH2 8186   2.425   5.788   5.164 -0.3308  0.0322  0.5767
 2741TIP3    H1 8187   2.446   5.700   5.132 -0.1120  0.2078  0.2357
 2741TIP3    H2 8188   2.403   5.775   5.256 -1.5622 -0.5571  0.2107
 2742TIP3   OH2 8189   4.861   3.438   0.948 -0.5158 -0.2613  0.5632
 2742TIP3    H1 8190   4.837   3.513   0.894  0.9303  0.0167  0.2680
 2742TIP3    H2 8191   4.942   3.405   0.909  0.7411  0.1169  2.7278
 2743TIP3   OH2 8192   0.801   3.472   4.055 -0.0569 -0.1281  0.1704
 2743TIP3    H1 8193   0.737   3.523   4.005  1.5378  0.7991 -0.9965
 2743TIP3    H2 8194   0.809   3.518   4.138  0.0271  0.4829 -0.1742
 2744TIP3   OH2 8195   2.202   0.803   0.534 -0.5055  0.0321 -0.1223
 2744TIP3    H1 8196   2.271   0.775   0.474  0.8631  1.4204  0.7262
 2744TIP3    H2 8197   2.187   0.895   0.511 -3.5010 -0.6877 -1.5648
 2745TIP3   OH2 8198   5.741   4.226   0.177  0.6036 -0.5341  0.7799
 2745TIP3    H1 8199   5.797   4.246   0.252 -1.3049  0.5316  1.9860
 2745TIP3    H2 8200   5.672   4.292   0.180 -0.3833 -1.3993 -1.0377
 2746TIP3   OH2 8201   2.727   0.092   1.847 -0.4250  0.4803  0.5109
 2746TIP3    H1 8202   2.781   0.053   1.778 -1.0239  0.6183 -0.0430
 2746TIP3    H2 8203   2.659   0.140   1.800 -0.8075  0.6215  1.2011
 2747TIP3   OH2 8204   3.098   2.141   0.522 -0.0936  0.2203 -0.5241
 2747TIP3    H1 8205   3.049   2.110   0.598 -0.1323 -0.1241 -0.6883
 2747TIP3    H2 8206   3.036   2.133   0.449  0.9613 -2.6199 -1.2205
 2748TIP3   OH2 8207   5.590   6.597   0.005  0.0792  0.1846 -0.1771
 2748TIP3    H1 8208   5.630   6.573   0.089 -1.9058  0.4622  0.9160
 2748TIP3    H2 8209   5.621   6.686  -0.011 -1.4462  1.0841  1.5662
 2749TIP3   OH2 8210   3.754   4.086   2.866  0.0244 -0.5561 -0.0782
 2749TIP3    H1 8211   3.758   4.160   2.927  0.6069 -0.2483 -0.4762
 2749TIP3    H2 8212   3.838   4.089   2.820 -0.4985 -0.6389 -1.0694
 2750TIP3   OH2 8213   1.117   3.908   5.656 -0.8045  0.0666 -0.3459
 2750TIP3    H1 8214   1.086   3.858   5.581  1.4622 -1.8843 -0.1123
 2750TIP3    H2 8215   1.095   3.854   5.732  1.3466 -0.4788 -0.0524
 2751TIP3   OH2 8216   3.201   2.960   4.154 -0.3366 -0.2264 -0.3147
 2751TIP3    H1 8217   3.189   3.055   4.154  1.3335  0.0081 -0.2706
 2751TIP3    H2 8218   3.130   2.927   4.099 -1.3408  0.9799  0.2224
 2752TIP3   OH2 8219   1.650   6.468   3.358  1.0433  0.0676 -0.2143
 2752TIP3    H1 8220   1.728   6.442   3.310 -0.2014 -3.4854 -0.6405
 2752TIP3    H2 8221   1.611   6.538   3.305  0.9889 -2.0659 -3.2702
 2753TIP3   OH2 8222   1.030   0.433   3.075 -0.0315  0.0464 -0.2316
 2753TIP3    H1 8223   1.087   0.360   3.099 -1.1397 -0.1560  2.1149
 2753TIP3    H2 8224   0.954   0.424   3.132 -1.6702  1.2626 -2.0931
 2754TIP3   OH2 8225   4.551   0.108   3.611 -0.0752 -0.1524 -0.1646
 2754TIP3    H1 8226   4.517   0.054   3.682 -0.3912  0.9329  0.5351
 2754TIP3    H2 8227   4.602   0.048   3.557  0.3003 -0.9734  1.0690
 2755TIP3   OH2 8228   5.703   5.669   0.831 -0.2295 -0.1781 -0.3187
 2755TIP3    H1 8229   5.669   5.723   0.760  2.7502  2.8846  0.3668
 2755TIP3    H2 8230   5.691   5.722   0.909  0.8787 -1.4690  0.7704
 2756TIP3   OH2 8231   2.169   4.472   5.250 -0.3007 -0.5948 -0.4959
 2756TIP3    H1 8232   2.133   4.409   5.187 -0.4124 -1.2837  0.2395
 2756TIP3    H2 8233   2.248   4.505   5.208 -1.7184  0.9002 -2.1206
 2757TIP3   OH2 8234   5.451   5.886   3.823  0.1143  0.0966  0.0928
 2757TIP3    H1 8235   5.519   5.820   3.813  0.5537  0.5587 -0.0481
 2757TIP3    H2 8236   5.369   5.841   3.801  0.5640 -0.0176 -1.4480
 2758TIP3   OH2 8237   6.185   2.851   1.991  0.0213 -0.3703 -0.4786
 2758TIP3    H1 8238   6.209   2.851   1.899 -0.5012 -1.0285 -0.6266
 2758TIP3    H2 8239   6.256   2.898   2.035  0.8936 -1.1128 -1.0586
 2759TIP3   OH2 8240   6.926   3.377   4.025  0.2688 -0.3033 -0.3728
 2759TIP3    H1 8241   6.982   3.326   4.083 -1.1030 -2.2501 -0.6602
 2759TIP3    H2 8242   6.975   3.383   3.943  1.8292  1.7025  0.6023
 2760TIP3   OH2 8243   6.639   4.942   3.674 -0.1913 -0.8325  0.5370
 2760TIP3    H1 8244   6.616   5.025   3.717 -0.3352 -0.2941 -0.5524
 2760TIP3    H2 8245   6.560   4.888   3.682 -1.0271  0.0887 -0.9781
 2761TIP3   OH2 8246   2.300   0.730   1.148 -0.2512  0.6452  0.3150
 2761TIP3    H1 8247   2.367   0.753   1.085  1.7532 -0.2476  1.9893
 2761TIP3    H2 8248   2.248   0.810   1.159  1.6470  1.9396  0.2549
 2762TIP3   OH2 8249   3.663   3.725   4.225 -0.1213 -0.3512 -0.0406
 2762TIP3    H1 8250   3.730   3.762   4.167 -2.0731  2.9520 -0.4722
 2762TIP3    H2 8251   3.669   3.778   4.304 -1.1086 -1.1518  0.5842
 2763TIP3   OH2 8252   2.027   5.237   3.801  0.3433 -0.6239  0.6055
 2763TIP3    H1 8253   2.111   5.226   3.845  0.6960 -0.1089  0.0857
 2763TIP3    H2 8254   2.041   5.203   3.713  0.6530  1.3545 -0.1537
 2764TIP3   OH2 8255   2.421   1.570   2.521 -0.2994  0.4148  0.4364
 2764TIP3    H1 8256   2.512   1.539   2.526  0.4760  2.2788 -0.7668
 2764TIP3    H2 8257   2.384   1.550   2.607  1.2415 -0.3812  0.9645
 2765TIP3   OH2 8258   4.628   5.880   5.351 -0.6531  0.0502 -0.1715
 2765TIP3    H1 8259   4.693   5.923   5.295 -0.8350  0.1499 -0.3101
 2765TIP3    H2 8260   4.667   5.880   5.438 -0.6357  0.4737 -0.1769
 2766TIP3   OH2 8261   0.633   5.767   0.179 -0.0813  0.5317 -0.0914
 2766TIP3    H1 8262   0.666   5.698   0.122 -0.1712  0.7429 -0.4026
 2766TIP3    H2 8263   0.690   5.765   0.255  0.7409  0.9878 -0.6855
 2767TIP3   OH2 8264   4.566   0.814   4.120 -0.1531 -0.4509  0.3115
 2767TIP3    H1 8265   4.515   0.895   4.123 -1.1979 -1.0764 -0.1759
 2767TIP3    H2 8266   4.654   0.841   4.144 -0.2121  1.0572 -0.9616
 2768TIP3   OH2 8267   5.040   2.279   1.493  0.6381 -0.4255  0.0287
 2768TIP3    H1 8268   4.978   2.347   1.519  0.8233 -0.2608  0.0357
 2768TIP3    H2 8269   5.009   2.249   1.408 -0.0995 -1.1163  0.5205
 2769TIP3   OH2 8270   4.712   3.246   1.855 -0.1468  0.0451 -0.5404
 2769TIP3    H1 8271   4.630   3.203   1.832 -0.2317  0.6338 -1.3698
 2769TIP3    H2 8272   4.763   3.178   1.901 -1.3668 -0.1174  0.6223
 2770TIP3   OH2 8273   4.412   1.208   1.319  0.5100  0.3937 -0.1031
 2770TIP3    H1 8274   4.497   1.203   1.277 -0.3375 -0.2955 -1.8301
 2770TIP3    H2 8275   4.430   1.195   1.412  2.2679  0.2131 -0.4457
 2771TIP3   OH2 8276   5.504   5.104   4.081  0.2620 -0.2330 -0.3201
 2771TIP3    H1 8277   5.589   5.125   4.042  0.0745 -0.0744 -0.6498
 2771TIP3    H2 8278   5.491   5.011   4.063  0.4384 -0.2982 -0.1232
 2772TIP3   OH2 8279   4.755   3.093   3.390  0.2338  0.4376  0.1361
 2772TIP3    H1 8280   4.713   3.031   3.330  0.8198 -0.5475  0.7196
 2772TIP3    H2 8281   4.838   3.114   3.347  0.9913 -0.8439  0.9135
 2773TIP3   OH2 8282   3.911   1.981   3.836  0.3127 -0.0022  0.0809
 2773TIP3    H1 8283   3.879   1.939   3.756  0.1038  0.8486 -0.2896
 2773TIP3    H2 8284   3.937   2.068   3.808 -0.4631  0.5643  1.0790
 2774TIP3   OH2 8285   0.855   1.178   1.334  0.1068 -0.1899 -0.3871
 2774TIP3    H1 8286   0.833   1.190   1.241  0.6050  1.5100 -0.3249
 2774TIP3    H2 8287   0.780   1.213   1.381  0.1457 -0.4316 -0.1450
 2775TIP3   OH2 8288   4.393   1.871   0.926  0.9413  0.0974 -0.5026
 2775TIP3    H1 8289   4.405   1.829   1.012  1.5753  1.5314  0.1339
 2775TIP3    H2 8290   4.306   1.911   0.932  1.7554  1.8465  0.2317
 2776TIP3   OH2 8291   1.745   6.805   3.464  0.1595 -0.0389  0.5132
 2776TIP3    H1 8292   1.737   6.728   3.520  0.0197 -0.4131 -0.0119
 2776TIP3    H2 8293   1.701   6.780   3.382  0.7064  0.3492  0.0889
 2777TIP3   OH2 8294   5.570   0.632   2.706  0.4810  0.2408  0.0059
 2777TIP3    H1 8295   5.661   0.602   2.701  0.5470  0.6153 -1.4780
 2777TIP3    H2 8296   5.532   0.581   2.778  1.9370  0.3157  0.8713
 2778TIP3   OH2 8297   0.758   2.516   4.913 -0.1938  0.8975 -0.0119
 2778TIP3    H1 8298   0.827   2.502   4.848 -1.7379 -1.5543 -1.2971
 2778TIP3    H2 8299   0.796   2.486   4.996 -0.2613 -2.6742 -1.0933
 2779TIP3   OH2 8300   1.181   0.711   0.288  0.1742 -0.4360  1.1524
 2779TIP3    H1 8301   1.255   0.732   0.345  0.1544 -0.2796  1.1209
 2779TIP3    H2 8302   1.111   0.769   0.317  0.1080 -0.4825  1.0870
 2780TIP3   OH2 8303   6.861   5.466   2.153  0.0562  0.6564  0.1189
 2780TIP3    H1 8304   6.832   5.393   2.208  0.0654 -0.7380 -1.6228
 2780TIP3    H2 8305   6.897   5.530   2.214  1.9076 -1.6317  1.6052
 2781TIP3   OH2 8306   1.730   1.446   0.862  0.3453 -0.5790 -0.3899
 2781TIP3    H1 8307   1.765   1.500   0.933 -0.3748 -2.0044  1.1198
 2781TIP3    H2 8308   1.652   1.493   0.832  0.9333  0.2796 -0.5939
 2782TIP3   OH2 8309   2.188   2.752   1.355  0.5617  0.2407  0.8324
 2782TIP3    H1 8310   2.230   2.726   1.273 -0.3290 -1.1979  0.7774
 2782TIP3    H2 8311   2.257   2.796   1.405  1.0221  1.4820 -0.8085
 2783TIP3   OH2 8312   6.592   1.092   2.583 -0.0991 -0.1139 -0.3922
 2783TIP3    H1 8313   6.568   1.151   2.511  0.2462  1.1598  0.5062
 2783TIP3    H2 8314   6.683   1.068   2.566 -0.5882 -1.4064 -1.4084
 2784TIP3   OH2 8315   0.564   0.690   3.528 -0.3640  0.2357 -0.1305
 2784TIP3    H1 8316   0.547   0.596   3.513  0.3720  0.2835 -1.4504
 2784TIP3    H2 8317   0.493   0.718   3.586 -1.1005 -0.9448 -0.4164
 2785TIP3   OH2 8318   6.927   2.948   5.385  0.4055 -0.2980 -0.0722
 2785TIP3    H1 8319   6.863   2.911   5.445 -1.1525  0.0543 -1.4403
 2785TIP3    H2 8320   6.964   3.022   5.432  0.2656 -0.8771  0.9750
 2786TIP3   OH2 8321   0.161   6.780   3.975  0.0304 -0.2077  0.0024
 2786TIP3    H1 8322   0.085   6.838   3.985  0.0943  0.0008 -0.6511
 2786TIP3    H2 8323   0.183   6.753   4.064 -1.4698 -1.1372  0.1293
 2787TIP3   OH2 8324   1.011   0.818   5.062  0.2411 -0.6313  0.4258
 2787TIP3    H1 8325   0.967   0.898   5.090  0.3946 -0.5205  0.3512
 2787TIP3    H2 8326   1.100   0.846   5.041  0.5449 -0.9616  1.2003
 2788TIP3   OH2 8327   2.764   5.775   3.633 -0.4734  0.3124 -0.3054
 2788TIP3    H1 8328   2.816   5.695   3.619 -0.3015  0.3631  0.0522
 2788TIP3    H2 8329   2.819   5.830   3.688 -0.2366  1.0371 -1.2459
 2789TIP3   OH2 8330   6.212   0.261   4.579 -0.2184 -0.5816 -0.3548
 2789TIP3    H1 8331   6.211   0.177   4.535  0.4283 -1.3218  0.9579
 2789TIP3    H2 8332   6.214   0.326   4.509 -0.2591 -1.6680 -1.3830
 2790TIP3   OH2 8333   5.541   4.279   4.484  0.7194 -0.3170  0.4960
 2790TIP3    H1 8334   5.446   4.292   4.494  0.6755  0.3801 -0.6593
 2790TIP3    H2 8335   5.577   4.301   4.570 -0.1872 -0.8128  1.0157
 2791TIP3   OH2 8336   4.378   1.809   2.597  0.1327  0.1510  0.5779
 2791TIP3    H1 8337   4.326   1.759   2.660 -0.3082 -0.8959 -0.5967
 2791TIP3    H2 8338   4.315   1.839   2.532  0.4459  1.9497  1.0231
 2792TIP3   OH2 8339   0.812   6.604   0.324 -0.2468 -0.1338  0.1377
 2792TIP3    H1 8340   0.802   6.673   0.390 -0.7258 -1.7158  1.7723
 2792TIP3    H2 8341   0.884   6.550   0.357 -1.0555 -1.4305 -0.1899
 2793TIP3   OH2 8342   5.859   3.524   3.272  0.1376  0.0467 -0.0052
 2793TIP3    H1 8343   5.835   3.437   3.300 -0.6918  0.3240  0.1548
 2793TIP3    H2 8344   5.898   3.565   3.349 -0.6511  0.2537  0.2867
 2794TIP3   OH2 8345   3.337   4.965   3.478 -0.2164  0.0438  0.3604
 2794TIP3    H1 8346   3.350   4.943   3.570 -1.6968  5.1229  2.1301
 2794TIP3    H2 8347   3.248   5.000   3.475 -0.1208  0.2853 -2.9862
 2795TIP3   OH2 8348   3.379   2.505   1.799  0.5114  0.1388 -0.3129
 2795TIP3    H1 8349   3.396   2.566   1.871  0.7076 -0.2713 -0.0041
 2795TIP3    H2 8350   3.381   2.419   1.841  1.2709 -0.1508 -0.9289
 2796TIP3   OH2 8351   0.884   3.978   0.035 -0.0204 -0.9858  0.2658
 2796TIP3    H1 8352   0.903   4.030   0.112  0.7905 -1.2092  0.2295
 2796TIP3    H2 8353   0.876   3.888   0.068 -0.6539 -0.9488  0.2242
 2797TIP3   OH2 8354   5.258   3.101   1.213 -0.4131  1.0724  0.0390
 2797TIP3    H1 8355   5.193   3.031   1.223  0.5328  0.0692 -0.5667
 2797TIP3    H2 8356   5.334   3.069   1.262  0.0371  1.6721 -0.2650
 2798TIP3   OH2 8357   5.273   1.461   5.608  0.3936 -0.1232  0.2394
 2798TIP3    H1 8358   5.216   1.393   5.644  0.3621 -0.5929 -0.6699
 2798TIP3    H2 8359   5.217   1.511   5.549  0.6134  0.2220  0.3153
 2799TIP3   OH2 8360   6.122   1.843   3.557 -0.3380 -0.5920  0.3303
 2799TIP3    H1 8361   6.205   1.845   3.604 -0.9977  1.9740  1.5272
 2799TIP3    H2 8362   6.144   1.806   3.471  1.5884 -1.8960  1.3118
 2800TIP3   OH2 8363   3.098   4.272   3.712  0.1306 -0.5854  0.2816
 2800TIP3    H1 8364   3.028   4.219   3.674 -0.3148 -1.0319  1.6751
 2800TIP3    H2 8365   3.126   4.223   3.790  4.4704 -2.3594 -2.0156
 2801TIP3   OH2 8366   0.646   5.488   0.360 -0.3796  0.1292  0.1589
 2801TIP3    H1 8367   0.724   5.437   0.338 -0.7471 -0.1083 -0.6396
 2801TIP3    H2 8368   0.574   5.425   0.353 -0.8369  0.7392 -0.8060
 2802TIP3   OH2 8369   1.700   4.533   2.742  0.3105 -0.2159  0.3252
 2802TIP3    H1 8370   1.777   4.544   2.686  0.7236 -1.2837  0.6555
 2802TIP3    H2 8371   1.731   4.553   2.830  0.3061 -0.9469  0.5039
 2803TIP3   OH2 8372   3.163   0.632   4.379 -0.0898 -0.2005 -0.3736
 2803TIP3    H1 8373   3.240   0.607   4.327 -0.4800 -1.0547 -0.5576
 2803TIP3    H2 8374   3.199   0.650   4.466  0.2600 -1.1074 -0.3189
 2804TIP3   OH2 8375   4.215   2.577   2.329 -0.4691  0.1913  0.2987
 2804TIP3    H1 8376   4.156   2.646   2.360  0.2876  1.9848 -1.9706
 2804TIP3    H2 8377   4.156   2.514   2.287 -1.0870 -0.0716  1.5150
 2805TIP3   OH2 8378   0.047   5.712   2.604  0.5842  0.4880 -0.3432
 2805TIP3    H1 8379   0.109   5.644   2.581 -2.1806 -2.0007 -1.0414
 2805TIP3    H2 8380   0.021   5.692   2.694 -1.8652 -0.8793 -1.2629
 2806TIP3   OH2 8381   6.436   0.761   1.016  0.0591  0.6379  0.1546
 2806TIP3    H1 8382   6.436   0.825   0.945 -0.5729  1.9590  1.2984
 2806TIP3    H2 8383   6.524   0.767   1.053  0.1658  0.4613 -0.0693
 2807TIP3   OH2 8384   5.183   0.881   5.101 -0.2233 -0.0422 -0.2479
 2807TIP3    H1 8385   5.213   0.831   5.177  0.0728 -0.0445 -0.3659
 2807TIP3    H2 8386   5.209   0.829   5.026 -0.9766 -0.2922 -0.3381
 2808TIP3   OH2 8387   5.276   0.212   4.153 -0.1198 -0.3114 -0.6543
 2808TIP3    H1 8388   5.258   0.290   4.205  2.3605 -0.7989  1.1117
 2808TIP3    H2 8389   5.355   0.235   4.103 -1.3576 -0.5370 -2.8856
 2809TIP3   OH2 8390   4.118   4.814   0.884  0.7712  0.6265  0.1374
 2809TIP3    H1 8391   4.210   4.836   0.899  0.4716  1.0199  1.5017
 2809TIP3    H2 8392   4.081   4.804   0.972 -0.1370 -1.0597 -0.4029
 2810TIP3   OH2 8393   2.897   5.351   0.234 -0.5389 -0.4817 -0.2218
 2810TIP3    H1 8394   2.957   5.348   0.308 -2.2487 -0.0526  1.2411
 2810TIP3    H2 8395   2.840   5.275   0.245 -1.9727  0.5779 -0.0424
 2811TIP3   OH2 8396   4.289   1.578   5.108 -0.1656  0.1599 -0.1217
 2811TIP3    H1 8397   4.235   1.652   5.136 -1.1526 -1.5162  2.8464
 2811TIP3    H2 8398   4.287   1.582   5.012 -1.0244  3.3037 -0.0980
 2812TIP3   OH2 8399   4.410   5.728   3.282 -0.2661 -0.2267 -0.4307
 2812TIP3    H1 8400   4.447   5.768   3.361 -2.0672 -0.4001  0.5602
 2812TIP3    H2 8401   4.353   5.795   3.245 -0.6431 -0.6921 -0.7003
 2813TIP3   OH2 8402   5.942   5.877   3.113 -0.2826 -0.0785 -0.0022
 2813TIP3    H1 8403   5.952   5.972   3.109  0.7062 -0.1691  0.1250
 2813TIP3    H2 8404   5.901   5.854   3.030 -0.1894  0.4184 -0.1893
 2814TIP3   OH2 8405   4.025   1.697   5.546  0.2127 -0.1961 -0.3621
 2814TIP3    H1 8406   3.935   1.664   5.550 -2.0541  4.9991 -0.6594
 2814TIP3    H2 8407   4.063   1.670   5.629 -3.1512  0.8255  1.7358
 2815TIP3   OH2 8408   1.844   1.772   1.549  0.1239 -0.1134 -0.0511
 2815TIP3    H1 8409   1.867   1.708   1.617  1.7944 -0.5331 -0.9377
 2815TIP3    H2 8410   1.756   1.747   1.521 -0.4764 -0.1101  1.7151
 2816TIP3   OH2 8411   4.598   1.034   4.421  0.3503  0.1118  0.0996
 2816TIP3    H1 8412   4.513   0.999   4.446  1.3047 -2.3166  0.1751
 2816TIP3    H2 8413   4.591   1.051   4.327 -0.0432 -0.6330 -0.0095
 2817TIP3   OH2 8414   2.512   3.473   0.505 -0.3278 -0.6857  0.1723
 2817TIP3    H1 8415   2.517   3.426   0.422  4.0103 -0.1003 -0.1686
 2817TIP3    H2 8416   2.548   3.413   0.570 -0.1742  0.1366  0.8767
 2818TIP3   OH2 8417   6.334   3.087   1.810 -0.0865 -0.6757 -0.3120
 2818TIP3    H1 8418   6.347   3.165   1.756 -2.0066  0.9734  1.4482
 2818TIP3    H2 8419   6.269   3.035   1.762 -1.5581  0.6304  0.1941
 2819TIP3   OH2 8420   4.908   1.422   2.376 -0.0154  0.1397  0.3136
 2819TIP3    H1 8421   4.988   1.445   2.423  0.5589  0.6397 -0.8559
 2819TIP3    H2 8422   4.938   1.363   2.306 -0.9546 -1.2286  1.0151
 2820TIP3   OH2 8423   6.949   6.125   5.306 -0.8016  0.1716 -0.0077
 2820TIP3    H1 8424   7.028   6.091   5.263  0.0422  0.3264  1.3790
 2820TIP3    H2 8425   6.926   6.058   5.371  0.2457  1.6604  2.0035
 2821TIP3   OH2 8426   0.974   5.649   4.621 -0.2015  0.3417  0.1467
 2821TIP3    H1 8427   0.976   5.694   4.537 -0.5338 -1.2631 -0.7568
 2821TIP3    H2 8428   1.050   5.683   4.669  1.3115 -0.3325 -1.6699
 2822TIP3   OH2 8429   4.649   0.649   5.728  0.6870  0.4018  0.0351
 2822TIP3    H1 8430   4.638   0.656   5.633 -2.2419  0.7899  0.2926
 2822TIP3    H2 8431   4.678   0.560   5.743  0.5820  0.1413 -1.2051
 2823TIP3   OH2 8432   1.622   1.813   5.167 -0.6664  0.3607  0.8487
 2823TIP3    H1 8433   1.618   1.733   5.115  0.6992  0.5956  0.3389
 2823TIP3    H2 8434   1.531   1.845   5.168 -1.0191 -0.5510  0.0569
 2824TIP3   OH2 8435   0.909   4.989   4.367 -0.0958  0.1427  0.0637
 2824TIP3    H1 8436   0.890   5.079   4.339 -0.3358 -0.3067 -1.2994
 2824TIP3    H2 8437   0.909   4.938   4.286 -1.9054 -1.4554  0.9657
 2825TIP3   OH2 8438   4.004   4.485   5.644 -0.2106  0.1995 -0.0135
 2825TIP3    H1 8439   4.031   4.526   5.726 -1.4307 -0.7452  0.9169
 2825TIP3    H2 8440   4.051   4.401   5.643  0.3764  0.5273 -0.6701
 2826TIP3   OH2 8441   2.189   6.714   0.765 -1.0154 -0.0829  0.2610
 2826TIP3    H1 8442   2.123   6.782   0.784 -0.3008  1.0305 -1.0170
 2826TIP3    H2 8443   2.269   6.764   0.749 -0.5377 -1.2298 -1.0005
 2827TIP3   OH2 8444   6.364   4.219   4.529 -0.1850  0.1940  0.0162
 2827TIP3    H1 8445   6.367   4.307   4.491  0.2655  1.7742  3.3593
 2827TIP3    H2 8446   6.414   4.225   4.610 -1.9549 -2.5498  1.5035
 2828TIP3   OH2 8447   5.238   0.371  -0.025  0.0141 -0.1829  0.0043
 2828TIP3    H1 8448   5.304   0.381   0.044  0.5986 -0.5715 -0.4936
 2828TIP3    H2 8449   5.160   0.342   0.022  0.7015 -1.4896  0.3948
 2829TIP3   OH2 8450   3.655   6.678   0.854  0.1491  0.1145  0.5253
 2829TIP3    H1 8451   3.573   6.629   0.844  0.3490 -0.5510  2.0392
 2829TIP3    H2 8452   3.721   6.623   0.812 -0.0615  0.3605 -0.1448
 2830TIP3   OH2 8453   2.499   4.662   0.615  0.1693 -0.4519 -0.2375
 2830TIP3    H1 8454   2.523   4.738   0.667 -0.2699  0.7409 -1.7314
 2830TIP3    H2 8455   2.404   4.653   0.627  0.1118 -0.3461 -0.5922
 2831TIP3   OH2 8456   0.449   2.288   0.385  0.1718 -0.6283  0.7497
 2831TIP3    H1 8457   0.474   2.195   0.387 -1.4160 -1.1303 -0.6403
 2831TIP3    H2 8458   0.403   2.301   0.468 -0.4200 -1.3627  0.5527
 2832TIP3   OH2 8459   6.254   5.261   0.838 -0.2663 -0.1815 -0.5357
 2832TIP3    H1 8460   6.339   5.269   0.796  0.2236 -1.8639  0.0237
 2832TIP3    H2 8461   6.268   5.195   0.907 -1.2524  1.7714  1.6495
 2833TIP3   OH2 8462   6.981   3.057   4.688  0.2117 -0.6447 -0.2190
 2833TIP3    H1 8463   6.891   3.039   4.714  0.0387  0.8260  0.2775
 2833TIP3    H2 8464   7.030   3.058   4.770  0.4770 -0.3384 -0.3771
 2834TIP3   OH2 8465   4.439   0.129   0.796  0.5366  0.4856  0.4071
 2834TIP3    H1 8466   4.469   0.181   0.722 -1.2970  0.8054 -0.1549
 2834TIP3    H2 8467   4.387   0.190   0.849 -1.9762 -0.7344 -0.4615
 2835TIP3   OH2 8468   6.585   5.159   4.722  0.2273 -0.2305  0.1460
 2835TIP3    H1 8469   6.588   5.190   4.813  0.8847 -1.1528  0.4476
 2835TIP3    H2 8470   6.594   5.064   4.729 -1.1041 -0.4492 -0.8022
 2836TIP3   OH2 8471   0.036   1.040   2.690  0.1421  0.0605  0.1358
 2836TIP3    H1 8472   0.052   0.980   2.763 -1.9723 -0.3286  0.3399
 2836TIP3    H2 8473   0.022   0.983   2.615  1.7908  0.4525 -0.5257
 2837TIP3   OH2 8474   2.084   4.707   0.943  0.2057 -0.0257 -0.0195
 2837TIP3    H1 8475   1.992   4.683   0.946  0.6963 -2.0958 -0.2223
 2837TIP3    H2 8476   2.130   4.631   0.978  1.9181  0.5168 -0.9735
 2838TIP3   OH2 8477   0.281   5.372   2.765  0.1652  0.3357  0.0460
 2838TIP3    H1 8478   0.313   5.288   2.734 -0.6434  0.5646 -1.5004
 2838TIP3    H2 8479   0.267   5.424   2.685 -1.6761  1.0817  0.8053
 2839TIP3   OH2 8480   1.164   5.753   3.984 -0.0916 -0.1023 -0.2592
 2839TIP3    H1 8481   1.173   5.771   4.077 -0.4422  0.3382 -0.3075
 2839TIP3    H2 8482   1.240   5.795   3.944  1.3512 -2.2409  0.0511
 2840TIP3   OH2 8483   0.283   0.075   2.960  0.3322  1.1521 -0.3663
 2840TIP3    H1 8484   0.252   0.111   2.876 -0.4486  3.6800  0.8966
 2840TIP3    H2 8485   0.215   0.099   3.022  1.2130 -0.1024  1.1378
 2841TIP3   OH2 8486   1.769   3.995   0.155 -1.0143  0.1546 -0.0011
 2841TIP3    H1 8487   1.853   4.037   0.134 -1.1944  0.5453  0.0566
 2841TIP3    H2 8488   1.727   3.983   0.070 -1.0032  0.1760 -0.0097
 2842TIP3   OH2 8489   5.761   2.385   3.690  0.1017  0.3572  0.0400
 2842TIP3    H1 8490   5.708   2.457   3.725 -1.2568 -0.6880  0.2364
 2842TIP3    H2 8491   5.813   2.425   3.620 -0.1264  1.6568  0.5778
 2843TIP3   OH2 8492   0.522   1.903   4.440 -0.2709 -0.0694  0.0937
 2843TIP3    H1 8493   0.612   1.935   4.453  0.1166 -0.5307 -1.2369
 2843TIP3    H2 8494   0.511   1.835   4.507 -0.2535  1.1616  1.3743
 2844TIP3   OH2 8495   2.971   2.556   1.532 -0.1070  0.0664  0.2837
 2844TIP3    H1 8496   2.938   2.621   1.469  0.5699  0.4396  0.3006
 2844TIP3    H2 8497   3.055   2.592   1.561  0.5221 -1.0595 -0.0894
 2845TIP3   OH2 8498   1.352   3.505   0.664 -0.2672  0.2876 -0.5231
 2845TIP3    H1 8499   1.307   3.513   0.748  0.6068  0.9124 -0.0982
 2845TIP3    H2 8500   1.286   3.469   0.605 -0.6377 -1.0159  0.6382
 2846TIP3   OH2 8501   6.746   5.524   4.456  0.1636 -0.1107 -0.2029
 2846TIP3    H1 8502   6.772   5.598   4.510  0.2844  0.3274 -0.8562
 2846TIP3    H2 8503   6.796   5.450   4.491 -1.6942 -0.4408  2.0035
 2847TIP3   OH2 8504   2.289   0.757   5.322  0.3525 -0.2137 -0.0216
 2847TIP3    H1 8505   2.330   0.707   5.392  0.0153 -1.2835 -0.5610
 2847TIP3    H2 8506   2.312   0.848   5.340  2.3812 -0.7054  0.0707
 2848TIP3   OH2 8507   4.838   1.499   1.570  0.0910 -0.2757 -0.1015
 2848TIP3    H1 8508   4.905   1.432   1.583  0.6496 -0.1716 -2.1705
 2848TIP3    H2 8509   4.762   1.452   1.537  0.9835  0.1649 -3.0978
 2849TIP3   OH2 8510   5.235   0.705   0.515  0.1761 -0.0837  0.5529
 2849TIP3    H1 8511   5.327   0.706   0.489  0.0134 -2.0029 -0.2230
 2849TIP3    H2 8512   5.231   0.762   0.592  1.6563  1.4871 -0.4590
 2850TIP3   OH2 8513   3.928   5.946   5.487 -0.3547 -0.3788 -0.4971
 2850TIP3    H1 8514   3.848   5.983   5.448 -0.5838 -0.2329  0.0942
 2850TIP3    H2 8515   3.952   6.009   5.555 -0.1995 -0.8427 -0.1219
 2851TIP3   OH2 8516   6.125   4.501   0.719  0.0034  0.2039 -0.3212
 2851TIP3    H1 8517   6.139   4.544   0.804 -0.1090  1.1175 -0.7611
 2851TIP3    H2 8518   6.187   4.428   0.719 -0.1393  0.0676  0.6347
 2852TIP3   OH2 8519   1.660   1.209   0.460  0.1709 -0.6605 -0.9032
 2852TIP3    H1 8520   1.672   1.289   0.409 -3.1817  0.0024 -0.9018
 2852TIP3    H2 8521   1.567   1.189   0.451  0.4029 -3.1662  1.1659
 2853TIP3   OH2 8522   1.269   2.018   0.168  0.5953  0.3865  0.5672
 2853TIP3    H1 8523   1.331   1.965   0.119  1.0547  0.8953  0.5857
 2853TIP3    H2 8524   1.314   2.102   0.181  0.4547  0.2901  1.7884
 2854TIP3   OH2 8525   3.582   2.324   3.444  0.9491 -0.0139  0.0582
 2854TIP3    H1 8526   3.558   2.415   3.428  0.8298  0.1480  1.1046
 2854TIP3    H2 8527   3.605   2.290   3.357 -1.2042  0.3655 -0.7329
 2855TIP3   OH2 8528   3.427   3.109   4.413  0.4669 -0.5482 -0.0728
 2855TIP3    H1 8529   3.349   3.164   4.402  0.2060 -1.0554 -0.8128
 2855TIP3    H2 8530   3.395   3.032   4.460  0.4687 -0.8711 -0.5962
 2856TIP3   OH2 8531   5.504   1.318   2.610 -0.4375  0.5146  0.2713
 2856TIP3    H1 8532   5.466   1.291   2.694 -1.2115  1.7910  0.3504
 2856TIP3    H2 8533   5.528   1.236   2.567 -0.3999 -0.1739  1.5608
 2857TIP3   OH2 8534   7.004   5.562   2.393 -0.4303  0.7792  0.4483
 2857TIP3    H1 8535   7.059   5.630   2.431  0.7577 -1.7261  3.6771
 2857TIP3    H2 8536   6.939   5.543   2.460 -0.8429 -1.1199 -0.4192
 2858TIP3   OH2 8537   1.610   5.144   0.867  0.1227 -0.1408  0.2972
 2858TIP3    H1 8538   1.646   5.067   0.911 -2.6140 -1.1996  0.9091
 2858TIP3    H2 8539   1.558   5.188   0.934 -0.3018  0.8903 -0.6644
 2859TIP3   OH2 8540   6.382   2.539   4.312 -0.1432 -0.5029 -0.1851
 2859TIP3    H1 8541   6.430   2.589   4.246 -1.8257  0.8920 -0.4363
 2859TIP3    H2 8542   6.379   2.597   4.388  0.0223 -1.2577  0.4036
 2860TIP3   OH2 8543   2.961   4.513   5.062  0.0467 -0.4792  0.1379
 2860TIP3    H1 8544   3.036   4.570   5.079  0.3478 -0.9100  0.2584
 2860TIP3    H2 8545   2.923   4.498   5.149  0.0368 -0.5604  0.1192
 2861TIP3   OH2 8546   2.556   1.627   0.364  0.3290  0.1749  0.4797
 2861TIP3    H1 8547   2.618   1.696   0.338  0.4884 -0.2369 -0.2687
 2861TIP3    H2 8548   2.486   1.632   0.299  0.1117 -0.0692  0.6919
 2862TIP3   OH2 8549   3.350   0.517   3.223 -0.2935 -0.2218  0.0678
 2862TIP3    H1 8550   3.285   0.586   3.206  0.0427 -0.0972 -0.7878
 2862TIP3    H2 8551   3.400   0.511   3.141  0.0074 -1.1354  0.3055
 2863TIP3   OH2 8552   6.175   3.710   0.875 -0.1717  0.2648  0.0164
 2863TIP3    H1 8553   6.161   3.795   0.918  0.6131  0.0636  0.6866
 2863TIP3    H2 8554   6.111   3.709   0.803 -0.5914  1.1718  0.3596
 2864TIP3   OH2 8555   5.559   0.917   3.034 -0.2538 -0.1075  0.7034
 2864TIP3    H1 8556   5.521   0.833   3.007  0.8144 -1.2858  2.6077
 2864TIP3    H2 8557   5.637   0.893   3.084  1.5408  2.1502 -0.8321
 2865TIP3   OH2 8558   0.288   3.418   1.092 -0.1285  0.0318 -0.4796
 2865TIP3    H1 8559   0.274   3.377   1.006  0.6660  0.6488 -0.9243
 2865TIP3    H2 8560   0.273   3.511   1.076  0.6082  0.2254 -0.0932
 2866TIP3   OH2 8561   3.379   4.827   4.481  0.2645  0.2539  0.0256
 2866TIP3    H1 8562   3.337   4.788   4.558 -2.3721  1.7004 -0.5497
 2866TIP3    H2 8563   3.371   4.760   4.413 -2.3011  0.8851 -0.3818
 2867TIP3   OH2 8564   5.956   0.451   3.093 -0.5531  0.3348  0.3038
 2867TIP3    H1 8565   5.941   0.522   3.030 -0.4967  1.0838  1.1149
 2867TIP3    H2 8566   6.020   0.487   3.155  0.9759 -1.1026 -0.3502
 2868TIP3   OH2 8567   5.397   1.163   5.380  0.0772 -0.3711 -0.0777
 2868TIP3    H1 8568   5.302   1.169   5.373  0.2263 -0.0252 -2.8423
 2868TIP3    H2 8569   5.417   1.074   5.351  0.5511 -0.9108  1.7931
 2869TIP3   OH2 8570   3.669   6.599   1.188 -0.0434 -0.0601  0.6870
 2869TIP3    H1 8571   3.739   6.660   1.165  0.1728 -0.1862  0.9978
 2869TIP3    H2 8572   3.590   6.637   1.150  0.0071  0.6612  1.2793
 2870TIP3   OH2 8573   2.632   2.140   4.590  0.4353 -0.5288 -0.1704
 2870TIP3    H1 8574   2.586   2.208   4.540  1.2104 -0.9011 -1.4430
 2870TIP3    H2 8575   2.724   2.165   4.585  0.4706 -0.1286  1.8251
 2871TIP3   OH2 8576   2.369   4.878   3.732 -0.3010  0.9137 -0.0920
 2871TIP3    H1 8577   2.375   4.897   3.825 -2.0736  0.5079  0.1399
 2871TIP3    H2 8578   2.375   4.964   3.689  0.3502  1.1145  0.3943
 2872TIP3   OH2 8579   4.960   2.191   5.506 -0.0510 -0.8277  0.3774
 2872TIP3    H1 8580   5.023   2.241   5.454 -1.2646  0.4929  0.1157
 2872TIP3    H2 8581   4.963   2.231   5.593 -0.1334 -1.1223  0.5160
 2873TIP3   OH2 8582   2.729   6.247   1.256 -0.3244 -0.1428 -0.9730
 2873TIP3    H1 8583   2.705   6.187   1.326 -1.9114  1.7318  0.2084
 2873TIP3    H2 8584   2.823   6.235   1.245 -0.1341 -0.9576  1.0672
 2874TIP3   OH2 8585   5.017   6.309   3.856 -0.9834 -0.2464  0.4873
 2874TIP3    H1 8586   5.071   6.307   3.935  1.2606  1.5011 -0.8863
 2874TIP3    H2 8587   5.027   6.222   3.818 -1.7261 -0.9558  1.8087
 2875TIP3   OH2 8588   4.856   3.458   5.285 -0.4381  0.1112 -0.2439
 2875TIP3    H1 8589   4.837   3.487   5.196  0.6024  0.2335 -0.4394
 2875TIP3    H2 8590   4.945   3.422   5.280 -1.3370 -2.3090  0.1830
 2876TIP3   OH2 8591   3.263   3.455   2.944 -0.4594 -0.3098  0.5216
 2876TIP3    H1 8592   3.278   3.453   3.038  1.3369  1.0296  0.3209
 2876TIP3    H2 8593   3.343   3.493   2.907 -1.9243  1.2580 -1.3416
 2877TIP3   OH2 8594   2.867   6.501   5.565 -0.0780  0.0690 -0.3126
 2877TIP3    H1 8595   2.942   6.553   5.535  0.6229 -0.2436  0.8324
 2877TIP3    H2 8596   2.829   6.552   5.636 -1.6202  0.7225 -1.5582
 2878TIP3   OH2 8597   0.020   6.263   5.384  0.2708 -0.0816  0.2344
 2878TIP3    H1 8598  -0.064   6.306   5.399  0.3934  0.1847  0.1678
 2878TIP3    H2 8599   0.082   6.313   5.436  0.7022  0.8527 -1.1142
 2879TIP3   OH2 8600   1.563   4.827   5.905 -0.3268 -0.2146  0.3462
 2879TIP3    H1 8601   1.620   4.809   5.830  1.0520 -0.1917  1.3506
 2879TIP3    H2 8602   1.532   4.916   5.890 -0.3506 -0.3322 -0.3688
 2880TIP3   OH2 8603   5.754   3.302   5.461  0.3645  0.5878 -0.2494
 2880TIP3    H1 8604   5.842   3.294   5.424  0.8653 -0.0964  1.0307
 2880TIP3    H2 8605   5.768   3.306   5.556 -0.7224  4.3958 -0.0955
 2881TIP3   OH2 8606   0.954   4.928   2.417 -0.2060 -0.1480  0.0739
 2881TIP3    H1 8607   0.980   5.010   2.459 -1.7209  0.4953 -0.1530
 2881TIP3    H2 8608   1.025   4.867   2.435  1.5960  1.5670 -0.8260
 2882TIP3   OH2 8609   3.109   6.562   4.069 -0.1175 -0.5029  0.4294
 2882TIP3    H1 8610   3.023   6.604   4.068  0.5238  1.1042 -2.8040
 2882TIP3    H2 8611   3.171   6.635   4.068  1.2402 -1.6101  1.0501
 2883TIP3   OH2 8612   4.434   2.921   0.129  0.7081 -0.8135 -0.4181
 2883TIP3    H1 8613   4.518   2.964   0.115  0.6628 -0.6465 -0.1793
 2883TIP3    H2 8614   4.456   2.831   0.153  1.0035  0.1103  3.3680
 2884TIP3   OH2 8615   3.618   6.750   1.950  0.4519  0.1594 -0.3036
 2884TIP3    H1 8616   3.569   6.688   2.003  0.1776  1.5952  1.2085
 2884TIP3    H2 8617   3.616   6.832   2.000  1.8568  1.0653 -1.6206
 2885TIP3   OH2 8618   3.154   4.378   1.999  0.2311 -1.5126 -0.1959
 2885TIP3    H1 8619   3.109   4.456   1.966  0.9570 -1.3942 -0.9249
 2885TIP3    H2 8620   3.110   4.359   2.082  0.7517  0.3227  0.5508
 2886TIP3   OH2 8621   2.623   4.443   3.363  0.2313 -0.2611 -0.0144
 2886TIP3    H1 8622   2.670   4.526   3.348 -0.4872  0.2587  0.5312
 2886TIP3    H2 8623   2.628   4.430   3.457  0.1228 -0.7174 -0.0742
 2887TIP3   OH2 8624   1.539   6.377   1.166  0.2254 -0.3943 -0.0745
 2887TIP3    H1 8625   1.557   6.428   1.087 -1.3718  0.4191  0.0340
 2887TIP3    H2 8626   1.623   6.340   1.190  1.3955  1.8429 -0.4270
 2888TIP3   OH2 8627   5.980   0.339   3.734  0.0224 -0.0435 -0.2539
 2888TIP3    H1 8628   5.925   0.299   3.666 -0.3287  1.1201 -0.6772
 2888TIP3    H2 8629   5.926   0.336   3.813  0.2500 -0.9834 -0.1294
 2889TIP3   OH2 8630   6.156   0.720   0.429 -0.4042  0.3013  0.0020
 2889TIP3    H1 8631   6.202   0.792   0.472 -1.4751  1.9346 -1.4540
 2889TIP3    H2 8632   6.088   0.694   0.491  1.2711 -0.9409  1.4207
 2890TIP3   OH2 8633   3.416   4.739   0.019  0.6566  0.4216  0.2321
 2890TIP3    H1 8634   3.353   4.680   0.061  2.2130 -1.0430  0.6135
 2890TIP3    H2 8635   3.391   4.826   0.050 -0.2687 -0.2704  1.5485
 2891TIP3   OH2 8636   6.273   5.808   5.843  0.2452 -0.3918 -0.5969
 2891TIP3    H1 8637   6.183   5.775   5.847  0.3309 -0.5298  0.3234
 2891TIP3    H2 8638   6.273   5.867   5.767 -0.4484 -0.8856 -0.9960
 2892TIP3   OH2 8639   0.177   1.275   1.788  0.7581 -0.4647 -0.6577
 2892TIP3    H1 8640   0.156   1.357   1.833  1.2289 -0.3508 -0.6364
 2892TIP3    H2 8641   0.202   1.215   1.858  1.0882 -0.4117 -0.7249
 2893TIP3   OH2 8642   6.035   5.217   5.261  0.1101  0.5112 -0.2450
 2893TIP3    H1 8643   6.098   5.243   5.194 -1.1543  1.3089 -1.1768
 2893TIP3    H2 8644   6.024   5.295   5.315 -1.2147  0.9116 -1.0416
 2894TIP3   OH2 8645   0.875   3.185   1.146 -0.0684 -0.0715  0.0613
 2894TIP3    H1 8646   0.849   3.176   1.238 -0.6667 -1.2288 -0.2059
 2894TIP3    H2 8647   0.959   3.231   1.149  1.5071 -2.7943  1.4089
 2895TIP3   OH2 8648   2.298   2.780   4.905 -0.3140  0.2893 -0.1731
 2895TIP3    H1 8649   2.246   2.784   4.825  0.7246  0.1149 -0.8805
 2895TIP3    H2 8650   2.274   2.697   4.946 -0.4845  0.1507 -0.5589
 2896TIP3   OH2 8651   4.797   5.239   3.620  0.4417 -0.3075  0.3163
 2896TIP3    H1 8652   4.731   5.202   3.562  0.3263 -2.4824  1.6961
 2896TIP3    H2 8653   4.877   5.241   3.567 -0.1884  0.1584 -0.6492
 2897TIP3   OH2 8654   3.236   1.033   2.216  0.0842 -0.2779  0.1115
 2897TIP3    H1 8655   3.183   0.953   2.226 -2.2662  1.3286  1.4408
 2897TIP3    H2 8656   3.260   1.056   2.305 -0.0480  0.9879 -0.1724
 2898TIP3   OH2 8657   2.868   6.453   2.497 -0.3545 -0.2235 -0.0463
 2898TIP3    H1 8658   2.901   6.540   2.521 -0.4032 -0.3161  0.3682
 2898TIP3    H2 8659   2.947   6.401   2.481 -0.1858 -0.8525  2.3725
 2899TIP3   OH2 8660   1.484   3.819   4.822  0.5951  0.1191  0.0802
 2899TIP3    H1 8661   1.553   3.769   4.866  0.4795 -0.9066 -0.8681
 2899TIP3    H2 8662   1.489   3.791   4.731 -1.6539 -0.6461  0.1524
 2900TIP3   OH2 8663   4.167   4.549   3.071  0.2474 -0.1843 -0.1701
 2900TIP3    H1 8664   4.170   4.560   3.166 -0.4586 -1.3433  0.0096
 2900TIP3    H2 8665   4.232   4.611   3.037  2.5796 -1.7239  1.2176
 2901TIP3   OH2 8666   6.983   5.976   3.219 -0.2136 -0.5607 -0.1468
 2901TIP3    H1 8667   6.918   5.913   3.189 -1.1534 -0.0350  0.7109
 2901TIP3    H2 8668   7.035   5.927   3.284 -1.1391 -0.3861  0.7488
 2902TIP3   OH2 8669   6.067   0.350   4.160  0.1321  0.3600 -0.0174
 2902TIP3    H1 8670   6.047   0.305   4.241  1.4829  0.3892  0.3611
 2902TIP3    H2 8671   6.011   0.428   4.161 -2.6217 -1.4549 -0.9288
 2903TIP3   OH2 8672   7.126   2.584   4.635 -0.1806 -0.1241  0.5894
 2903TIP3    H1 8673   7.153   2.616   4.549 -0.6551  0.3578  0.6137
 2903TIP3    H2 8674   7.040   2.545   4.620  0.5640 -1.8075  0.4733
 2904TIP3   OH2 8675   5.554   3.401   3.226 -0.2307 -0.1302 -0.3113
 2904TIP3    H1 8676   5.582   3.312   3.205  0.6917 -0.0614  0.5462
 2904TIP3    H2 8677   5.461   3.393   3.248  0.2366 -1.1762  1.4030
 2905TIP3   OH2 8678   4.743   4.581   5.225 -0.0180 -0.2100  0.3111
 2905TIP3    H1 8679   4.799   4.638   5.277  3.1625 -2.4179 -0.3533
 2905TIP3    H2 8680   4.747   4.617   5.137  0.8638 -0.6619  0.1578
 2906TIP3   OH2 8681   3.901   6.608   5.223 -0.8503 -0.3111  0.0746
 2906TIP3    H1 8682   3.879   6.649   5.306 -1.6781  0.3593 -0.4554
 2906TIP3    H2 8683   3.964   6.668   5.183  2.4113 -2.3406  1.6989
 2907TIP3   OH2 8684   6.543   0.513   2.334  0.1897 -0.1821  0.2539
 2907TIP3    H1 8685   6.464   0.532   2.385  0.2562  1.5247 -0.2052
 2907TIP3    H2 8686   6.541   0.418   2.321 -1.3109 -0.2896  1.0067
 2908TIP3   OH2 8687   5.107   4.340   5.219  0.0206 -0.3648  0.3105
 2908TIP3    H1 8688   5.143   4.275   5.279 -0.1487 -0.5189  0.2459
 2908TIP3    H2 8689   5.014   4.344   5.240 -0.3255 -1.4277 -0.8500
 2909TIP3   OH2 8690   4.658   3.654   2.018 -0.0189  0.1519 -0.8380
 2909TIP3    H1 8691   4.608   3.731   1.990 -0.5711  0.8290  1.7484
 2909TIP3    H2 8692   4.674   3.605   1.937 -1.7130  1.7641 -2.2418
 2910TIP3   OH2 8693   3.997   4.300   3.281  0.4491  0.0905  0.2802
 2910TIP3    H1 8694   4.022   4.379   3.328 -0.0541 -1.7023  3.8698
 2910TIP3    H2 8695   4.058   4.297   3.206  1.4611  3.0120  0.8343
 2911TIP3   OH2 8696   2.164   3.129   4.163  0.1847 -0.3480  0.3502
 2911TIP3    H1 8697   2.083   3.135   4.214 -1.4862 -2.5095 -1.8206
 2911TIP3    H2 8698   2.159   3.202   4.102  0.2476 -0.0473  0.6997
 2912TIP3   OH2 8699   6.467   6.087   5.801  0.2071  0.2731 -0.4649
 2912TIP3    H1 8700   6.475   6.182   5.790  1.7100  0.2490  0.2319
 2912TIP3    H2 8701   6.406   6.076   5.874  0.1461  0.6897 -0.4528
 2913TIP3   OH2 8702   5.711   2.760   0.702  0.2626  0.2519 -0.4847
 2913TIP3    H1 8703   5.624   2.799   0.710  0.8694  1.9297 -1.5669
 2913TIP3    H2 8704   5.736   2.775   0.611  1.0523 -1.6447 -0.6286
 2914TIP3   OH2 8705   3.198   3.062   1.659 -0.5522  0.2042  0.3821
 2914TIP3    H1 8706   3.252   2.988   1.685 -1.2658  0.1539  1.7815
 2914TIP3    H2 8707   3.108   3.032   1.672 -0.8880  0.8664 -0.3141
 2915TIP3   OH2 8708   6.422   3.047   5.144 -0.3347  0.3755  0.1014
 2915TIP3    H1 8709   6.372   3.030   5.224  1.5891 -1.8121  0.9838
 2915TIP3    H2 8710   6.359   3.083   5.082 -2.3147  0.3538  2.0007
 2916TIP3   OH2 8711   6.998   4.388   0.558 -0.3491 -0.0118  0.2276
 2916TIP3    H1 8712   6.985   4.482   0.544 -0.9448  0.0254  1.0032
 2916TIP3    H2 8713   6.923   4.347   0.515  0.0776 -0.1634 -0.3900
 2917TIP3   OH2 8714   5.460   6.141   4.875 -0.2059  0.7421 -0.4059
 2917TIP3    H1 8715   5.478   6.091   4.954 -0.4098  2.6097  0.9075
 2917TIP3    H2 8716   5.546   6.168   4.844 -0.1119 -0.1871 -0.9630
 2918TIP3   OH2 8717   5.268   4.834   0.356 -0.2805  0.4157  0.5310
 2918TIP3    H1 8718   5.239   4.925   0.362  0.7387  0.6755  2.3993
 2918TIP3    H2 8719   5.276   4.806   0.448  3.3028 -0.2455  0.1270
 2919TIP3   OH2 8720   0.171   4.821   1.761 -0.7803  0.3397  0.3288
 2919TIP3    H1 8721   0.141   4.907   1.791 -2.0145  0.2069 -0.4582
 2919TIP3    H2 8722   0.153   4.821   1.667  0.9663 -0.0833 -0.0456
 2920TIP3   OH2 8723   4.316   2.916   4.285 -1.0002 -0.2803  0.5345
 2920TIP3    H1 8724   4.398   2.902   4.332 -0.1993  3.0526  0.3616
 2920TIP3    H2 8725   4.267   2.977   4.340 -1.4050  1.2361 -1.4163
 2921TIP3   OH2 8726   1.585   2.452   0.240  0.0274  0.1010 -0.2006
 2921TIP3    H1 8727   1.661   2.434   0.185  1.2465 -0.8978  1.7038
 2921TIP3    H2 8728   1.622   2.486   0.322 -1.5198 -1.0211  1.0123
 2922TIP3   OH2 8729   2.454   3.493   2.859 -0.5201  0.5963 -0.2030
 2922TIP3    H1 8730   2.400   3.530   2.789 -0.7901  0.6943  0.0535
 2922TIP3    H2 8731   2.471   3.403   2.831  2.4987  1.6292 -2.2317
 2923TIP3   OH2 8732   3.047   1.002   5.001  0.8641 -0.1052 -0.0943
 2923TIP3    H1 8733   3.069   0.982   4.910 -1.2663  0.3899 -0.7949
 2923TIP3    H2 8734   2.952   0.987   5.006  0.9703 -0.3034  2.1064
 2924TIP3   OH2 8735   4.935   6.737   5.325  0.3011  0.2805 -1.1984
 2924TIP3    H1 8736   4.989   6.777   5.257  0.0462  1.6166 -0.6455
 2924TIP3    H2 8737   4.966   6.776   5.407 -1.3134  0.9220 -0.8515
 2925TIP3   OH2 8738   2.392   6.698   3.866  0.0705 -0.3635  0.0814
 2925TIP3    H1 8739   2.300   6.719   3.882  0.0570  0.3108 -0.7979
 2925TIP3    H2 8740   2.402   6.703   3.771  1.4838  1.6872  0.2762
 2926TIP3   OH2 8741   0.860   1.948   5.349 -0.4493  0.1917  0.0967
 2926TIP3    H1 8742   0.806   1.991   5.415  0.4594 -0.2327  1.1433
 2926TIP3    H2 8743   0.848   1.854   5.365 -0.6466  0.0722 -0.7027
 2927TIP3   OH2 8744   5.685   3.614   5.874 -0.2690 -0.2500 -0.0545
 2927TIP3    H1 8745   5.727   3.687   5.920 -2.1433  1.4603 -0.9175
 2927TIP3    H2 8746   5.681   3.643   5.783 -0.1464 -1.9006 -0.6057
 2928TIP3   OH2 8747   0.461   5.225   0.607  0.2165 -0.0674 -0.3434
 2928TIP3    H1 8748   0.382   5.222   0.553  0.5560 -1.0938 -0.8129
 2928TIP3    H2 8749   0.482   5.133   0.623  1.4031  0.1934 -0.3461
 2929TIP3   OH2 8750   4.456   3.959   5.087 -0.3300  0.6246 -0.0201
 2929TIP3    H1 8751   4.421   3.870   5.094  0.6536  0.1156 -1.1711
 2929TIP3    H2 8752   4.396   4.004   5.028 -1.8770  1.3237  1.9894
 2930TIP3   OH2 8753   0.908   2.398   0.821 -0.2334 -1.0259  0.3923
 2930TIP3    H1 8754   0.904   2.327   0.757 -2.7593 -0.0996 -0.6300
 2930TIP3    H2 8755   0.820   2.399   0.859 -0.4536  1.8430 -0.0210
 2931TIP3   OH2 8756   0.014   3.995   5.140  0.7846 -0.0102 -0.3692
 2931TIP3    H1 8757   0.003   3.909   5.101  0.7975 -0.1853  0.0119
 2931TIP3    H2 8758   0.004   3.981   5.234  1.4722  0.2888 -0.2453
 2932TIP3   OH2 8759   0.265   5.693   0.639  0.0655 -0.1634  0.2186
 2932TIP3    H1 8760   0.327   5.634   0.681 -0.3861 -1.5600 -1.0050
 2932TIP3    H2 8761   0.310   5.777   0.636  1.0861 -0.6560  1.1749
 2933TIP3   OH2 8762   4.864   1.982   5.345  0.0343  0.0001 -0.1982
 2933TIP3    H1 8763   4.910   2.052   5.393  0.6440 -0.1832 -0.5040
 2933TIP3    H2 8764   4.775   2.014   5.335  0.2973  0.7161 -0.2903
 2934TIP3   OH2 8765   6.464   2.617   0.192  0.1081  0.1852  0.0672
 2934TIP3    H1 8766   6.483   2.710   0.182 -1.0988  0.3331 -1.0685
 2934TIP3    H2 8767   6.445   2.607   0.285 -0.2297  1.1737  0.1184
 2935TIP3   OH2 8768   2.783   4.170   4.120 -0.5242  0.2736 -0.2687
 2935TIP3    H1 8769   2.854   4.113   4.150 -0.1374  0.9033  0.0484
 2935TIP3    H2 8770   2.784   4.243   4.182 -0.8115  0.7754 -0.8458
 2936TIP3   OH2 8771   2.914   3.858   5.039 -0.6913  0.5827  0.0953
 2936TIP3    H1 8772   2.994   3.908   5.024 -0.0568 -0.3838  0.1293
 2936TIP3    H2 8773   2.851   3.894   4.977  0.5376 -0.3374 -1.7880
 2937TIP3   OH2 8774   6.876   3.030   0.165  0.0396 -0.2337  0.0592
 2937TIP3    H1 8775   6.898   3.120   0.143 -0.2160  0.3957  2.1197
 2937TIP3    H2 8776   6.881   2.982   0.082 -0.1313  1.7242 -1.1324
 2938TIP3   OH2 8777   0.300   1.645   5.490  0.7301 -0.2279 -0.3680
 2938TIP3    H1 8778   0.295   1.623   5.397 -1.4384 -2.5778  0.2081
 2938TIP3    H2 8779   0.312   1.560   5.534  0.3856  0.6785  1.5719
 2939TIP3   OH2 8780   0.979   0.011   4.420  0.7606  0.3210 -0.2851
 2939TIP3    H1 8781   1.041   0.071   4.378  0.9874 -0.6859 -1.4607
 2939TIP3    H2 8782   0.894   0.055   4.412  1.0671  0.9538 -0.1692
 2940TIP3   OH2 8783   5.122   4.159   3.316 -0.0295 -0.0319 -0.0290
 2940TIP3    H1 8784   5.062   4.157   3.391  0.3543  0.1893  0.2839
 2940TIP3    H2 8785   5.068   4.132   3.242 -0.3157 -0.6356  0.3936
 2941TIP3   OH2 8786   2.931   6.656   5.025 -0.4154  0.1397 -0.5923
 2941TIP3    H1 8787   2.986   6.718   5.073  0.6410 -0.3554 -1.1305
 2941TIP3    H2 8788   2.992   6.588   4.995 -0.9232  0.7244 -3.1498
 2942TIP3   OH2 8789   1.833   5.259   5.438  0.1681 -0.0674  0.6329
 2942TIP3    H1 8790   1.842   5.339   5.385  0.8405 -0.2739  0.4191
 2942TIP3    H2 8791   1.870   5.190   5.384 -3.8039 -1.3015 -0.7934
 2943TIP3   OH2 8792   0.079   5.837   5.445  0.9008 -0.1173 -0.2684
 2943TIP3    H1 8793   0.047   5.848   5.355  0.8768  1.1425 -0.1235
 2943TIP3    H2 8794   0.000   5.815   5.495  0.6560  0.6314 -0.3143
 2944TIP3   OH2 8795   3.355   6.051   3.796 -0.3324 -0.0922  0.0568
 2944TIP3    H1 8796   3.436   6.051   3.745  0.7650 -1.5667  1.7115
 2944TIP3    H2 8797   3.321   5.962   3.786 -0.6841 -0.0700  1.0087
 2945TIP3   OH2 8798   4.403   4.374   3.244  0.2225 -0.0453  0.1878
 2945TIP3    H1 8799   4.469   4.305   3.248 -0.3226 -0.5634  0.3184
 2945TIP3    H2 8800   4.326   4.332   3.206  0.7450  1.1761 -2.4480
 2946TIP3   OH2 8801   4.883   3.684   0.503 -0.0890 -0.2546  0.1688
 2946TIP3    H1 8802   4.960   3.630   0.485  0.6602  0.2569  1.6796
 2946TIP3    H2 8803   4.907   3.772   0.474  0.6088  0.2781  2.1844
 2947TIP3   OH2 8804   3.168   4.042   4.519 -0.3829 -0.1766  0.2224
 2947TIP3    H1 8805   3.242   4.013   4.466 -0.3170 -0.0809  0.2616
 2947TIP3    H2 8806   3.140   4.124   4.477  0.7957  0.8581  1.3868
 2948TIP3   OH2 8807   2.431   2.219   0.327  0.2304  0.0675 -0.4610
 2948TIP3    H1 8808   2.507   2.200   0.383 -0.5868  0.8408  0.9617
 2948TIP3    H2 8809   2.389   2.134   0.314  1.0065 -0.2759 -0.7804
 2949TIP3   OH2 8810   3.987   3.992   3.766  0.8518  0.5763  0.4860
 2949TIP3    H1 8811   4.052   3.925   3.745  0.6008  0.5904 -0.3391
 2949TIP3    H2 8812   4.039   4.066   3.797  1.0677 -0.5754  3.1826
 2950TIP3   OH2 8813   6.081   4.381   1.551  0.4903  0.2356 -0.3898
 2950TIP3    H1 8814   6.170   4.351   1.571  0.9291 -1.8731 -4.4222
 2950TIP3    H2 8815   6.025   4.307   1.571 -0.0167  0.6487 -0.2523
 2951TIP3   OH2 8816   4.538   6.438   4.008 -0.1644  0.0985 -0.1359
 2951TIP3    H1 8817   4.470   6.385   3.966 -1.6797  1.1687  0.8619
 2951TIP3    H2 8818   4.615   6.381   4.010 -1.0977 -1.2580 -1.0515
 2952TIP3   OH2 8819   2.902   0.013   2.909  0.3590 -0.0542  0.0540
 2952TIP3    H1 8820   2.866   0.073   2.843  0.4336 -0.0353  0.0302
 2952TIP3    H2 8821   2.839  -0.060   2.912  0.8011 -0.4813 -0.6788
 2953TIP3   OH2 8822   1.196   2.805   0.624 -0.2864 -0.1912  0.3297
 2953TIP3    H1 8823   1.131   2.735   0.613 -0.5729  0.3181 -1.6014
 2953TIP3    H2 8824   1.280   2.760   0.620 -0.4729 -0.5919  0.6898
 2954TIP3   OH2 8825   2.185   2.533   4.421  0.0884 -0.2107  0.8841
 2954TIP3    H1 8826   2.100   2.551   4.459 -0.8647  0.9395 -1.5408
 2954TIP3    H2 8827   2.166   2.476   4.346  1.3751  0.2672  0.1535
 2955TIP3   OH2 8828   4.674   0.507   5.458 -0.0366  0.2941 -0.0415
 2955TIP3    H1 8829   4.579   0.517   5.455 -0.1871 -0.7163  0.9624
 2955TIP3    H2 8830   4.697   0.475   5.370 -0.3507  2.4333 -0.9613
 2956TIP3   OH2 8831   4.847   6.020   0.595 -0.2632 -0.1528  0.0311
 2956TIP3    H1 8832   4.768   6.043   0.546  1.0533 -0.2856 -2.3093
 2956TIP3    H2 8833   4.863   5.928   0.572  0.2554 -0.3114  0.9629
 2957TIP3   OH2 8834   5.859   0.537   2.844 -0.1294 -0.0771 -0.3897
 2957TIP3    H1 8835   5.832   0.449   2.870 -0.5990  0.1450 -0.1262
 2957TIP3    H2 8836   5.880   0.529   2.751 -0.9386 -0.2952 -0.5612
 2958TIP3   OH2 8837   7.023   0.081   0.961  0.6118  0.2177 -0.5943
 2958TIP3    H1 8838   7.026   0.044   1.049  0.7828  1.3959 -0.0928
 2958TIP3    H2 8839   7.111   0.066   0.925  0.7957  0.4801 -0.2534
 2959TIP3   OH2 8840   6.190   1.532   2.464  0.2861 -0.2334  0.0580
 2959TIP3    H1 8841   6.119   1.534   2.400  0.0987 -2.0979  0.1622
 2959TIP3    H2 8842   6.163   1.594   2.532  0.7365  2.1959 -1.8342
 2960TIP3   OH2 8843   4.902   2.734   3.708  0.4731  0.6076  0.6695
 2960TIP3    H1 8844   4.941   2.691   3.632 -1.3855  4.5540 -2.9300
 2960TIP3    H2 8845   4.823   2.683   3.726  2.3210 -2.0285  2.0560
 2961TIP3   OH2 8846   0.227   1.669   4.199 -0.0456  0.4878 -0.1812
 2961TIP3    H1 8847   0.173   1.603   4.242  1.1168 -0.1110  0.4104
 2961TIP3    H2 8848   0.235   1.638   4.109  0.8056 -0.4181  0.1851
 2962TIP3   OH2 8849   2.988   2.978   5.082 -0.2898 -0.1331 -0.1101
 2962TIP3    H1 8850   2.918   2.915   5.066 -1.1860  1.3089 -2.4647
 2962TIP3    H2 8851   3.014   3.008   4.994  4.2324 -1.5227  0.4866
 2963TIP3   OH2 8852   1.728   0.008   5.010  0.2975  0.1781 -0.1939
 2963TIP3    H1 8853   1.769   0.039   5.092  1.1034  1.8926 -1.1968
 2963TIP3    H2 8854   1.650   0.062   5.000 -1.0154 -1.4936  0.4895
 2964TIP3   OH2 8855   2.335   2.993   4.361 -0.1487 -0.2033 -0.4855
 2964TIP3    H1 8856   2.311   3.051   4.433  0.1186 -0.2868 -0.3263
 2964TIP3    H2 8857   2.292   3.031   4.284  0.4905  0.5415 -0.4913
 2965TIP3   OH2 8858   2.833   2.946   3.656 -0.0111 -0.1814  0.4455
 2965TIP3    H1 8859   2.788   2.867   3.686  2.4214 -1.3187  1.4265
 2965TIP3    H2 8860   2.873   2.921   3.573  0.2212  0.2376  0.4297
 2966TIP3   OH2 8861   3.797   4.365   0.959 -0.2673 -0.3876  0.5062
 2966TIP3    H1 8862   3.773   4.309   1.033  1.8335 -1.6961  0.3047
 2966TIP3    H2 8863   3.855   4.310   0.906 -0.8328  0.8845 -1.5473
 2967TIP3   OH2 8864   4.964   0.234   0.479  0.0733  0.1109  0.3757
 2967TIP3    H1 8865   4.944   0.324   0.454  1.9784  0.5114  0.1173
 2967TIP3    H2 8866   5.039   0.242   0.538  0.5244 -1.3410  0.0344
 2968TIP3   OH2 8867   6.191   3.963   0.968  0.5206 -0.0501  0.0947
 2968TIP3    H1 8868   6.235   4.026   1.026 -0.3921  0.2743  0.4475
 2968TIP3    H2 8869   6.101   3.993   0.964 -0.4997 -2.5202  1.9791
 2969TIP3   OH2 8870   5.548   1.627   4.730 -0.7004  0.3291  0.2998
 2969TIP3    H1 8871   5.543   1.716   4.696 -0.0945  0.6772  1.1027
 2969TIP3    H2 8872   5.490   1.626   4.805 -0.1038  0.2739  0.7682
 2970TIP3   OH2 8873   3.559   0.175   0.522  0.6221  0.4326  0.0076
 2970TIP3    H1 8874   3.565   0.205   0.431 -0.8148  1.0624  0.1055
 2970TIP3    H2 8875   3.570   0.254   0.574 -1.3894  0.5763  0.2976
 2971TIP3   OH2 8876   0.740   5.082   4.090 -0.5009  0.4373  0.4635
 2971TIP3    H1 8877   0.706   5.167   4.119  1.0669  1.0279  0.6633
 2971TIP3    H2 8878   0.800   5.103   4.019 -1.4456 -0.6953 -0.7259
 2972TIP3   OH2 8879   1.290   2.431   0.459  0.0899 -0.1366  0.1511
 2972TIP3    H1 8880   1.202   2.455   0.428 -0.4602 -1.2876  0.7846
 2972TIP3    H2 8881   1.346   2.503   0.430 -1.2561  1.1841  0.7305
 2973TIP3   OH2 8882   2.252   3.936   0.918  0.1859  0.4236 -0.2486
 2973TIP3    H1 8883   2.305   3.869   0.876 -0.7219 -0.5121  0.0452
 2973TIP3    H2 8884   2.302   4.017   0.908  0.7633 -0.0779 -1.6443
 2974TIP3   OH2 8885   2.098   6.073   1.435  0.0883  0.4449  1.1176
 2974TIP3    H1 8886   2.159   6.110   1.500 -0.1738  2.5253  0.2611
 2974TIP3    H2 8887   2.142   6.086   1.351 -0.5293 -0.2078  0.6797
 2975TIP3   OH2 8888   1.930   6.331   3.561 -0.3916 -0.1681  0.5521
 2975TIP3    H1 8889   1.940   6.411   3.509 -0.8661 -0.4182  0.0549
 2975TIP3    H2 8890   2.014   6.286   3.551  0.0874  0.5300  1.3069
 2976TIP3   OH2 8891   5.808   2.899   0.400  0.3072 -0.2160  0.0089
 2976TIP3    H1 8892   5.801   2.812   0.362  0.7428 -0.5223  0.5985
 2976TIP3    H2 8893   5.901   2.922   0.392  0.3981 -0.2589  0.7896
 2977TIP3   OH2 8894   1.904   1.009   4.047  0.3096  0.1927 -0.6044
 2977TIP3    H1 8895   1.899   0.991   4.141  1.3517  3.1928  0.1377
 2977TIP3    H2 8896   1.983   0.964   4.018  0.8643  0.5489  0.3122
 2978TIP3   OH2 8897   5.802   0.705   0.877  0.6734  0.0450  0.3779
 2978TIP3    H1 8898   5.893   0.713   0.906  0.5733  0.7250  0.5398
 2978TIP3    H2 8899   5.770   0.624   0.917  1.6232 -0.9727 -0.8599
 2979TIP3   OH2 8900   6.287   6.217   1.391  0.0066  0.2769 -0.3024
 2979TIP3    H1 8901   6.262   6.153   1.458 -2.3443  0.9481 -0.4440
 2979TIP3    H2 8902   6.215   6.280   1.391 -0.2671  0.1417 -3.6746
 2980TIP3   OH2 8903   5.860   3.852   3.821 -0.3327  0.3425  0.1940
 2980TIP3    H1 8904   5.894   3.854   3.910 -0.7740 -0.5846  0.4015
 2980TIP3    H2 8905   5.793   3.783   3.823  0.2502 -0.2839 -1.0590
 2981TIP3   OH2 8906   5.680   6.200   4.737  0.0657  0.0337  0.1023
 2981TIP3    H1 8907   5.727   6.257   4.797  0.6477 -1.9154  1.6214
 2981TIP3    H2 8908   5.748   6.148   4.694 -0.4543  0.2115 -0.9653
 2982TIP3   OH2 8909   5.172   2.985   4.129  0.6620  0.3268  0.3682
 2982TIP3    H1 8910   5.114   2.965   4.202  1.6599 -2.8661  0.4383
 2982TIP3    H2 8911   5.242   2.921   4.135  0.7234 -0.2305 -3.4748
 2983TIP3   OH2 8912   4.504   1.399   0.529 -0.1781  0.0859  0.2798
 2983TIP3    H1 8913   4.456   1.478   0.553  0.7876  0.1972  1.9826
 2983TIP3    H2 8914   4.444   1.327   0.548 -1.9706  0.3574 -3.4317
 2984TIP3   OH2 8915   1.860   2.359   4.518 -0.0005 -0.3578 -0.6281
 2984TIP3    H1 8916   1.854   2.357   4.423 -0.0698  1.4861 -0.6946
 2984TIP3    H2 8917   1.772   2.336   4.548  0.2554 -1.8667 -0.9607
 2985TIP3   OH2 8918   5.759   0.447   0.986  0.2306 -0.0590  0.0584
 2985TIP3    H1 8919   5.749   0.461   1.080  1.9242  0.7879  0.1493
 2985TIP3    H2 8920   5.836   0.391   0.978 -1.6112 -2.6979 -0.7341
 2986TIP3   OH2 8921   3.212   2.814   3.318  0.1772  0.0287  0.3237
 2986TIP3    H1 8922   3.172   2.878   3.258  1.7361  0.6956 -0.0622
 2986TIP3    H2 8923   3.231   2.739   3.262  0.8369  0.3102  0.1631
 2987TIP3   OH2 8924   4.315   6.074   5.617 -0.7854 -0.2108  0.2813
 2987TIP3    H1 8925   4.332   5.989   5.576  1.5609  0.1308  0.3916
 2987TIP3    H2 8926   4.321   6.137   5.545  0.8588  0.1392  0.6694
 2988TIP3   OH2 8927   0.120   0.942   2.972  0.0995  0.0693  0.1918
 2988TIP3    H1 8928   0.113   0.870   3.034 -1.7385  0.8567  0.9815
 2988TIP3    H2 8929   0.118   1.021   3.026 -1.2397  0.7689 -0.8182
 2989TIP3   OH2 8930   1.333   3.102   1.800  0.1720 -0.4215 -0.5801
 2989TIP3    H1 8931   1.283   3.028   1.766  0.3136 -1.7362  1.8218
 2989TIP3    H2 8932   1.422   3.067   1.811  1.1879  1.2351 -2.7476
 2990TIP3   OH2 8933   1.683   3.942   1.965  0.2019  0.3605  0.2888
 2990TIP3    H1 8934   1.689   3.868   2.026  1.8501 -1.7865 -2.1949
 2990TIP3    H2 8935   1.774   3.960   1.942 -0.3624  0.3945 -2.1847
 2991TIP3   OH2 8936   4.298   5.186   4.747 -0.5358 -0.5861 -0.0873
 2991TIP3    H1 8937   4.328   5.204   4.659 -0.6134 -0.9589 -0.1936
 2991TIP3    H2 8938   4.211   5.227   4.752 -0.2403  0.0383  0.0494
 2992TIP3   OH2 8939   5.243   2.172   0.154 -0.7172  0.3993 -0.4867
 2992TIP3    H1 8940   5.232   2.079   0.172 -0.8008  0.5476  0.2868
 2992TIP3    H2 8941   5.166   2.213   0.194 -1.0921  0.7279 -1.5142
 2993TIP3   OH2 8942   5.343   4.126   1.216 -0.2794  0.2782  0.4031
 2993TIP3    H1 8943   5.416   4.117   1.278 -0.6649  0.7332  0.9354
 2993TIP3    H2 8944   5.290   4.196   1.253 -0.9590 -0.0137 -0.0168
 2994TIP3   OH2 8945   1.507   5.042   5.680 -0.6030 -0.0514 -0.2406
 2994TIP3    H1 8946   1.483   5.119   5.732 -2.0559 -1.2520  0.9770
 2994TIP3    H2 8947   1.424   5.009   5.647 -0.3884 -2.5489  1.4338
 2995TIP3   OH2 8948   4.517   1.094   4.160 -0.0514  0.1363  0.0173
 2995TIP3    H1 8949   4.438   1.146   4.175  1.1490  1.7542  1.0887
 2995TIP3    H2 8950   4.576   1.153   4.114  0.2194 -1.3743 -1.6909
 2996TIP3   OH2 8951   1.074   6.639   3.629 -0.0464  0.0650 -0.1560
 2996TIP3    H1 8952   0.996   6.602   3.587  0.2143 -0.4821 -0.1642
 2996TIP3    H2 8953   1.148   6.601   3.581  0.2482 -0.2782  0.5503
 2997TIP3   OH2 8954   5.105   3.969   1.226 -0.0396  0.4514 -0.4222
 2997TIP3    H1 8955   5.193   3.990   1.259 -0.4402  1.5056 -0.0120
 2997TIP3    H2 8956   5.103   4.004   1.138  0.4198 -0.8271 -0.9750
 2998TIP3   OH2 8957   3.866   1.447   1.021 -0.2349 -0.3305 -0.7794
 2998TIP3    H1 8958   3.869   1.373   1.082 -1.0338 -0.9628 -1.4592
 2998TIP3    H2 8959   3.901   1.521   1.070  0.5530 -1.1573 -0.0660
 2999TIP3   OH2 8960   5.515   0.571   2.432  0.0395 -0.3245 -0.1601
 2999TIP3    H1 8961   5.540   0.584   2.523 -0.6152 -1.7255  0.2405
 2999TIP3    H2 8962   5.420   0.580   2.431 -0.0899 -1.5011 -0.4680
 3000TIP3   OH2 8963   7.197   3.259   2.816  0.2305  0.1569 -0.1385
 3000TIP3    H1 8964   7.111   3.239   2.780  0.0911  0.3656  0.0782
 3000TIP3    H2 8965   7.225   3.337   2.769  1.9280 -1.9251 -2.9377
 3001TIP3   OH2 8966   4.177   3.379   2.952 -0.0821  0.4446  0.0801
 3001TIP3    H1 8967   4.107   3.321   2.982  1.7786 -3.3777 -2.1385
 3001TIP3    H2 8968   4.136   3.436   2.888 -1.5876 -0.1446  0.4709
 3002TIP3   OH2 8969   2.390   6.057   5.136 -0.5212 -0.1686  0.3153
 3002TIP3    H1 8970   2.422   5.967   5.126 -0.7023 -0.0500 -1.7777
 3002TIP3    H2 8971   2.465   6.111   5.111  0.4186  0.4391  3.8838
 3003TIP3   OH2 8972   5.406   1.892   1.772  0.3435  0.4579  0.3711
 3003TIP3    H1 8973   5.329   1.924   1.818 -2.1859 -0.1413 -3.0644
 3003TIP3    H2 8974   5.456   1.971   1.751 -1.5273  1.3960 -0.8431
 3004TIP3   OH2 8975   2.998   4.527   0.042  0.0462 -0.0990  0.0564
 3004TIP3    H1 8976   2.945   4.451   0.019 -0.0142  0.0427 -0.2857
 3004TIP3    H2 8977   3.089   4.499   0.027 -0.0096  0.1025 -0.7116
 3005TIP3   OH2 8978   0.532   5.388   4.890 -0.2340 -0.1254  0.7473
 3005TIP3    H1 8979   0.587   5.319   4.927  0.5561  0.0386 -0.0932
 3005TIP3    H2 8980   0.548   5.464   4.946 -0.5986 -0.4306  1.2753
 3006TIP3   OH2 8981   0.886   5.517   0.907  0.1086 -0.0569 -0.0150
 3006TIP3    H1 8982   0.970   5.531   0.863 -0.6519  2.1349 -0.9102
 3006TIP3    H2 8983   0.821   5.558   0.849 -1.1495  1.4976  2.2962
 3007TIP3   OH2 8984   4.691   0.624   1.495  0.0703  0.6582  0.1208
 3007TIP3    H1 8985   4.637   0.701   1.514  0.2253  0.8105 -0.0476
 3007TIP3    H2 8986   4.691   0.574   1.576 -1.5404 -0.1000 -0.3257
 3008TIP3   OH2 8987   2.117   5.856   2.048  0.3643  0.1212 -0.2412
 3008TIP3    H1 8988   2.152   5.929   2.100 -0.5437 -0.5565  1.3756
 3008TIP3    H2 8989   2.186   5.838   1.984  1.2073  1.4754  0.2268
 3009TIP3   OH2 8990   0.171   1.902   5.293  0.0154  0.1474  0.1975
 3009TIP3    H1 8991   0.200   1.847   5.220  0.1764 -1.6697  1.5526
 3009TIP3    H2 8992   0.105   1.960   5.255  0.3830 -0.4733 -1.4663
 3010TIP3   OH2 8993   3.408   2.081   2.280 -0.0985  0.0993 -0.2209
 3010TIP3    H1 8994   3.395   2.059   2.188 -0.3217 -2.4561  0.3430
 3010TIP3    H2 8995   3.381   2.173   2.287  0.4019  0.5095 -2.7690
 3011TIP3   OH2 8996   4.445   6.328   4.259  0.3729  0.1574  0.7165
 3011TIP3    H1 8997   4.448   6.386   4.183  0.0250 -1.2865 -0.4421
 3011TIP3    H2 8998   4.495   6.251   4.233 -0.0718 -0.5316  1.8088
 3012TIP3   OH2 8999   7.146   3.356   3.852  0.3275 -0.4098  0.3503
 3012TIP3    H1 9000   7.214   3.357   3.920 -1.2216 -0.5514  1.9752
 3012TIP3    H2 9001   7.188   3.394   3.775  1.6818  1.3184  1.8578
 3013TIP3   OH2 9002   6.312   6.023   3.864  0.0524  0.1853  0.1613
 3013TIP3    H1 9003   6.271   6.049   3.946  0.1823  0.2692  0.1994
 3013TIP3    H2 9004   6.260   6.066   3.796  1.2262  1.8605  0.2831
 3014TIP3   OH2 9005   0.143   6.684   0.069 -0.1369 -0.1896 -0.3321
 3014TIP3    H1 9006   0.215   6.638   0.026 -0.2051 -0.0927 -0.5565
 3014TIP3    H2 9007   0.066   6.660   0.018 -0.2570 -0.2563 -0.1204
 3015TIP3   OH2 9008   0.254   0.564   3.403  0.6313  0.0941  0.2047
 3015TIP3    H1 9009   0.289   0.624   3.337 -0.7636  0.2720 -0.4154
 3015TIP3    H2 9010   0.331   0.521   3.440  1.6902  2.2690  0.6952
 3016TIP3   OH2 9011   4.938   5.085   4.186  0.3706 -0.5234  0.1547
 3016TIP3    H1 9012   4.918   5.176   4.206 -1.1833 -0.3057 -1.9757
 3016TIP3    H2 9013   5.016   5.088   4.132 -0.4043 -0.2842 -0.9939
 3017TIP3   OH2 9014   5.114   3.542   4.668  0.2279 -0.1080 -0.4911
 3017TIP3    H1 9015   5.105   3.587   4.752  2.1989  1.7707 -1.1928
 3017TIP3    H2 9016   5.030   3.556   4.624  0.0404  1.0587  0.1939
 3018TIP3   OH2 9017   4.705   0.435   0.738 -0.4053 -0.1423 -0.1614
 3018TIP3    H1 9018   4.747   0.519   0.717 -0.7048 -0.3385 -1.5725
 3018TIP3    H2 9019   4.770   0.369   0.714 -0.1098 -0.3498  1.0863
 3019TIP3   OH2 9020   1.301   5.908   3.515  0.0597  0.0751 -0.2215
 3019TIP3    H1 9021   1.290   5.862   3.598  1.2575  2.6900  1.5290
 3019TIP3    H2 9022   1.316   5.839   3.451 -0.0474 -2.0085  1.8608
 3020TIP3   OH2 9023   4.778   4.132   0.712  0.0572 -0.2457 -0.5593
 3020TIP3    H1 9024   4.837   4.147   0.639 -0.5116  0.6160 -0.8549
 3020TIP3    H2 9025   4.696   4.176   0.687  0.6836  2.5145  1.7010
 3021TIP3   OH2 9026   1.439   5.368   4.621  0.1658 -0.0623 -0.6056
 3021TIP3    H1 9027   1.511   5.429   4.636  0.4180 -0.7169  1.1556
 3021TIP3    H2 9028   1.481   5.291   4.583 -0.2088  0.9407 -3.1952
 3022TIP3   OH2 9029   4.980   3.321   3.191 -0.4130 -0.2883 -0.6241
 3022TIP3    H1 9030   5.001   3.232   3.221 -2.0488 -0.3909  0.3809
 3022TIP3    H2 9031   5.015   3.378   3.259  0.8865 -0.1170 -1.4106
 3023TIP3   OH2 9032   5.083   4.799   5.071  0.2254  0.4241  0.2476
 3023TIP3    H1 9033   5.051   4.800   4.981 -1.2400  0.6714  0.7441
 3023TIP3    H2 9034   5.165   4.750   5.067 -0.9124 -1.5272 -0.8543
 3024TIP3   OH2 9035   2.325   1.816   0.960  0.0306 -0.3741  0.2597
 3024TIP3    H1 9036   2.419   1.826   0.975  0.8072  1.8778 -4.3224
 3024TIP3    H2 9037   2.319   1.767   0.878 -2.8195 -0.5635  0.4980
 3025TIP3   OH2 9038   4.807   1.538   4.078  0.0586 -0.3591  0.4473
 3025TIP3    H1 9039   4.806   1.605   4.010  1.4561  1.0580  1.7320
 3025TIP3    H2 9040   4.715   1.521   4.097 -0.3393 -0.1841 -1.1867
 3026TIP3   OH2 9041   4.326   3.016   4.782  0.2032  0.1185 -0.5158
 3026TIP3    H1 9042   4.290   3.052   4.863 -0.0099  0.0216 -0.5676
 3026TIP3    H2 9043   4.346   2.925   4.802 -0.5201 -0.1035 -0.7808
 3027TIP3   OH2 9044   1.520   2.346   0.664 -0.3575  0.3140 -0.0410
 3027TIP3    H1 9045   1.520   2.295   0.583  2.6086 -0.5864  0.3967
 3027TIP3    H2 9046   1.601   2.398   0.659 -1.7003  2.6842  0.9762
 3028TIP3   OH2 9047   6.553   5.844   0.492 -0.0035  0.1561 -0.1560
 3028TIP3    H1 9048   6.549   5.791   0.413 -0.8481  0.7875 -0.5588
 3028TIP3    H2 9049   6.524   5.786   0.562  1.4513 -0.6230 -0.1699
 3029TIP3   OH2 9050   0.760   5.039   0.973  0.4333  0.8675 -0.2373
 3029TIP3    H1 9051   0.770   5.092   0.894  0.0866 -0.2782 -1.0700
 3029TIP3    H2 9052   0.701   5.091   1.028 -1.0907  0.7054 -1.6501
 3030TIP3   OH2 9053   1.784   4.722   4.873  0.4788  0.2277 -0.5155
 3030TIP3    H1 9054   1.750   4.658   4.811  1.2020 -0.5909 -0.0996
 3030TIP3    H2 9055   1.708   4.774   4.898 -0.1721 -0.6008 -0.7093
 3031TIP3   OH2 9056   0.248   3.941   0.329  0.3094  0.0677  0.1627
 3031TIP3    H1 9057   0.260   4.012   0.392  1.1524 -0.6890  0.8795
 3031TIP3    H2 9058   0.294   3.971   0.251  1.2652  0.0282  0.6950
 3032TIP3   OH2 9059   1.997   5.542   2.906 -0.4381  0.2985 -0.8518
 3032TIP3    H1 9060   1.960   5.615   2.956 -2.0824 -1.4793  0.6409
 3032TIP3    H2 9061   1.981   5.566   2.814 -2.0414  1.2942 -0.3562
 3033TIP3   OH2 9062   6.025   6.237   0.531  0.4989 -0.8233 -0.3032
 3033TIP3    H1 9063   5.998   6.211   0.443  0.2997 -2.5900  0.2373
 3033TIP3    H2 9064   6.057   6.156   0.572 -1.2907 -0.5176  1.9268
 3034TIP3   OH2 9065   3.200   5.002   5.692  0.8080  0.0916 -0.2813
 3034TIP3    H1 9066   3.182   4.978   5.783  2.5699 -0.1903  0.0391
 3034TIP3    H2 9067   3.251   5.083   5.699  1.0165  0.0304 -1.0192
 3035TIP3   OH2 9068   0.094   3.829   0.636  0.3273  0.2551 -0.1694
 3035TIP3    H1 9069   0.118   3.859   0.549 -1.2373  2.2477  0.0433
 3035TIP3    H2 9070   0.117   3.902   0.694  2.3402 -1.4138  1.3213
 3036TIP3   OH2 9071   5.663   4.167   1.830 -1.0694 -0.0072 -0.3679
 3036TIP3    H1 9072   5.667   4.197   1.921 -1.1731 -0.8370 -0.0874
 3036TIP3    H2 9073   5.668   4.248   1.779  1.4973  0.3282  0.2911
 3037TIP3   OH2 9074   5.997   4.789   3.869 -0.8561 -0.1641  0.1231
 3037TIP3    H1 9075   5.982   4.834   3.786 -0.1912  0.1834  0.1882
 3037TIP3    H2 9076   6.020   4.699   3.844  0.2242  0.1653 -0.1196
 3038TIP3   OH2 9077   7.016   0.005   4.536  0.0872 -0.3319 -0.1227
 3038TIP3    H1 9078   7.067   0.082   4.510 -0.9098  0.5330  0.4173
 3038TIP3    H2 9079   6.931   0.017   4.493 -1.2764  0.6564  2.6178
 3039TIP3   OH2 9080   6.017   4.280   2.862  0.5122  0.5965 -0.2601
 3039TIP3    H1 9081   5.937   4.312   2.902 -0.5251 -0.4395 -1.3748
 3039TIP3    H2 9082   6.075   4.260   2.935  0.3501  2.7556  0.5180
 3040TIP3   OH2 9083   7.236   2.227   3.699 -0.1093  0.9137 -0.5248
 3040TIP3    H1 9084   7.157   2.186   3.734  0.5922  0.1144  0.1697
 3040TIP3    H2 9085   7.204   2.295   3.640 -1.3092  0.5267 -0.3391
 3041TIP3   OH2 9086   5.996   3.944   4.081 -0.2205 -0.2269 -0.5446
 3041TIP3    H1 9087   6.020   3.924   4.171  1.9221  1.9636 -0.4985
 3041TIP3    H2 9088   5.917   3.998   4.088 -0.3936 -0.5469 -0.0209
 3042TIP3   OH2 9089   1.136   0.261   5.267  0.5425  0.2931  0.1562
 3042TIP3    H1 9090   1.188   0.181   5.273 -0.6507 -0.4629  0.6810
 3042TIP3    H2 9091   1.047   0.234   5.285  0.0299  1.6697 -0.1390
 3043TIP3   OH2 9092   2.883   4.063   0.118  0.2233 -0.1611 -0.1329
 3043TIP3    H1 9093   2.890   4.142   0.171  1.1274  0.9585 -1.8330
 3043TIP3    H2 9094   2.889   3.991   0.181  1.1984  1.0877  1.2697
 3044TIP3   OH2 9095   6.486   1.248   0.891  0.3191 -0.3258 -0.1044
 3044TIP3    H1 9096   6.495   1.343   0.884  1.2510 -0.4933 -1.6483
 3044TIP3    H2 9097   6.445   1.221   0.809 -1.5814 -1.1225  1.0275
 3045TIP3   OH2 9098   1.935   1.248   5.219 -0.4826 -0.0127 -0.1486
 3045TIP3    H1 9099   1.881   1.244   5.298 -0.9714 -0.8730 -0.5142
 3045TIP3    H2 9100   1.877   1.219   5.149  0.1130  0.1963 -0.7379
 3046TIP3   OH2 9101   1.290   6.168   2.291 -0.3250 -0.8989  0.0145
 3046TIP3    H1 9102   1.285   6.086   2.340  0.0649 -1.3313 -0.6492
 3046TIP3    H2 9103   1.216   6.164   2.230  0.1259 -1.1011 -0.5255
 3047TIP3   OH2 9104   6.848   4.865   0.742  0.2585 -0.1144 -0.5405
 3047TIP3    H1 9105   6.932   4.907   0.721  0.0546 -0.0823 -1.3243
 3047TIP3    H2 9106   6.871   4.790   0.796  0.6995  0.5381  0.1978
 3048TIP3   OH2 9107   0.382   4.567   5.445 -0.3715 -0.2331 -0.4092
 3048TIP3    H1 9108   0.407   4.619   5.368  0.0153  0.0641 -0.0864
 3048TIP3    H2 9109   0.455   4.578   5.506 -1.5995  1.2728  0.8781
 3049TIP3   OH2 9110   0.593   2.990   4.681  0.3700 -0.2816  0.1536
 3049TIP3    H1 9111   0.682   2.960   4.702 -0.1905 -0.4324  2.5393
 3049TIP3    H2 9112   0.544   2.910   4.662  0.1964 -0.4179  1.1386
 3050TIP3   OH2 9113   1.430   2.658   0.623 -0.5479  0.4479  0.2908
 3050TIP3    H1 9114   1.411   2.570   0.590 -0.9200 -0.4940  2.7582
 3050TIP3    H2 9115   1.503   2.645   0.684 -0.7104  1.8108  0.7993
 3051TIP3   OH2 9116   3.489   1.718   4.435  0.0159  0.0476 -0.0155
 3051TIP3    H1 9117   3.400   1.752   4.432 -0.2563 -0.3085  2.3521
 3051TIP3    H2 9118   3.484   1.632   4.393 -0.4114  0.6558 -1.2386
 3052TIP3   OH2 9119   0.199   5.478   2.510 -0.3911 -0.4155 -0.1641
 3052TIP3    H1 9120   0.127   5.433   2.464  0.4809 -2.5221  0.4338
 3052TIP3    H2 9121   0.277   5.427   2.488  0.1127 -1.4744  3.4422
 3053TIP3   OH2 9122   6.759   1.176   2.326  0.2439 -0.1276  0.5567
 3053TIP3    H1 9123   6.801   1.099   2.287  1.5283  1.3010 -0.9803
 3053TIP3    H2 9124   6.831   1.231   2.356 -0.6541  0.6252  1.4143
 3054TIP3   OH2 9125   0.758   3.801   5.633 -0.2200  0.3281  0.8793
 3054TIP3    H1 9126   0.806   3.810   5.550  0.5256  2.4246  1.4759
 3054TIP3    H2 9127   0.769   3.709   5.657  1.9366  0.3117  0.0439
 3055TIP3   OH2 9128   4.263   6.447   0.544 -0.3777  0.3596  0.0319
 3055TIP3    H1 9129   4.299   6.384   0.482  0.5700  1.0703 -0.1497
 3055TIP3    H2 9130   4.306   6.529   0.524 -1.0143  0.9009  0.7898
 3056TIP3   OH2 9131   1.862   0.707   0.927  0.2001  0.1087  0.1493
 3056TIP3    H1 9132   1.890   0.735   0.840  0.2671  0.4783  0.2861
 3056TIP3    H2 9133   1.872   0.785   0.981  1.4716 -0.4717  0.7985
 3057TIP3   OH2 9134   3.486   2.854   3.516  0.6525  0.3562  0.3195
 3057TIP3    H1 9135   3.478   2.780   3.576 -0.9847  0.7809  0.6694
 3057TIP3    H2 9136   3.399   2.863   3.478  1.3383  0.8695 -1.2210
 3058TIP3   OH2 9137   3.266   5.709   0.300 -0.7197  0.0801 -0.4432
 3058TIP3    H1 9138   3.271   5.671   0.213 -1.9763 -1.8056  0.2619
 3058TIP3    H2 9139   3.206   5.783   0.291 -1.8144 -0.8577 -0.9263
 3059TIP3   OH2 9140   2.818   6.502   0.566  0.1673  0.0467 -0.0562
 3059TIP3    H1 9141   2.863   6.438   0.511 -1.1936  0.0272 -1.2101
 3059TIP3    H2 9142   2.730   6.467   0.577 -0.1281  0.9473  0.6488
 3060TIP3   OH2 9143   5.461   4.107   5.071 -0.1416  0.1824 -0.2211
 3060TIP3    H1 9144   5.508   4.084   4.990 -0.5729 -0.7695 -0.2123
 3060TIP3    H2 9145   5.396   4.171   5.043 -0.9592 -0.8787 -0.8440
 3061TIP3   OH2 9146   6.417   3.640   4.759  0.1822  0.6899 -0.6979
 3061TIP3    H1 9147   6.330   3.640   4.718  0.7625 -0.4009 -1.9921
 3061TIP3    H2 9148   6.477   3.612   4.689  1.0949 -2.4758  1.1539
 3062TIP3   OH2 9149   7.160   0.228   5.430 -0.7143  0.3295  0.1876
 3062TIP3    H1 9150   7.152   0.248   5.337 -0.2610  2.3821  0.5602
 3062TIP3    H2 9151   7.091   0.162   5.445  0.3260 -1.3760 -1.9029
 3063TIP3   OH2 9152   0.774   5.068   5.371  0.4080 -0.0103 -0.2794
 3063TIP3    H1 9153   0.699   5.040   5.318  0.0251  0.9466 -0.2705
 3063TIP3    H2 9154   0.850   5.029   5.328  0.0848  0.6184 -1.4523
 3064TIP3   OH2 9155   1.017   2.847   1.257 -0.2767 -0.0412 -0.4983
 3064TIP3    H1 9156   1.076   2.775   1.237 -2.2609 -1.8130 -0.3306
 3064TIP3    H2 9157   0.989   2.880   1.172  0.3065  0.2559 -0.5770
 3065TIP3   OH2 9158   4.505   6.442   5.918  0.3830  0.1917  0.2617
 3065TIP3    H1 9159   4.566   6.510   5.891  3.5509 -2.8001 -0.9514
 3065TIP3    H2 9160   4.435   6.444   5.852  1.7084  0.7264 -1.1797
 3066TIP3   OH2 9161   7.005   2.046   0.052  0.0631 -0.1145  0.0363
 3066TIP3    H1 9162   6.921   2.001   0.046  0.4976 -0.8745 -0.6414
 3066TIP3    H2 9163   6.993   2.112   0.120 -1.7972  1.3508 -1.5794
 3067TIP3   OH2 9164   2.478   0.526   0.967 -0.0418  0.4204 -0.1434
 3067TIP3    H1 9165   2.504   0.600   1.022 -0.1208  0.9312 -0.7698
 3067TIP3    H2 9166   2.561   0.488   0.938  0.0078  0.8536 -0.5818
 3068TIP3   OH2 9167   2.183   3.488   0.080 -0.5044  0.0968 -0.3353
 3068TIP3    H1 9168   2.213   3.427   0.013 -0.8027  0.4297 -0.7735
 3068TIP3    H2 9169   2.176   3.434   0.159  0.3287 -0.1854 -0.4472
 3069TIP3   OH2 9170   1.433   1.100   2.535 -0.3501 -0.5868  0.3531
 3069TIP3    H1 9171   1.396   1.187   2.518 -0.0147 -0.5563 -0.2557
 3069TIP3    H2 9172   1.443   1.097   2.630 -0.6797 -0.0876  0.4097
 3070TIP3   OH2 9173   2.400   0.526   1.281  0.0506 -0.0525  0.0215
 3070TIP3    H1 9174   2.360   0.591   1.223 -0.2227  1.8895  2.2632
 3070TIP3    H2 9175   2.477   0.570   1.317 -0.1716 -0.9202  1.6489
 3071TIP3   OH2 9176   2.165   2.368   3.741  0.2742  0.0729 -0.0431
 3071TIP3    H1 9177   2.191   2.381   3.832 -0.2545  0.1272  0.1020
 3071TIP3    H2 9178   2.235   2.314   3.704  0.7122  0.4158  0.2737
 3072TIP3   OH2 9179   3.733   3.429   5.531  0.2103 -0.3428  0.1474
 3072TIP3    H1 9180   3.645   3.442   5.496  1.0498 -1.8730 -2.8698
 3072TIP3    H2 9181   3.792   3.450   5.458  2.4392  1.2049  2.2421
 3073TIP3   OH2 9182   4.933   2.232   1.245  0.1170  0.0286  0.2784
 3073TIP3    H1 9183   4.903   2.318   1.215  1.1109  0.6809  1.1117
 3073TIP3    H2 9184   4.936   2.179   1.166 -0.8107  0.6614 -0.2001
 3074TIP3   OH2 9185   4.233   1.717   0.390 -0.0109 -0.5067  0.3110
 3074TIP3    H1 9186   4.280   1.692   0.311 -0.8084  0.3330 -0.4578
 3074TIP3    H2 9187   4.273   1.800   0.417  0.6622 -1.0855  1.1554
 3075TIP3   OH2 9188   2.996   5.912   3.716 -0.1827 -0.6198  0.2048
 3075TIP3    H1 9189   3.021   5.821   3.698 -2.3941 -1.1952 -0.3662
 3075TIP3    H2 9190   3.040   5.933   3.798  0.2511 -2.2784  0.4412
 3076TIP3   OH2 9191   6.038   4.461   2.625  0.4541 -0.4577 -0.2900
 3076TIP3    H1 9192   6.021   4.384   2.679 -0.4981 -0.4155 -0.5262
 3076TIP3    H2 9193   6.045   4.534   2.687 -0.1180 -0.4931 -0.1833
 3077TIP3   OH2 9194   0.570   1.401   1.548  0.1658  0.3804 -0.0153
 3077TIP3    H1 9195   0.617   1.432   1.471 -0.6285  0.3974 -0.5044
 3077TIP3    H2 9196   0.595   1.309   1.556  0.4307  0.4388 -0.1477
 3078TIP3   OH2 9197   4.941   5.512   0.317 -0.0623  0.0631  0.3047
 3078TIP3    H1 9198   4.930   5.582   0.252  0.0509  0.2371  0.4704
 3078TIP3    H2 9199   4.888   5.541   0.392 -1.0346 -0.6261 -0.0820
 3079TIP3   OH2 9200   6.359   1.875   3.736 -0.3399  0.3340 -0.0197
 3079TIP3    H1 9201   6.416   1.938   3.692 -0.7355  0.4960 -0.3044
 3079TIP3    H2 9202   6.362   1.900   3.828  1.2897 -0.6171  0.2273
 3080TIP3   OH2 9203   6.723   2.159   5.800  1.0111 -0.1593  0.6714
 3080TIP3    H1 9204   6.770   2.097   5.744  0.7529  0.6353 -0.4508
 3080TIP3    H2 9205   6.631   2.134   5.791  0.9090  0.3630  0.2381
 3081TIP3   OH2 9206   6.211   2.111   3.820 -0.2809  0.0775  0.4496
 3081TIP3    H1 9207   6.285   2.067   3.778 -0.2719 -0.1827  0.7338
 3081TIP3    H2 9208   6.179   2.048   3.884 -0.1820  0.5316  0.9584
 3082TIP3   OH2 9209   4.201   1.236   0.324  0.1529  0.1886 -0.7565
 3082TIP3    H1 9210   4.173   1.238   0.416 -1.7643  1.6938 -1.2964
 3082TIP3    H2 9211   4.296   1.224   0.328  0.5136  2.7425  1.5652
 3083TIP3   OH2 9212   1.314   1.382   5.440 -0.1305  0.1566 -0.4325
 3083TIP3    H1 9213   1.226   1.409   5.417 -0.6342  1.6495  2.6375
 3083TIP3    H2 9214   1.366   1.463   5.439  0.2172  0.0169  1.4556
 3084TIP3   OH2 9215   4.145   2.599   1.334 -0.0818  0.1362  0.1063
 3084TIP3    H1 9216   4.174   2.518   1.376 -2.4198 -0.8195  0.0742
 3084TIP3    H2 9217   4.132   2.660   1.407  0.4510  0.0527  0.2736
 3085TIP3   OH2 9218   3.689   4.679   3.673 -0.4846 -0.0066  0.1667
 3085TIP3    H1 9219   3.656   4.738   3.605  0.4194  1.4583  0.9281
 3085TIP3    H2 9220   3.648   4.710   3.754  0.9613  0.4406  0.7790
 3086TIP3   OH2 9221   5.667   0.353   2.364 -0.0750 -0.2649  0.5036
 3086TIP3    H1 9222   5.608   0.429   2.364  1.1385  0.7501 -1.3101
 3086TIP3    H2 9223   5.698   0.347   2.454 -2.6818 -0.6926  1.4837
 3087TIP3   OH2 9224   3.728   4.525   2.514 -0.8835 -0.2476  0.3902
 3087TIP3    H1 9225   3.743   4.438   2.550 -1.1742 -1.0913 -1.4140
 3087TIP3    H2 9226   3.679   4.572   2.581  0.3790 -1.0362  1.9113
 3088TIP3   OH2 9227   0.783   5.288   2.997 -0.2633  0.0040  0.3868
 3088TIP3    H1 9228   0.857   5.299   3.056 -2.2432 -1.6743  3.4411
 3088TIP3    H2 9229   0.741   5.207   3.026 -2.3186 -0.0637 -2.3569
 3089TIP3   OH2 9230   0.533   4.037   2.731 -0.9139 -0.2677  0.1426
 3089TIP3    H1 9231   0.438   4.034   2.742 -0.8966  1.4606  1.0717
 3089TIP3    H2 9232   0.550   4.121   2.687 -0.0878 -2.3152 -3.9056
 3090TIP3   OH2 9233   3.098   5.916   1.036 -0.4301  0.7767  0.1104
 3090TIP3    H1 9234   3.104   5.822   1.019  0.5085  1.1254 -1.6572
 3090TIP3    H2 9235   3.023   5.924   1.095  0.2518 -1.1878  1.3344
 3091TIP3   OH2 9236   2.502   2.438   1.048 -0.0465  0.0375  0.5209
 3091TIP3    H1 9237   2.428   2.421   0.989  0.7699  0.4822 -0.6579
 3091TIP3    H2 9238   2.514   2.355   1.095  0.8299 -1.1824 -1.7048
 3092TIP3   OH2 9239   4.702   6.444   3.032  0.1616 -0.2913 -0.0751
 3092TIP3    H1 9240   4.619   6.472   3.070  0.6558  1.4353 -0.1917
 3092TIP3    H2 9241   4.692   6.460   2.938 -0.0772 -2.0087 -0.3808
 3093TIP3   OH2 9242   5.771   5.058   1.041  0.2756  0.3047 -0.5777
 3093TIP3    H1 9243   5.771   5.117   1.116 -0.3421 -0.5512  0.1206
 3093TIP3    H2 9244   5.775   4.970   1.079 -1.1054 -0.1953 -1.5003
 3094TIP3   OH2 9245   4.308   1.472   2.652 -0.3127 -0.3155  0.4259
 3094TIP3    H1 9246   4.299   1.398   2.713  0.8758 -0.6322  0.2532
 3094TIP3    H2 9247   4.285   1.549   2.704 -0.7076 -0.7160  0.8593
 3095TIP3   OH2 9248   5.995   5.910   3.882 -0.0070  0.0959 -0.4941
 3095TIP3    H1 9249   5.934   5.983   3.890  1.4310  1.1731  1.5409
 3095TIP3    H2 9250   6.034   5.920   3.795 -1.2556  0.5347 -1.0267
 3096TIP3   OH2 9251   4.297   0.328   0.927  0.1588 -0.2552 -0.3782
 3096TIP3    H1 9252   4.314   0.378   1.007 -0.9450 -0.5931  0.0980
 3096TIP3    H2 9253   4.292   0.394   0.858  2.5893 -0.0843 -0.4691
 3097TIP3   OH2 9254   6.240   5.989   3.318 -0.1171  0.1449 -0.1802
 3097TIP3    H1 9255   6.221   5.896   3.332  1.5648 -0.1684  0.3060
 3097TIP3    H2 9256   6.163   6.035   3.351  0.1351 -0.9699  2.1367
 3098TIP3   OH2 9257   2.886   4.996   3.745 -0.0634 -0.0802 -0.0897
 3098TIP3    H1 9258   2.915   4.917   3.789  1.8861  1.5353  1.7766
 3098TIP3    H2 9259   2.811   5.027   3.796  0.0313 -0.0229  0.0157
 3099TIP3   OH2 9260   5.210   1.998   0.652 -0.3218 -0.2576  0.7311
 3099TIP3    H1 9261   5.281   2.050   0.689  0.2618 -0.4769 -0.0479
 3099TIP3    H2 9262   5.252   1.917   0.623 -0.4880  0.3615 -1.4509
 3100TIP3   OH2 9263   4.943   5.620   3.969 -0.3607  0.1677 -0.4281
 3100TIP3    H1 9264   4.928   5.671   3.889  0.3607 -0.0587 -0.7210
 3100TIP3    H2 9265   5.036   5.598   3.965 -0.3707 -0.0224  0.3760
 3101TIP3   OH2 9266   6.592   5.559   2.063  0.7514 -0.5581 -0.8738
 3101TIP3    H1 9267   6.672   5.574   2.113 -0.5381  0.2257  1.0551
 3101TIP3    H2 9268   6.521   5.561   2.128 -0.9765  0.0087 -2.6599
 3102TIP3   OH2 9269   4.465   2.250   2.567 -1.1451 -0.1347  0.1462
 3102TIP3    H1 9270   4.450   2.178   2.628 -0.0192  1.2045  2.1022
 3102TIP3    H2 9271   4.438   2.215   2.482 -3.0271 -1.9888  1.4116
 3103TIP3   OH2 9272   2.309   1.260   5.035 -0.6008 -0.2710  0.5964
 3103TIP3    H1 9273   2.285   1.176   5.074 -1.0656  0.2261  1.4068
 3103TIP3    H2 9274   2.232   1.285   4.983  0.2843 -1.2735 -1.2765
 3104TIP3   OH2 9275   6.307   6.277   3.271 -0.0134  0.2189  0.1182
 3104TIP3    H1 9276   6.398   6.306   3.276 -0.1150  0.3702  2.2285
 3104TIP3    H2 9277   6.312   6.182   3.275  0.0722  0.2240  0.1344
 3105TIP3   OH2 9278   1.753   5.471   0.598 -0.1523  0.1343  0.6748
 3105TIP3    H1 9279   1.763   5.523   0.677 -0.5282  0.8187  0.2860
 3105TIP3    H2 9280   1.669   5.425   0.609 -1.5313  2.2191 -0.3945
 3106TIP3   OH2 9281   6.180   1.019   4.302 -1.1427  0.0704 -0.1942
 3106TIP3    H1 9282   6.215   1.099   4.263 -0.4345 -0.3435 -0.4255
 3106TIP3    H2 9283   6.198   0.950   4.238 -0.5220 -0.5090  0.5662
 3107TIP3   OH2 9284   4.442   3.645   3.513 -0.1547  0.3438 -0.7972
 3107TIP3    H1 9285   4.425   3.657   3.420  0.0596  1.6507 -0.6876
 3107TIP3    H2 9286   4.372   3.692   3.557 -1.1324 -1.5439 -0.2561
 3108TIP3   OH2 9287   6.886   5.774   2.218  0.2383 -0.6015 -0.4842
 3108TIP3    H1 9288   6.965   5.776   2.273 -0.3374 -1.4623  0.4119
 3108TIP3    H2 9289   6.873   5.866   2.193  0.5168 -0.1721  0.8403
 3109TIP3   OH2 9290   4.520   2.389   4.255 -0.1157 -0.3165  0.0443
 3109TIP3    H1 9291   4.442   2.443   4.249  0.6815  0.9226  0.3366
 3109TIP3    H2 9292   4.571   2.429   4.326  0.5771 -1.3681  0.1665
 3110TIP3   OH2 9293   6.752   6.521   3.507 -0.1518 -0.2295  0.7322
 3110TIP3    H1 9294   6.834   6.490   3.467 -1.6211 -2.1127 -0.9896
 3110TIP3    H2 9295   6.772   6.524   3.601  2.1079  0.1843  0.3199
 3111TIP3   OH2 9296   6.122   2.363   4.807 -0.6019 -0.2697 -0.5698
 3111TIP3    H1 9297   6.102   2.430   4.872  0.6889  1.2231 -1.6366
 3111TIP3    H2 9298   6.059   2.378   4.736 -0.1781 -0.0495 -0.9021
 3112TIP3   OH2 9299   1.757   0.674   4.789  0.1836 -0.8105 -0.2669
 3112TIP3    H1 9300   1.839   0.679   4.839  0.6507 -1.2975 -0.9747
 3112TIP3    H2 9301   1.689   0.669   4.857  0.5592  1.5977  0.3626
 3113TIP3   OH2 9302   4.155   3.651   2.598 -0.1346  0.3413  0.0437
 3113TIP3    H1 9303   4.151   3.673   2.505  0.0378  0.2471  0.0130
 3113TIP3    H2 9304   4.249   3.642   2.616 -0.0432  2.1688  0.6640
 3114TIP3   OH2 9305   5.802   0.538   1.246  0.1911 -0.2848  0.5919
 3114TIP3    H1 9306   5.827   0.630   1.233 -0.8420 -0.0338  0.3443
 3114TIP3    H2 9307   5.708   0.540   1.263  0.4510 -1.1318  2.4694
 3115TIP3   OH2 9308   4.133   4.474   2.187 -0.7970  0.3742 -0.3460
 3115TIP3    H1 9309   4.098   4.548   2.236 -1.1664  0.6829 -1.0552
 3115TIP3    H2 9310   4.220   4.503   2.160 -1.8855  1.6501 -2.8402
 3116TIP3   OH2 9311   1.172   0.748   0.006 -0.4224 -0.0650  0.0258
 3116TIP3    H1 9312   1.154   0.720   0.096 -1.9391  4.0472  1.2252
 3116TIP3    H2 9313   1.244   0.811   0.015  1.4217 -1.6933 -2.1565
 3117TIP3   OH2 9314   6.477   3.192   3.382 -0.1638 -0.4721 -0.4985
 3117TIP3    H1 9315   6.492   3.206   3.475 -0.1866 -1.9320 -0.2489
 3117TIP3    H2 9316   6.523   3.263   3.339  2.2748 -1.3513  0.5044
 3118TIP3   OH2 9317   1.380   0.370   1.870  0.2016 -0.4787 -0.4914
 3118TIP3    H1 9318   1.347   0.334   1.952 -1.2148  0.1914 -0.7402
 3118TIP3    H2 9319   1.404   0.292   1.819  1.1168 -0.9008  0.5302
 3119TIP3   OH2 9320   4.940   3.727   2.401  0.5044  0.1109 -0.0017
 3119TIP3    H1 9321   5.000   3.740   2.327  1.4950 -2.2319  0.2936
 3119TIP3    H2 9322   4.853   3.729   2.361  0.9057  0.9914 -0.8725
 3120TIP3   OH2 9323   6.061   4.956   3.318 -0.3602 -0.2726  0.2821
 3120TIP3    H1 9324   5.972   4.968   3.351 -0.0117 -1.5318  1.8255
 3120TIP3    H2 9325   6.060   4.869   3.279  0.1718 -0.2523  0.2174
 3121TIP3   OH2 9326   5.237   0.730   4.853  0.6015 -0.2985  0.1057
 3121TIP3    H1 9327   5.233   0.636   4.836  2.6326 -0.4024 -0.1265
 3121TIP3    H2 9328   5.187   0.770   4.782 -2.6775 -1.2445  1.7164
 3122TIP3   OH2 9329   6.821   5.408   0.999  0.5132  0.0991  0.3321
 3122TIP3    H1 9330   6.894   5.356   0.965  2.0944  1.6352  1.1959
 3122TIP3    H2 9331   6.842   5.498   0.975 -1.4803  0.5320  0.0139
 3123TIP3   OH2 9332   6.238   0.058   1.244 -0.3284 -0.0889  0.0548
 3123TIP3    H1 9333   6.156   0.099   1.218  0.2542  0.8034 -0.3882
 3123TIP3    H2 9334   6.227   0.040   1.338 -0.7091  0.7993  0.1880
 3124TIP3   OH2 9335   2.269   4.871   0.492 -0.3436  0.3365  0.1137
 3124TIP3    H1 9336   2.182   4.899   0.464 -0.1275  1.3784  0.4530
 3124TIP3    H2 9337   2.254   4.821   0.572 -0.7663 -0.8549 -0.6910
 3125TIP3   OH2 9338   0.973   0.889   0.380 -0.4921 -0.0487 -0.0504
 3125TIP3    H1 9339   0.908   0.833   0.423 -0.9072  0.3608 -0.1333
 3125TIP3    H2 9340   0.938   0.978   0.390  1.1967  0.4660  1.9767
 3126TIP3   OH2 9341   5.294   1.786   4.032  0.1205 -0.1036 -0.3485
 3126TIP3    H1 9342   5.351   1.711   4.048  1.7447  0.8047 -1.5597
 3126TIP3    H2 9343   5.252   1.766   3.948  0.4604  0.2614 -0.6103
 3127TIP3   OH2 9344   4.910   5.546   5.652 -0.0335  0.1392 -0.0340
 3127TIP3    H1 9345   5.000   5.530   5.623  0.3385  1.0141  0.5846
 3127TIP3    H2 9346   4.856   5.524   5.576  0.8029  0.8514 -0.8672
 3128TIP3   OH2 9347   3.067   0.917   4.733  0.1119 -0.1923 -0.5012
 3128TIP3    H1 9348   3.054   0.828   4.700  0.5384 -0.4943  0.1285
 3128TIP3    H2 9349   3.044   0.974   4.659  0.1442 -0.8299 -1.0054
 3129TIP3   OH2 9350   3.236   0.397   3.688 -0.1535 -0.6475  1.4592
 3129TIP3    H1 9351   3.211   0.341   3.762 -0.0407 -0.4749  1.6288
 3129TIP3    H2 9352   3.160   0.394   3.630 -0.0739 -1.1201  1.3817
 3130TIP3   OH2 9353   2.604   2.933   0.378  0.1930 -0.3638 -0.3516
 3130TIP3    H1 9354   2.661   2.940   0.302  1.6005  2.6892  0.8065
 3130TIP3    H2 9355   2.623   2.846   0.415  2.3400 -0.3734 -1.3475
 3131TIP3   OH2 9356   0.498   5.065   3.934 -0.3183  0.5669  0.0879
 3131TIP3    H1 9357   0.467   4.993   3.989  2.5594 -0.7684  0.1302
 3131TIP3    H2 9358   0.556   5.115   3.991  2.3985 -0.6079 -1.4227
 3132TIP3   OH2 9359   1.039   4.985   5.230  0.2586  0.4123 -0.0336
 3132TIP3    H1 9360   1.045   5.050   5.159  0.2243  0.1163 -0.3107
 3132TIP3    H2 9361   0.998   4.909   5.189  1.2133 -0.1517  0.0339
 3133TIP3   OH2 9362   0.082   6.433   4.168 -0.1128  0.3399 -0.5953
 3133TIP3    H1 9363   0.135   6.426   4.088  1.4885  1.2305  0.3296
 3133TIP3    H2 9364   0.110   6.515   4.209 -3.5910  1.8780 -0.9455
 3134TIP3   OH2 9365   5.359   3.976   0.670 -0.2347 -0.2153 -0.0298
 3134TIP3    H1 9366   5.390   4.000   0.583  0.2486  0.2419  0.2650
 3134TIP3    H2 9367   5.389   3.885   0.681  2.1282  0.5798  0.7266
 3135TIP3   OH2 9368   4.222   1.729   2.818 -0.0961 -0.2442 -0.4001
 3135TIP3    H1 9369   4.165   1.805   2.828  0.7032  0.4233 -0.7404
 3135TIP3    H2 9370   4.178   1.659   2.865 -1.3598  0.1550 -0.9468
 3136TIP3   OH2 9371   1.847   5.096   5.807  0.2476 -0.2195 -0.1826
 3136TIP3    H1 9372   1.817   5.025   5.751  0.9423 -0.7003  0.0431
 3136TIP3    H2 9373   1.800   5.173   5.775 -0.9415 -0.8650 -0.0777
 3137TIP3   OH2 9374   3.290   6.385   2.661  0.4841 -0.1393 -0.0995
 3137TIP3    H1 9375   3.308   6.479   2.654  0.9865  0.1962  3.6345
 3137TIP3    H2 9376   3.304   6.351   2.573  1.4149  3.0831 -1.3328
 3138TIP3   OH2 9377   6.970   3.718   5.336  0.0529 -0.4758  0.3563
 3138TIP3    H1 9378   6.930   3.631   5.334  1.6479 -1.2217 -0.2135
 3138TIP3    H2 9379   6.903   3.774   5.375 -0.4684 -2.2257  2.1098
 3139TIP3   OH2 9380   3.337   2.345   1.183 -0.0585 -0.2477 -0.3374
 3139TIP3    H1 9381   3.423   2.384   1.167 -0.1104 -0.4182 -1.0745
 3139TIP3    H2 9382   3.275   2.416   1.170 -0.0101  0.0097  0.7218
 3140TIP3   OH2 9383   3.328   0.229   3.185 -0.2838 -0.1127 -0.4042
 3140TIP3    H1 9384   3.300   0.299   3.244  0.1702  0.4196 -0.8133
 3140TIP3    H2 9385   3.270   0.235   3.110 -0.1268 -0.0601 -0.5214
 3141TIP3   OH2 9386   3.905   0.902   4.617 -0.8096 -0.6299  0.0140
 3141TIP3    H1 9387   3.855   0.820   4.620  0.1427 -1.2425 -0.6116
 3141TIP3    H2 9388   3.897   0.931   4.526 -0.7972 -0.2325  0.1376
 3142TIP3   OH2 9389   6.215   4.500   4.024 -0.0322  0.3871  0.1468
 3142TIP3    H1 9390   6.269   4.508   4.103  0.9042  0.8935 -0.5312
 3142TIP3    H2 9391   6.134   4.460   4.055  0.4082  0.3679  1.3296
 3143TIP3   OH2 9392   4.025   0.026   0.309 -0.1172 -0.4205 -0.6667
 3143TIP3    H1 9393   4.111   0.040   0.349 -0.3059  2.4869 -1.1170
 3143TIP3    H2 9394   3.988  -0.048   0.358  1.7292 -0.3106  1.0345
 3144TIP3   OH2 9395   2.088   5.834   2.632 -0.4044  0.1033  0.4531
 3144TIP3    H1 9396   2.065   5.923   2.606 -3.1499  0.0798  2.3198
 3144TIP3    H2 9397   2.139   5.845   2.713 -0.9173 -0.0003  0.7960
 3145TIP3   OH2 9398   0.684   5.636   4.878  0.2530  0.1019 -0.3685
 3145TIP3    H1 9399   0.774   5.630   4.911  0.8278  0.5401 -1.7836
 3145TIP3    H2 9400   0.685   5.582   4.798 -0.5412  0.7124 -0.7964
 3146TIP3   OH2 9401   0.317   1.162   5.119  0.1084  0.2420 -0.0684
 3146TIP3    H1 9402   0.321   1.206   5.034 -2.9047  0.8617  0.0300
 3146TIP3    H2 9403   0.233   1.118   5.120 -0.0751  0.4666  2.6935
 3147TIP3   OH2 9404   5.957   2.492   4.594  0.3187  0.1219 -0.2127
 3147TIP3    H1 9405   5.960   2.588   4.599  1.5150  0.0265  1.5623
 3147TIP3    H2 9406   6.030   2.469   4.536 -0.5214  0.2861 -1.3808
 3148TIP3   OH2 9407   4.790   0.136   0.682  0.0208  0.0115  0.1328
 3148TIP3    H1 9408   4.845   0.151   0.759  1.3850  0.2357 -0.8559
 3148TIP3    H2 9409   4.846   0.157   0.608 -1.0776 -0.7718 -0.9604
 3149TIP3   OH2 9410   0.277   6.221   0.520 -0.3159  0.3522 -0.1398
 3149TIP3    H1 9411   0.353   6.242   0.573  1.1762  0.4145 -2.1846
 3149TIP3    H2 9412   0.217   6.294   0.534  0.6793  1.1004  0.3107
 3150TIP3   OH2 9413   6.288   1.488   1.334  0.1496  0.2712  0.8533
 3150TIP3    H1 9414   6.220   1.421   1.323  1.0166 -0.2915 -2.1001
 3150TIP3    H2 9415   6.334   1.462   1.413 -1.6164 -0.6684  1.6413
 3151TIP3   OH2 9416   7.178   4.064   0.095  0.2469 -0.4711  0.0751
 3151TIP3    H1 9417   7.267   4.033   0.079  0.5892  0.5200 -0.0210
 3151TIP3    H2 9418   7.143   4.079   0.007  0.0230 -0.7356  0.1175
 3152TIP3   OH2 9419   4.292   5.812   3.977  0.2409 -0.0429  0.4862
 3152TIP3    H1 9420   4.250   5.855   4.052  0.3397  1.5429 -0.3350
 3152TIP3    H2 9421   4.244   5.844   3.901 -0.6467 -2.5572 -0.0992
 3153TIP3   OH2 9422   2.072   1.400   4.391 -0.0925  0.3055  0.2850
 3153TIP3    H1 9423   1.979   1.408   4.410 -0.0170  2.4350  0.0157
 3153TIP3    H2 9424   2.096   1.485   4.353  1.1941 -1.3443 -2.9955
 3154TIP3   OH2 9425   4.229   6.713   2.116  0.2578  0.4975 -0.3740
 3154TIP3    H1 9426   4.222   6.618   2.115 -0.9975  0.5659  0.8470
 3154TIP3    H2 9427   4.140   6.744   2.127  0.6913  1.8277 -0.4568
 3155TIP3   OH2 9428   0.092   4.232   1.382  0.1274  0.3771 -0.3542
 3155TIP3    H1 9429   0.102   4.150   1.333 -0.9653  0.6605 -1.0866
 3155TIP3    H2 9430   0.171   4.282   1.360  0.0049  0.1934 -1.2575
 3156TIP3   OH2 9431   3.622   3.355   1.589  0.0744 -0.4979  0.4340
 3156TIP3    H1 9432   3.672   3.395   1.518 -0.7799 -1.5462 -0.7955
 3156TIP3    H2 9433   3.653   3.264   1.592 -1.0293 -0.8991  0.2894
 3157TIP3   OH2 9434   6.283   1.821   2.447 -0.0088 -0.0959  0.5108
 3157TIP3    H1 9435   6.286   1.733   2.485  1.1171  0.1767  1.0854
 3157TIP3    H2 9436   6.206   1.819   2.391 -0.6695 -1.0907  1.3971
 3158TIP3   OH2 9437   6.023   0.764   4.886 -0.0996 -0.7441  0.0528
 3158TIP3    H1 9438   5.971   0.716   4.950  0.6711  0.0964  1.3620
 3158TIP3    H2 9439   6.007   0.856   4.907  1.8841 -0.4692  0.4995
 3159TIP3   OH2 9440   5.877   1.206   2.397  0.3597  0.3259 -0.0769
 3159TIP3    H1 9441   5.808   1.272   2.395  1.1869  1.2126 -0.2321
 3159TIP3    H2 9442   5.869   1.166   2.484 -1.1114 -0.4554 -0.5330
 3160TIP3   OH2 9443   1.623   4.756   1.922  0.6225  0.3863 -0.1322
 3160TIP3    H1 9444   1.548   4.793   1.876  1.4634  1.0493 -1.0131
 3160TIP3    H2 9445   1.609   4.662   1.919  0.2158  0.4640 -0.9818
 3161TIP3   OH2 9446   2.319   1.914   5.125 -0.0416  0.6353 -0.1862
 3161TIP3    H1 9447   2.405   1.877   5.108 -0.7054 -0.8252 -0.5032
 3161TIP3    H2 9448   2.328   2.007   5.103  1.0575  0.2267 -1.6133
 3162TIP3   OH2 9449   1.015   3.715   1.433  0.5036 -0.2693 -0.6181
 3162TIP3    H1 9450   1.107   3.742   1.430  0.1471  0.9208 -1.4275
 3162TIP3    H2 9451   0.987   3.736   1.522  1.1673 -1.2014 -0.1747
 3163TIP3   OH2 9452   6.661   4.463   1.146  0.1398 -0.0879 -0.0248
 3163TIP3    H1 9453   6.743   4.447   1.100  0.9131  0.5292  1.1063
 3163TIP3    H2 9454   6.607   4.509   1.082 -0.3799 -2.8052 -1.7013
 3164TIP3   OH2 9455   3.005   4.939   5.130 -0.0880  0.2581  0.1090
 3164TIP3    H1 9456   3.034   4.848   5.117  3.2259  1.3321 -1.1532
 3164TIP3    H2 9457   3.009   4.951   5.225 -0.5738 -0.9097  0.2945
 3165TIP3   OH2 9458   4.097   5.892   3.779  0.0238  0.0030 -0.1528
 3165TIP3    H1 9459   4.013   5.939   3.784 -0.0879  0.2940 -2.8663
 3165TIP3    H2 9460   4.081   5.822   3.716  1.6891 -0.2313 -0.3582
 3166TIP3   OH2 9461   6.664   0.782   4.271  0.0521  0.3412  0.2225
 3166TIP3    H1 9462   6.584   0.759   4.225 -0.2899 -0.7099  1.2925
 3166TIP3    H2 9463   6.735   0.749   4.216 -0.2924  0.1810 -0.1265
 3167TIP3   OH2 9464   5.096   0.387   5.674  0.6753  0.1381  0.0031
 3167TIP3    H1 9465   5.087   0.303   5.718  0.0348 -0.1532 -0.6591
 3167TIP3    H2 9466   5.180   0.421   5.704  0.5460 -0.3352  0.9457
 3168TIP3   OH2 9467   6.104   5.203   2.771 -0.4736 -0.1436 -0.3070
 3168TIP3    H1 9468   6.174   5.234   2.713  0.0092  1.5036  1.0628
 3168TIP3    H2 9469   6.029   5.258   2.749 -0.3083  0.4412  0.5337
 3169TIP3   OH2 9470   2.557   3.738   3.668 -0.6046  0.1318  0.2185
 3169TIP3    H1 9471   2.648   3.713   3.657 -0.7960 -0.0321 -1.1826
 3169TIP3    H2 9472   2.534   3.707   3.756  0.5643 -0.1913  0.4230
 3170TIP3   OH2 9473   4.346   0.649   0.116  0.3409 -0.3378 -0.3564
 3170TIP3    H1 9474   4.266   0.596   0.120 -0.3508  0.7571  1.6776
 3170TIP3    H2 9475   4.343   0.704   0.194  2.7489  0.2678 -0.6026
 3171TIP3   OH2 9476   1.419   3.614   3.160 -0.0917  0.3014 -0.2891
 3171TIP3    H1 9477   1.476   3.620   3.083  0.5980  0.5172  0.2260
 3171TIP3    H2 9478   1.405   3.521   3.173 -4.0466  0.1534 -3.4060
 3172TIP3   OH2 9479   0.483   5.276   5.813 -0.3034 -0.3136  0.1215
 3172TIP3    H1 9480   0.575   5.301   5.803 -0.8687  1.6572 -0.6212
 3172TIP3    H2 9481   0.460   5.235   5.730 -0.7459  1.5487 -0.7164
 3173TIP3   OH2 9482   5.107   0.816   3.697 -0.3818 -0.5559  0.0521
 3173TIP3    H1 9483   5.142   0.745   3.749  1.0519 -0.2643 -0.4741
 3173TIP3    H2 9484   5.013   0.816   3.715 -0.0730 -1.1471  1.7662
 3174TIP3   OH2 9485   2.308   0.701   0.317  0.1832 -0.4354 -0.1059
 3174TIP3    H1 9486   2.339   0.685   0.228 -1.1428 -0.3889 -0.5870
 3174TIP3    H2 9487   2.271   0.618   0.346  0.9680 -0.5704  0.5806
 3175TIP3   OH2 9488   6.848   2.871   4.339 -0.3571 -0.3039  0.2182
 3175TIP3    H1 9489   6.829   2.869   4.245 -0.5427  1.6184  0.1710
 3175TIP3    H2 9490   6.835   2.781   4.368 -1.4400 -0.7128 -1.3853
 3176TIP3   OH2 9491   4.404   1.049   1.936  0.1964  0.0537  0.3436
 3176TIP3    H1 9492   4.470   1.066   2.003 -0.5136 -0.1407  1.0945
 3176TIP3    H2 9493   4.377   0.958   1.950  0.8065 -0.3411 -0.8845
 3177TIP3   OH2 9494   4.421   6.477   0.901  0.4959 -0.3673 -0.7851
 3177TIP3    H1 9495   4.393   6.387   0.919 -1.3039  0.4984  1.2380
 3177TIP3    H2 9496   4.393   6.526   0.979  1.1955  1.9886 -1.9435
 3178TIP3   OH2 9497   1.452   0.663   5.368  0.0555 -0.2337 -0.1702
 3178TIP3    H1 9498   1.470   0.668   5.462 -0.4476 -0.1145 -0.0772
 3178TIP3    H2 9499   1.426   0.752   5.343 -3.8749 -1.0109  0.4361
 3179TIP3   OH2 9500   0.369   1.440   4.254 -0.0095  0.1900 -0.4971
 3179TIP3    H1 9501   0.461   1.417   4.237  1.1495  1.9584  2.4914
 3179TIP3    H2 9502   0.365   1.534   4.234 -1.3297  0.0111 -1.1163
 3180TIP3   OH2 9503   0.178   2.664   1.457 -0.5902  0.1147  0.1387
 3180TIP3    H1 9504   0.099   2.650   1.406 -0.8395 -0.9494  0.7783
 3180TIP3    H2 9505   0.242   2.602   1.420  0.1610  1.3944 -0.7776
 3181TIP3   OH2 9506   6.201   0.054   4.794 -0.3083 -0.3487  0.2774
 3181TIP3    H1 9507   6.284   0.061   4.841  0.9309 -1.7531 -1.5641
 3181TIP3    H2 9508   6.204   0.124   4.729  0.0460 -1.2167 -0.6552
 3182TIP3   OH2 9509   0.351   2.482   5.385 -0.0487 -0.1254 -0.0181
 3182TIP3    H1 9510   0.347   2.551   5.452  0.5823 -1.7239  1.7203
 3182TIP3    H2 9511   0.350   2.400   5.434 -1.3628 -1.4149 -2.0595
 3183TIP3   OH2 9512   1.617   5.587   4.678  0.0684 -0.3064  0.1925
 3183TIP3    H1 9513   1.565   5.638   4.615 -1.6286 -1.8707  0.2183
 3183TIP3    H2 9514   1.706   5.589   4.643 -0.3340  1.0457 -0.8253
 3184TIP3   OH2 9515   6.292   2.188   3.397 -0.2104  0.5449  0.4892
 3184TIP3    H1 9516   6.265   2.277   3.420 -0.7597  0.1930  1.2580
 3184TIP3    H2 9517   6.212   2.137   3.402 -0.2458  0.3095 -1.6963
 3185TIP3   OH2 9518   7.186   2.190   2.612  0.2805  0.0281 -0.0362
 3185TIP3    H1 9519   7.151   2.101   2.610  1.7206 -0.5582 -1.3566
 3185TIP3    H2 9520   7.226   2.198   2.698  0.8198 -0.9159 -0.1761
 3186TIP3   OH2 9521   0.239   5.058   3.465  0.9430  0.0964  0.0054
 3186TIP3    H1 9522   0.310   5.114   3.497  0.1028  0.8216  0.6367
 3186TIP3    H2 9523   0.159   5.105   3.486  0.1343 -1.7824  1.4763
 3187TIP3   OH2 9524   6.690   6.071   4.579 -0.0613  0.2117  0.8140
 3187TIP3    H1 9525   6.674   6.092   4.487 -0.8441 -2.2491  0.3082
 3187TIP3    H2 9526   6.634   6.131   4.628 -0.9682  0.3870 -0.4026
 3188TIP3   OH2 9527   5.894   4.120   0.637  0.1012  0.6133 -0.0658
 3188TIP3    H1 9528   5.979   4.093   0.602 -0.0765 -0.7876  0.5025
 3188TIP3    H2 9529   5.836   4.121   0.561 -0.0924 -1.5816 -0.0144
 3189TIP3   OH2 9530   4.373   1.490   0.881  0.2267  0.0740  0.2977
 3189TIP3    H1 9531   4.320   1.509   0.804  1.3704  0.6411 -0.3686
 3189TIP3    H2 9532   4.349   1.558   0.944  0.4795  0.5796 -0.1533
 3190TIP3   OH2 9533   5.763   5.353   5.549 -0.1061  0.1929  0.2072
 3190TIP3    H1 9534   5.772   5.282   5.613 -1.6934 -0.2667 -0.0419
 3190TIP3    H2 9535   5.675   5.387   5.562  0.3420  1.6100 -0.2328
 3191TIP3   OH2 9536   2.776   3.415   4.116  0.2885  0.1048  0.0261
 3191TIP3    H1 9537   2.760   3.438   4.024 -1.1212 -2.0184 -0.3390
 3191TIP3    H2 9538   2.720   3.475   4.166  0.7677  1.0138 -0.5016
 3192TIP3   OH2 9539   1.032   4.678   3.940 -0.5486  0.2004 -0.0973
 3192TIP3    H1 9540   1.102   4.667   4.004  0.1083 -1.6166 -1.0674
 3192TIP3    H2 9541   1.028   4.595   3.893 -2.8358  0.5336 -0.6275
 3193TIP3   OH2 9542   3.422   6.596   5.335  0.3756 -1.0613  0.3493
 3193TIP3    H1 9543   3.462   6.602   5.248  2.0232 -3.4275  0.8319
 3193TIP3    H2 9544   3.357   6.526   5.326  0.2949 -1.0648  0.9388
 3194TIP3   OH2 9545   2.849   0.255   0.687  0.8513  0.0653  0.6069
 3194TIP3    H1 9546   2.785   0.185   0.698  0.2097  0.6156  0.4662
 3194TIP3    H2 9547   2.932   0.210   0.672  0.9638 -0.6865  3.1711
 3195TIP3   OH2 9548   5.732   6.316   2.956  0.7292  0.7659  0.4293
 3195TIP3    H1 9549   5.791   6.391   2.970  0.3545  1.2402 -0.4177
 3195TIP3    H2 9550   5.695   6.331   2.869  1.0574 -0.7050  0.0088
 3196TIP3   OH2 9551   3.518   3.140   3.915  0.3287 -0.1231 -0.5908
 3196TIP3    H1 9552   3.424   3.121   3.905 -0.5340  0.3700  4.3422
 3196TIP3    H2 9553   3.558   3.054   3.924 -0.1343 -0.2850  0.0379
 3197TIP3   OH2 9554   6.271   3.489   5.325 -0.1917  0.1179  0.0661
 3197TIP3    H1 9555   6.186   3.527   5.304 -1.7885 -2.4947  1.2798
 3197TIP3    H2 9556   6.297   3.531   5.406 -0.5805  0.5529 -0.0315
 3198TIP3   OH2 9557   0.396   3.315   3.854  0.2390  0.2819  0.1274
 3198TIP3    H1 9558   0.373   3.349   3.767  0.1552 -0.7910 -0.2787
 3198TIP3    H2 9559   0.491   3.308   3.852  0.4266  2.1011  0.8334
 3199TIP3   OH2 9560   0.648   6.244   3.822 -0.2753  0.2033 -0.3712
 3199TIP3    H1 9561   0.691   6.301   3.886 -1.2698  0.0397  0.4851
 3199TIP3    H2 9562   0.662   6.286   3.738 -1.3144  1.9460  0.2767
 3200TIP3   OH2 9563   4.995   1.831   1.124 -0.4396  0.4423  0.0416
 3200TIP3    H1 9564   4.955   1.918   1.121 -0.1754  0.5757  0.3409
 3200TIP3    H2 9565   5.081   1.845   1.164 -0.5425 -0.0145  0.4353
 3201TIP3   OH2 9566   0.632   6.833   2.514 -0.1085 -0.1936  0.0334
 3201TIP3    H1 9567   0.569   6.772   2.552  0.4413 -1.2288 -0.6795
 3201TIP3    H2 9568   0.712   6.782   2.505  0.4194  0.6987 -0.3917
 3202TIP3   OH2 9569   1.536   4.563   4.562 -0.6309 -0.1355  0.0014
 3202TIP3    H1 9570   1.553   4.498   4.495  0.7895  0.6520 -0.4504
 3202TIP3    H2 9571   1.445   4.548   4.589 -0.4250 -2.0905 -0.2817
 3203TIP3   OH2 9572   4.415   0.046   5.248 -0.7181  0.3111  0.0904
 3203TIP3    H1 9573   4.482  -0.008   5.290  0.8775  2.3844  0.3741
 3203TIP3    H2 9574   4.356   0.071   5.318  0.9525  2.3335  0.8609
 3204TIP3   OH2 9575   4.703   6.347   4.444 -0.5487 -0.5200 -0.1174
 3204TIP3    H1 9576   4.621   6.298   4.440 -1.3747  0.6603  1.1742
 3204TIP3    H2 9577   4.679   6.429   4.488  1.3456 -0.1652  0.3276
 3205TIP3   OH2 9578   4.275   5.124   2.481 -0.4481  0.1185 -0.1878
 3205TIP3    H1 9579   4.275   5.037   2.439  0.0556  0.4709 -0.9473
 3205TIP3    H2 9580   4.301   5.107   2.571 -2.2485 -0.7554  0.2110
 3206TIP3   OH2 9581   4.967   6.049   1.869  0.0668  0.2297  0.2437
 3206TIP3    H1 9582   4.885   6.081   1.907 -0.2462 -0.0549 -0.1838
 3206TIP3    H2 9583   4.964   5.954   1.880  0.1579  0.1813 -0.1213
 3207TIP3   OH2 9584   1.365   3.082   4.653 -0.3409  0.1609 -0.3171
 3207TIP3    H1 9585   1.325   3.150   4.707 -0.6630 -0.9569  0.8766
 3207TIP3    H2 9586   1.389   3.013   4.714  1.2918 -0.2103 -1.3272
 3208TIP3   OH2 9587   6.107   1.648   1.800  0.3980  0.2920 -0.9569
 3208TIP3    H1 9588   6.106   1.622   1.708  3.4066 -2.0361 -0.4921
 3208TIP3    H2 9589   6.185   1.703   1.809  2.2844 -2.3985  0.7197
 3209TIP3   OH2 9590   4.761   0.564   2.812  0.4053 -0.1328  0.5587
 3209TIP3    H1 9591   4.748   0.622   2.888  0.5657  1.2974 -0.4588
 3209TIP3    H2 9592   4.678   0.517   2.804  0.0113  0.4633  1.0070
 3210TIP3   OH2 9593   1.817   4.309   2.464 -0.1314  0.3319 -0.2005
 3210TIP3    H1 9594   1.770   4.392   2.457  1.5531  1.3169 -0.4556
 3210TIP3    H2 9595   1.764   4.256   2.522 -1.3204  1.5408 -0.1310
 3211TIP3   OH2 9596   7.112   1.038   3.378  0.7420 -0.4971 -0.3840
 3211TIP3    H1 9597   7.030   0.992   3.396  0.0612  0.4834 -0.9184
 3211TIP3    H2 9598   7.178   0.988   3.427 -0.5713  0.3583  2.5290
 3212TIP3   OH2 9599   2.866   5.096   0.955  0.1008  0.2339  0.0542
 3212TIP3    H1 9600   2.905   5.178   0.984  0.2152  0.2400 -0.1149
 3212TIP3    H2 9601   2.781   5.093   0.998 -0.6694  1.3019 -1.3282
 3213TIP3   OH2 9602   4.816   2.370   0.023 -0.3731  0.6347  0.3538
 3213TIP3    H1 9603   4.770   2.435  -0.030 -0.2406  0.5518  0.1361
 3213TIP3    H2 9604   4.746   2.321   0.066 -0.7416 -2.0590 -2.9505
 3214TIP3   OH2 9605   4.954   5.887   5.075 -0.0061  0.7538 -0.5570
 3214TIP3    H1 9606   5.017   5.952   5.043  0.1587  1.2279  0.6969
 3214TIP3    H2 9607   4.888   5.939   5.122 -0.1500  0.0548  0.0138
 3215TIP3   OH2 9608   2.832   1.967   3.526  0.4186  0.4139 -0.1167
 3215TIP3    H1 9609   2.783   1.895   3.566 -0.7096  1.2309  0.0211
 3215TIP3    H2 9610   2.803   1.967   3.435 -0.3037  1.2569  0.0963
 3216TIP3   OH2 9611   6.412   1.672   1.167  0.3868  0.3280  0.3699
 3216TIP3    H1 9612   6.372   1.599   1.214  0.2244 -0.8012 -1.4418
 3216TIP3    H2 9613   6.352   1.745   1.180 -1.6919 -0.9793 -1.2157
 3217TIP3   OH2 9614   4.134   0.435   2.476 -0.0093  0.9878  0.1020
 3217TIP3    H1 9615   4.114   0.415   2.568 -1.2560  0.8114 -0.1917
 3217TIP3    H2 9616   4.058   0.403   2.428  1.5310 -0.8554 -1.2362
 3218TIP3   OH2 9617   3.718   3.597   0.553  0.1223  0.2467 -0.1314
 3218TIP3    H1 9618   3.756   3.681   0.528  0.0084  0.1936 -0.4807
 3218TIP3    H2 9619   3.648   3.581   0.490 -1.1099  0.7755  1.0388
 3219TIP3   OH2 9620   4.223   0.455   0.665  0.3445  0.8008  0.4357
 3219TIP3    H1 9621   4.257   0.491   0.583  1.7178 -0.2554  0.5132
 3219TIP3    H2 9622   4.187   0.370   0.641 -1.5275  1.4990  0.5281
 3220TIP3   OH2 9623   0.513   4.202   3.890 -0.4880  0.2622 -0.1823
 3220TIP3    H1 9624   0.525   4.230   3.980 -0.1589 -0.8459  0.1273
 3220TIP3    H2 9625   0.602   4.193   3.855 -0.4743 -2.0774  0.2790
 3221TIP3   OH2 9626   1.647   4.348   1.847  0.1286  0.0234  0.0619
 3221TIP3    H1 9627   1.720   4.408   1.864 -0.0632  0.1818  0.3364
 3221TIP3    H2 9628   1.571   4.393   1.883  0.1617 -0.9270  1.3928
 3222TIP3   OH2 9629   2.439   3.377   3.226  0.8082 -0.0077  0.5598
 3222TIP3    H1 9630   2.445   3.367   3.321  0.7680 -2.0427  0.3719
 3222TIP3    H2 9631   2.367   3.321   3.199 -0.3373  1.8727 -0.5316
 3223TIP3   OH2 9632   1.404   4.364   5.285  0.1032  0.0131 -0.3696
 3223TIP3    H1 9633   1.341   4.417   5.333  1.9476  1.7365  0.2871
 3223TIP3    H2 9634   1.356   4.284   5.262 -0.9490 -1.1164  4.5219
 3224TIP3   OH2 9635   0.991   3.899   1.070  0.7026 -0.3997 -0.1002
 3224TIP3    H1 9636   0.942   3.954   1.009  0.9434 -0.0255  0.0402
 3224TIP3    H2 9637   1.063   3.955   1.100  0.7634 -0.6842  0.2896
 3225TIP3   OH2 9638   7.082   6.724   5.820  0.4009 -0.1277  0.3418
 3225TIP3    H1 9639   7.023   6.792   5.786 -0.9789 -1.5741 -0.2843
 3225TIP3    H2 9640   7.170   6.756   5.800 -0.2286  1.2039 -0.4448
 3226TIP3   OH2 9641   6.699   0.315   5.257  0.7683  0.0943 -0.3619
 3226TIP3    H1 9642   6.727   0.299   5.167 -0.4286 -2.1765 -0.4166
 3226TIP3    H2 9643   6.615   0.359   5.249 -0.0250 -1.3566 -0.4557
 3227TIP3   OH2 9644   6.918   4.690   3.210  0.1080 -0.1836  0.9873
 3227TIP3    H1 9645   6.853   4.643   3.159 -1.8154 -0.8222  3.7968
 3227TIP3    H2 9646   7.002   4.655   3.180 -0.9196 -0.9222 -1.2260
 3228TIP3   OH2 9647   1.367   1.614   2.357  0.3515 -0.6083  0.2389
 3228TIP3    H1 9648   1.340   1.607   2.265  1.1219  0.3036 -0.0771
 3228TIP3    H2 9649   1.365   1.708   2.375 -0.4534 -0.8178  1.3762
 3229TIP3   OH2 9650   2.203   1.700   5.284 -0.0128 -0.0109  0.1633
 3229TIP3    H1 9651   2.223   1.789   5.256 -2.5069  1.0801  1.5240
 3229TIP3    H2 9652   2.175   1.655   5.204  2.0432  0.1049 -0.6839
 3230TIP3   OH2 9653   7.054   6.710   2.405 -0.4923  0.0092  0.2619
 3230TIP3    H1 9654   7.055   6.653   2.328  3.6631  0.7728 -0.5003
 3230TIP3    H2 9655   7.041   6.651   2.479 -2.3645 -1.0268 -0.8338
 3231TIP3   OH2 9656   2.771   2.999   2.860 -0.0075  0.2912 -0.1364
 3231TIP3    H1 9657   2.702   3.064   2.868  0.9702  1.2392  0.9345
 3231TIP3    H2 9658   2.849   3.050   2.837  1.2602 -0.1638  2.8179
 3232TIP3   OH2 9659   2.801   2.052   5.068 -0.1605  0.0631  0.0461
 3232TIP3    H1 9660   2.880   2.087   5.028  0.4216 -0.9097  0.3009
 3232TIP3    H2 9661   2.774   1.981   5.009  0.3208 -0.9392  0.9949
 3233TIP3   OH2 9662   2.619   5.625   1.803 -0.1719  0.3052  0.1680
 3233TIP3    H1 9663   2.534   5.589   1.827 -0.4809  1.5379  1.0104
 3233TIP3    H2 9664   2.678   5.597   1.872 -0.1693  0.4868  0.2401
 3234TIP3   OH2 9665   1.637   5.122   1.799  0.5528 -0.2799  0.2433
 3234TIP3    H1 9666   1.714   5.074   1.828 -0.3022 -1.0145  1.3708
 3234TIP3    H2 9667   1.586   5.136   1.879  0.9634  2.9311  0.0711
 3235TIP3   OH2 9668   7.164   3.257   2.336 -0.4116 -0.4359 -0.0318
 3235TIP3    H1 9669   7.254   3.267   2.368 -0.1229 -1.5140 -0.4666
 3235TIP3    H2 9670   7.128   3.346   2.340 -0.3763 -0.4374  3.1621
 3236TIP3   OH2 9671   0.027   3.299   5.560 -0.3556 -0.7738  0.2355
 3236TIP3    H1 9672   0.016   3.266   5.649  2.0671 -0.2946  0.7636
 3236TIP3    H2 9673   0.070   3.384   5.571 -2.4906  0.6012 -1.3049
 3237TIP3   OH2 9674   3.309   5.515   1.069 -0.1898  0.0921  0.0800
 3237TIP3    H1 9675   3.298   5.553   1.156  0.7469 -0.5459  0.4965
 3237TIP3    H2 9676   3.398   5.539   1.043  0.3781 -1.6375  0.2968
 3238TIP3   OH2 9677   1.781   1.786   1.890  0.5124  0.1999 -0.0511
 3238TIP3    H1 9678   1.864   1.769   1.845 -0.4687 -0.4422 -1.7369
 3238TIP3    H2 9679   1.733   1.703   1.882 -0.6505  0.8410  0.0541
 3239TIP3   OH2 9680   5.194   0.744   4.539  0.0014 -0.3630  0.0501
 3239TIP3    H1 9681   5.148   0.691   4.605 -0.7739 -2.2909 -1.9270
 3239TIP3    H2 9682   5.134   0.817   4.521 -1.7072 -2.0399 -1.3993
 3240TIP3   OH2 9683   6.221   0.541   4.466 -0.6452 -0.2004  0.3316
 3240TIP3    H1 9684   6.225   0.625   4.510 -0.4726  0.0378 -0.1314
 3240TIP3    H2 9685   6.128   0.527   4.449 -0.9695 -1.3004  2.6582
 3241TIP3   OH2 9686   4.974   1.577   0.377 -0.3527  0.2531 -0.2145
 3241TIP3    H1 9687   4.959   1.503   0.318  0.9219 -0.1148 -0.1089
 3241TIP3    H2 9688   5.069   1.580   0.388 -0.4612  1.2664  0.6181
 3242TIP3   OH2 9689   5.982   2.631   2.378  0.0137  0.3488  0.0543
 3242TIP3    H1 9690   5.924   2.668   2.444  1.3139 -0.1061  1.5081
 3242TIP3    H2 9691   6.048   2.700   2.363 -0.6977  0.7569 -1.3746
 3243TIP3   OH2 9692   5.527   4.204   1.000 -0.5222  0.0824  0.0464
 3243TIP3    H1 9693   5.458   4.182   1.062 -1.4108  1.1057 -0.5592
 3243TIP3    H2 9694   5.606   4.210   1.054 -1.0296 -0.3968  0.8604
 3244TIP3   OH2 9695   1.750   1.258   2.975 -0.3747 -0.3611 -0.0984
 3244TIP3    H1 9696   1.694   1.188   3.007 -0.4841 -0.7187 -1.0553
 3244TIP3    H2 9697   1.811   1.215   2.915  1.2529 -0.0737  1.2453
 3245TIP3   OH2 9698   6.912   5.466   5.305  0.0694  0.2357  0.3041
 3245TIP3    H1 9699   6.893   5.383   5.261  2.6614  0.0382 -0.6331
 3245TIP3    H2 9700   6.898   5.532   5.237 -0.4104  0.4066  0.5680
 3246TIP3   OH2 9701   6.299   0.768   4.578  0.2531  0.5943  0.1054
 3246TIP3    H1 9702   6.318   0.771   4.672 -0.3424 -2.3847  0.4008
 3246TIP3    H2 9703   6.379   0.801   4.537  0.7242  1.4607  1.6004
 3247TIP3   OH2 9704   1.412   2.597   2.364 -0.1122 -0.4136  0.1918
 3247TIP3    H1 9705   1.442   2.648   2.289 -0.1995  1.1213  1.1533
 3247TIP3    H2 9706   1.493   2.570   2.408 -0.0505 -1.7203 -0.6936
 3248TIP3   OH2 9707   5.928   0.027   5.461  0.4085 -0.1823  0.0211
 3248TIP3    H1 9708   5.991   0.050   5.393  1.7879 -1.4509  0.7993
 3248TIP3    H2 9709   5.913  -0.067   5.449 -1.2827  0.0748 -0.0677
 3249TIP3   OH2 9710   0.631   1.869   3.562 -0.0864  0.2604 -0.0676
 3249TIP3    H1 9711   0.565   1.852   3.630 -0.5373 -0.7070 -0.7356
 3249TIP3    H2 9712   0.581   1.872   3.480  0.8719 -2.5249 -0.8660
 3250TIP3   OH2 9713   0.599   3.494   1.021  0.0472 -0.9220 -0.0463
 3250TIP3    H1 9714   0.621   3.584   1.045  0.3881 -0.9035 -0.4123
 3250TIP3    H2 9715   0.527   3.502   0.958 -1.5700 -1.0115  1.7007
 3251TIP3   OH2 9716   6.301   0.289   4.033 -0.4908 -0.0700  0.1316
 3251TIP3    H1 9717   6.278   0.205   3.992 -0.5663 -0.8656  1.7552
 3251TIP3    H2 9718   6.228   0.308   4.091 -1.1581  1.8773 -1.2504
 3252TIP3   OH2 9719   1.137   1.643   3.465 -0.4159  1.4419  0.2522
 3252TIP3    H1 9720   1.203   1.671   3.527 -1.0699  1.6324  0.8706
 3252TIP3    H2 9721   1.062   1.701   3.480 -1.5934 -0.2199  1.1795
 3253TIP3   OH2 9722   5.346   4.005   5.290 -0.3010  0.2003 -0.3965
 3253TIP3    H1 9723   5.286   3.942   5.250 -1.0209  0.1335  0.7365
 3253TIP3    H2 9724   5.404   4.032   5.219 -0.9402 -0.6102 -1.2458
 3254TIP3   OH2 9725   4.622   4.778   0.408 -0.0584 -0.4324  0.0933
 3254TIP3    H1 9726   4.652   4.773   0.499 -0.0742 -1.4236  0.0557
 3254TIP3    H2 9727   4.679   4.844   0.368 -1.0638  1.1690  1.1849
 3255TIP3   OH2 9728   2.367   4.205   1.512 -0.3580  0.3878 -0.1419
 3255TIP3    H1 9729   2.441   4.144   1.513  0.6683  1.3527  4.6523
 3255TIP3    H2 9730   2.296   4.157   1.555 -0.6718  1.3407  0.4223
 3256TIP3   OH2 9731   5.042   0.978   4.463  0.5020  0.2744 -0.0950
 3256TIP3    H1 9732   5.076   1.005   4.378  1.4731 -0.7003 -0.0387
 3256TIP3    H2 9733   4.980   1.046   4.487 -2.9750 -1.3511 -3.4409
 3257TIP3   OH2 9734   3.766   6.351   5.156 -0.2596 -0.4803 -0.7196
 3257TIP3    H1 9735   3.674   6.378   5.148 -0.4696 -1.4450 -1.8631
 3257TIP3    H2 9736   3.814   6.434   5.165 -1.0148  0.2630 -2.8000
 3258TIP3   OH2 9737   0.712   3.377   3.077  0.1337 -0.1547 -0.3834
 3258TIP3    H1 9738   0.730   3.309   3.141  1.3964 -0.9870 -1.5587
 3258TIP3    H2 9739   0.642   3.342   3.022  0.6915 -0.4749 -0.9056
 3259TIP3   OH2 9740   5.225   3.441   5.845  0.8412 -1.4469 -0.0328
 3259TIP3    H1 9741   5.305   3.493   5.838 -0.1235  0.3544  1.4419
 3259TIP3    H2 9742   5.236   3.390   5.926  1.0339 -2.2053 -0.5287
 3260TIP3   OH2 9743   2.550   0.238   5.500  0.0502 -0.4702 -0.3785
 3260TIP3    H1 9744   2.540   0.300   5.427  0.1069 -0.5907 -0.4882
 3260TIP3    H2 9745   2.633   0.194   5.482  1.1812  1.0076  0.8783
 3261TIP3   OH2 9746   5.998   4.791   5.380 -0.3219 -0.2822  0.3480
 3261TIP3    H1 9747   5.966   4.716   5.429  1.5183 -0.6264  1.1277
 3261TIP3    H2 9748   5.993   4.765   5.288 -0.3505 -1.0786  0.5744
 3262TIP3   OH2 9749   0.650   5.857   2.846 -0.3597  0.2185  0.1785
 3262TIP3    H1 9750   0.716   5.799   2.884  0.9674  0.9508 -0.8858
 3262TIP3    H2 9751   0.697   5.901   2.775 -1.9273  1.0247 -0.3829
 3263TIP3   OH2 9752   2.267   5.432   0.783  0.0760 -0.2727  0.4617
 3263TIP3    H1 9753   2.299   5.500   0.842  1.3150 -0.8165  0.4489
 3263TIP3    H2 9754   2.191   5.472   0.739  0.5816  0.9808  0.6827
 3264TIP3   OH2 9755   6.339   6.166   4.502 -0.7028  0.3592  0.1263
 3264TIP3    H1 9756   6.345   6.233   4.433 -2.4664  1.2810  0.8192
 3264TIP3    H2 9757   6.387   6.203   4.576 -1.9050  1.0300  0.6016
 3265TIP3   OH2 9758   4.521   5.179   3.784  0.3209 -0.5572 -0.3287
 3265TIP3    H1 9759   4.597   5.210   3.735  0.2371  0.4658  0.1617
 3265TIP3    H2 9760   4.490   5.103   3.735 -1.4729  2.0109 -3.5878
 3266TIP3   OH2 9761   3.743   6.665   3.791 -0.1060 -0.0347  0.1844
 3266TIP3    H1 9762   3.695   6.586   3.818  0.6516 -0.7892 -0.6227
 3266TIP3    H2 9763   3.790   6.639   3.713 -0.8641  1.6130 -0.8858
 3267TIP3   OH2 9764   6.174   2.360   2.181 -0.2788  0.2405  0.6096
 3267TIP3    H1 9765   6.119   2.433   2.149  0.6367  1.3270  1.4333
 3267TIP3    H2 9766   6.247   2.357   2.119  0.0994  0.5689  1.0328
 3268TIP3   OH2 9767   6.794   0.592   2.417  0.4829  0.3618  0.0988
 3268TIP3    H1 9768   6.824   0.630   2.500  1.5905 -0.6926  0.2055
 3268TIP3    H2 9769   6.714   0.544   2.439  0.1421  1.0201  0.3264
 3269TIP3   OH2 9770   5.733   0.854   0.347 -0.1383  0.5750 -0.0715
 3269TIP3    H1 9771   5.800   0.909   0.306  0.6774  0.3941  0.9798
 3269TIP3    H2 9772   5.781   0.777   0.378 -0.6012  0.9756  1.7419
 3270TIP3   OH2 9773   1.170   4.078   4.266  0.8194 -0.0281 -1.0648
 3270TIP3    H1 9774   1.222   4.121   4.198  0.2799 -1.4205 -2.4177
 3270TIP3    H2 9775   1.081   4.080   4.232  0.6382 -1.3073 -0.7099
 3271TIP3   OH2 9776   5.053   4.401   3.483  0.9338  0.0716  0.2414
 3271TIP3    H1 9777   5.032   4.321   3.531  2.3672  0.1250  1.0277
 3271TIP3    H2 9778   4.971   4.449   3.479 -0.3988 -2.1994 -1.8108
 3272TIP3   OH2 9779   3.624   4.425   5.678 -0.5688  0.4440 -0.0289
 3272TIP3    H1 9780   3.672   4.404   5.598  0.7436 -0.9789  1.0537
 3272TIP3    H2 9781   3.537   4.449   5.649 -0.0684  0.1417 -1.8937
 3273TIP3   OH2 9782   0.914   1.202   0.166 -0.1904 -0.1809  0.2416
 3273TIP3    H1 9783   0.943   1.116   0.135  2.9480  0.7654  0.2133
 3273TIP3    H2 9784   0.932   1.261   0.093 -2.8393  0.4974  0.0422
 3274TIP3   OH2 9785   3.883   1.250   0.244 -0.6709 -0.0837  0.0615
 3274TIP3    H1 9786   3.857   1.217   0.158  0.0994 -0.2868 -0.0941
 3274TIP3    H2 9787   3.940   1.324   0.225 -0.3735 -0.2247  0.4038
 3275TIP3   OH2 9788   1.514   1.450   3.242  0.3945  0.5829 -0.0544
 3275TIP3    H1 9789   1.473   1.488   3.165  0.3719  1.2029  0.2654
 3275TIP3    H2 9790   1.477   1.361   3.248 -0.5489  0.9687 -0.0339
 3276TIP3   OH2 9791   2.709   3.729   2.214  0.3957 -0.3181  0.5933
 3276TIP3    H1 9792   2.688   3.765   2.128  0.2058 -2.3498 -0.2696
 3276TIP3    H2 9793   2.643   3.767   2.272  0.0903  0.5408 -0.2843
 3277TIP3   OH2 9794   2.280   0.676   5.771  0.2252 -0.6191  0.4550
 3277TIP3    H1 9795   2.221   0.617   5.724 -2.9395  0.8172  2.2731
 3277TIP3    H2 9796   2.359   0.625   5.785 -2.2851 -4.5504  1.9882
 3278TIP3   OH2 9797   0.781   1.918   0.280 -0.2412  0.2377 -0.2080
 3278TIP3    H1 9798   0.755   1.844   0.334 -0.0062  0.6097  0.4232
 3278TIP3    H2 9799   0.850   1.883   0.222  0.3428  0.1183  0.5423
 3279TIP3   OH2 9800   2.725   4.888   5.624 -0.0068  0.1043 -0.0677
 3279TIP3    H1 9801   2.778   4.810   5.637 -0.7946 -0.3542  0.4655
 3279TIP3    H2 9802   2.635   4.857   5.626 -0.3131  0.6655 -2.3501
 3280TIP3   OH2 9803   5.406   5.256   2.843  0.0058  0.6282 -0.0641
 3280TIP3    H1 9804   5.387   5.163   2.844  0.6989  0.3707 -2.7902
 3280TIP3    H2 9805   5.353   5.292   2.914 -1.7517 -1.5615 -0.1524
 3281TIP3   OH2 9806   0.085   6.314   0.245 -0.3663 -0.0282  0.0027
 3281TIP3    H1 9807   0.090   6.321   0.149  0.4820  0.7599  0.0877
 3281TIP3    H2 9808   0.101   6.221   0.262 -1.0987 -0.2815 -0.6482
 3282TIP3   OH2 9809   3.557   1.008   0.908 -0.5952 -0.3532  0.5254
 3282TIP3    H1 9810   3.538   1.028   0.816 -2.4345 -1.7243  0.5497
 3282TIP3    H2 9811   3.565   1.094   0.950  0.4481  0.2946 -0.9285
 3283TIP3   OH2 9812   0.763   3.455   2.668  0.3199 -0.6164  0.1728
 3283TIP3    H1 9813   0.681   3.500   2.685  0.5479 -0.0605 -0.1754
 3283TIP3    H2 9814   0.819   3.479   2.742  0.0500 -1.3116  0.6158
 3284TIP3   OH2 9815   4.787   5.660   5.234 -0.8049  0.7660  0.7863
 3284TIP3    H1 9816   4.821   5.749   5.230 -2.0425  1.2210 -0.5661
 3284TIP3    H2 9817   4.736   5.650   5.153 -0.2455 -1.3585  0.6342
 3285TIP3   OH2 9818   2.163   1.401   1.973  0.4908  0.0672 -0.0554
 3285TIP3    H1 9819   2.144   1.462   2.044  0.5176  0.1337 -0.1049
 3285TIP3    H2 9820   2.258   1.408   1.959  0.3662  0.6640 -0.6505
 3286TIP3   OH2 9821   3.869   1.500   3.501  0.2378  0.1219  0.2241
 3286TIP3    H1 9822   3.791   1.547   3.530  0.0020  1.2333 -2.0030
 3286TIP3    H2 9823   3.865   1.503   3.405  2.1218 -1.3159  0.0399
 3287TIP3   OH2 9824   5.550   5.832   4.347  0.3786 -0.5910 -0.6287
 3287TIP3    H1 9825   5.541   5.901   4.413  1.5911  0.1131 -1.1606
 3287TIP3    H2 9826   5.474   5.844   4.289  0.0643 -0.3172 -0.1645
 3288TIP3   OH2 9827   0.783   2.829   2.727 -0.0424  0.3997  0.8205
 3288TIP3    H1 9828   0.749   2.914   2.700  0.2945  0.2212 -0.2179
 3288TIP3    H2 9829   0.749   2.767   2.662  1.6239  0.1132  0.1720
 3289TIP3   OH2 9830   7.149   4.954   3.718  0.2037  0.7672  0.0869
 3289TIP3    H1 9831   7.113   5.041   3.740  1.5950  2.0755 -2.3790
 3289TIP3    H2 9832   7.081   4.913   3.664 -0.7008  0.0075  1.7233
 3290TIP3   OH2 9833   5.353   4.988   2.836  0.7890 -0.4201 -0.7768
 3290TIP3    H1 9834   5.392   4.901   2.832 -0.0460 -1.0320  2.2711
 3290TIP3    H2 9835   5.279   4.984   2.775  0.5993 -1.9285 -0.4736
 3291TIP3   OH2 9836   2.810   3.250   0.818  0.1413 -0.5214  0.4499
 3291TIP3    H1 9837   2.815   3.256   0.913  2.9766 -0.8023  0.3877
 3291TIP3    H2 9838   2.872   3.315   0.786  0.3400 -1.4557 -1.1795
 3292TIP3   OH2 9839   1.101   6.672   5.459  0.0299  0.1057 -0.0763
 3292TIP3    H1 9840   1.060   6.742   5.509  0.5563  0.0884  0.3906
 3292TIP3    H2 9841   1.087   6.593   5.511 -0.7620 -0.1789 -0.7137
 3293TIP3   OH2 9842   2.692   4.824   4.176  0.3548 -0.2002  0.3280
 3293TIP3    H1 9843   2.625   4.857   4.116 -1.2178 -0.8780  1.6401
 3293TIP3    H2 9844   2.725   4.902   4.221  0.9550  0.2138 -0.7775
 3294TIP3   OH2 9845   2.857   3.285   5.260  0.1189 -0.6844  0.0859
 3294TIP3    H1 9846   2.826   3.255   5.175  0.0842 -2.0575  0.5565
 3294TIP3    H2 9847   2.778   3.286   5.315  0.1858 -0.0686  0.1728
 3295TIP3   OH2 9848   4.292   5.440   5.438 -0.3568 -0.7722  0.6297
 3295TIP3    H1 9849   4.366   5.428   5.379 -0.6789 -0.2746  0.1095
 3295TIP3    H2 9850   4.249   5.520   5.406 -0.5667 -0.5262  1.5040
 3296TIP3   OH2 9851   0.489   4.159   5.671  0.0241  0.4958 -0.2132
 3296TIP3    H1 9852   0.483   4.074   5.627  0.2022  0.8241 -0.8880
 3296TIP3    H2 9853   0.565   4.152   5.728 -0.3779 -0.0343  0.2722
 3297TIP3   OH2 9854   6.710   3.691   3.373 -0.3013  0.0097  0.2871
 3297TIP3    H1 9855   6.710   3.783   3.398 -0.8371  0.7975 -2.2569
 3297TIP3    H2 9856   6.676   3.645   3.449 -1.4686  2.0978  1.1134
 3298TIP3   OH2 9857   5.891   3.445   0.689 -0.0869 -0.2348  0.0488
 3298TIP3    H1 9858   5.909   3.406   0.775  0.3187 -0.5628 -0.1823
 3298TIP3    H2 9859   5.962   3.507   0.676 -0.9170  0.8729  0.5721
 3299TIP3   OH2 9860   2.630   2.084   3.308 -0.0168  0.1996  0.1092
 3299TIP3    H1 9861   2.543   2.115   3.282  0.2254  0.4323 -0.4324
 3299TIP3    H2 9862   2.651   2.017   3.244 -0.8936 -1.7489  1.7564
 3300TIP3   OH2 9863   6.408   3.763   1.070  0.2407 -0.2551  0.0007
 3300TIP3    H1 9864   6.369   3.780   1.156  0.3025  1.6256 -0.3072
 3300TIP3    H2 9865   6.338   3.723   1.019 -0.7638  1.4617 -0.0053
 3301TIP3   OH2 9866   5.728   4.555   1.339 -0.2582 -0.2503 -0.1740
 3301TIP3    H1 9867   5.721   4.464   1.368  0.9192 -0.1459  0.5317
 3301TIP3    H2 9868   5.647   4.596   1.370 -0.9409 -1.1069 -0.7687
 3302TIP3   OH2 9869   3.668   2.838   5.905 -0.0149  0.0171  0.4178
 3302TIP3    H1 9870   3.627   2.821   5.820 -2.8131 -0.6403  1.7671
 3302TIP3    H2 9871   3.753   2.877   5.884  0.2529 -1.9053 -2.6656
 3303TIP3   OH2 9872   7.038   4.880   1.753 -1.0628 -0.2918  0.0648
 3303TIP3    H1 9873   7.078   4.835   1.677  0.4470 -0.3164  0.8314
 3303TIP3    H2 9874   6.970   4.935   1.715 -0.8317 -0.8598 -1.2425
 3304TIP3   OH2 9875   0.513   4.927   0.539 -0.8452 -0.2456 -0.2266
 3304TIP3    H1 9876   0.420   4.907   0.537 -1.1209  0.9739 -0.6468
 3304TIP3    H2 9877   0.546   4.902   0.453 -0.7154 -0.9401  0.0189
 3305TIP3   OH2 9878   0.765   3.317   1.637  0.0189  0.0073 -0.3738
 3305TIP3    H1 9879   0.708   3.393   1.620  0.1275 -0.0619 -1.0851
 3305TIP3    H2 9880   0.791   3.327   1.728  0.1718  0.9323 -0.5041
 3306TIP3   OH2 9881   3.322   3.229   0.516 -0.6069 -1.0783 -0.3811
 3306TIP3    H1 9882   3.388   3.224   0.446  0.7210  0.5738  0.6695
 3306TIP3    H2 9883   3.369   3.202   0.595 -0.8485  1.0746  0.5677
 3307TIP3   OH2 9884   4.896   1.944   4.375  0.6759 -0.4516  0.6253
 3307TIP3    H1 9885   4.916   1.853   4.351  0.0583 -0.1496 -1.2582
 3307TIP3    H2 9886   4.885   1.988   4.291 -1.1098  0.8949  1.4991
 3308TIP3   OH2 9887   2.526   5.691   2.604  0.6869  0.1652 -0.1362
 3308TIP3    H1 9888   2.520   5.760   2.670  0.1426  1.2610 -1.2919
 3308TIP3    H2 9889   2.611   5.707   2.562  0.3296  0.4536 -0.7498
 3309TIP3   OH2 9890   5.203   0.738   1.511  0.0982 -0.4474  0.7032
 3309TIP3    H1 9891   5.144   0.678   1.465  1.3617 -1.9685  0.9820
 3309TIP3    H2 9892   5.207   0.704   1.601  1.0282 -0.0957  0.8090
 3310TIP3   OH2 9893   2.417   0.753   4.705  0.3835  0.1324 -0.0170
 3310TIP3    H1 9894   2.426   0.740   4.610 -2.1845  0.4424 -0.3815
 3310TIP3    H2 9895   2.426   0.848   4.717  0.1978  0.1533 -0.0357
 3311TIP3   OH2 9896   4.456   4.634   3.189 -0.2416  0.5138 -0.1301
 3311TIP3    H1 9897   4.428   4.543   3.181 -0.8426  0.6810 -0.0410
 3311TIP3    H2 9898   4.528   4.632   3.252  0.5874 -0.0503 -1.0744
 3312TIP3   OH2 9899   2.032   0.194   0.747 -0.2916  0.2026  0.2253
 3312TIP3    H1 9900   2.028   0.284   0.780  0.0090 -0.3866  1.9101
 3312TIP3    H2 9901   1.944   0.159   0.762 -0.1788 -0.0413  0.3259
 3313TIP3   OH2 9902   1.337   6.628   4.097 -0.4496  0.5063 -0.3610
 3313TIP3    H1 9903   1.430   6.618   4.117 -0.9151 -0.1837  1.7125
 3313TIP3    H2 9904   1.321   6.562   4.029  0.3778 -0.0292 -0.0619
 3314TIP3   OH2 9905   6.974   0.782   0.131 -0.0251 -0.0869  0.0595
 3314TIP3    H1 9906   6.938   0.705   0.175 -0.1918 -0.3538 -0.5292
 3314TIP3    H2 9907   6.976   0.758   0.038 -2.3184  1.4737 -0.4778
 3315TIP3   OH2 9908   1.150   5.592   5.852 -0.1422 -0.3435  0.2958
 3315TIP3    H1 9909   1.132   5.526   5.785 -0.9725 -1.3041  1.4265
 3315TIP3    H2 9910   1.153   5.674   5.803  0.4874 -1.1429 -1.0838
 3316TIP3   OH2 9911   4.709   5.608   0.858  0.5031  0.3342 -0.2642
 3316TIP3    H1 9912   4.684   5.660   0.935  2.5824 -0.1117  0.7787
 3316TIP3    H2 9913   4.647   5.534   0.858  0.8207  0.0335  1.3357
 3317TIP3   OH2 9914   5.147   2.154   2.741  0.1860  0.0840  0.4010
 3317TIP3    H1 9915   5.242   2.149   2.756 -0.0276 -2.4505  1.2933
 3317TIP3    H2 9916   5.109   2.107   2.814 -1.8577  1.6972  0.4475
 3318TIP3   OH2 9917   2.192   3.473   5.406 -0.2068 -0.3172  0.9986
 3318TIP3    H1 9918   2.250   3.504   5.475  1.0519 -0.5295  0.0679
 3318TIP3    H2 9919   2.201   3.378   5.407 -1.3426 -0.4318  1.5181
 3319TIP3   OH2 9920   4.644   3.325   3.983  0.1091 -0.2517 -0.2703
 3319TIP3    H1 9921   4.570   3.316   4.042  0.9355  1.7696  1.2106
 3319TIP3    H2 9922   4.650   3.241   3.938 -2.2757 -0.8898  0.4600
 3320TIP3   OH2 9923   0.710   4.692   1.800 -0.3437 -0.2047  0.2298
 3320TIP3    H1 9924   0.636   4.752   1.809 -0.6601 -0.5723  0.1018
 3320TIP3    H2 9925   0.671   4.605   1.800  0.0810 -0.3995  0.0768
 3321TIP3   OH2 9926   3.963   6.548   3.672  0.8273 -0.3454 -0.2040
 3321TIP3    H1 9927   3.960   6.535   3.767  0.2307  0.6596 -0.0783
 3321TIP3    H2 9928   4.045   6.596   3.657  0.1144  0.9638 -0.0001
 3322TIP3   OH2 9929   3.519   4.736   0.755 -0.8485 -0.0685 -0.4561
 3322TIP3    H1 9930   3.423   4.736   0.754 -0.8885 -1.7797 -2.0767
 3322TIP3    H2 9931   3.541   4.678   0.828 -1.0010  0.9919  0.4583
 3323TIP3   OH2 9932   4.894   6.558   4.760  0.1408  0.0565 -0.0346
 3323TIP3    H1 9933   4.837   6.498   4.713 -1.8754  0.2809  1.9331
 3323TIP3    H2 9934   4.839   6.634   4.779  1.3823  0.7217  1.1023
 3324TIP3   OH2 9935   1.514   5.297   5.804  0.2715  0.0792 -0.0075
 3324TIP3    H1 9936   1.598   5.306   5.760 -1.0509 -2.2419 -3.4072
 3324TIP3    H2 9937   1.456   5.359   5.758 -0.4119  0.0062  0.7357
 3325TIP3   OH2 9938   0.679   1.105   2.467 -0.3658 -0.6070 -0.2040
 3325TIP3    H1 9939   0.701   1.101   2.560 -0.8356  5.2436  0.5121
 3325TIP3    H2 9940   0.584   1.117   2.465 -0.1548  1.3170 -1.1839
 3326TIP3   OH2 9941   0.528   0.985   5.118  0.3304 -0.7154 -0.0909
 3326TIP3    H1 9942   0.447   1.036   5.120 -0.2849 -1.5989 -1.2205
 3326TIP3    H2 9943   0.589   1.033   5.174 -0.7143  0.4068  0.1057
 3327TIP3   OH2 9944   6.936   3.864   1.556 -0.0747 -0.0333  0.2039
 3327TIP3    H1 9945   6.893   3.784   1.527  0.4115  0.4820 -2.1011
 3327TIP3    H2 9946   6.867   3.930   1.555 -0.0500 -0.0082  0.1682
 3328TIP3   OH2 9947   0.488   5.182   1.580 -0.2543  0.4917  0.1580
 3328TIP3    H1 9948   0.458   5.172   1.671  0.7516 -0.3258  0.4208
 3328TIP3    H2 9949   0.518   5.273   1.575 -0.8387  0.7081  0.4790
 3329TIP3   OH2 9950   4.467   4.303   4.979 -0.2406  0.0114 -0.6197
 3329TIP3    H1 9951   4.469   4.209   4.993  0.3166 -0.0583 -1.1609
 3329TIP3    H2 9952   4.547   4.323   4.930 -0.1861  0.8101 -0.2313
 3330TIP3   OH2 9953   3.677   4.380   4.557 -0.3166  0.0636 -0.1972
 3330TIP3    H1 9954   3.587   4.401   4.583 -0.6915 -0.3379 -1.1486
 3330TIP3    H2 9955   3.731   4.439   4.610 -1.0075 -1.1435  1.9680
 3331TIP3   OH2 9956   4.502   6.102   4.474  0.1996  0.2130  0.1403
 3331TIP3    H1 9957   4.507   6.032   4.408  2.8408  0.9530 -0.5748
 3331TIP3    H2 9958   4.497   6.056   4.557  3.4858 -1.0058 -0.1956
 3332TIP3   OH2 9959   1.640   4.288   0.710  0.0247 -0.1139 -0.5984
 3332TIP3    H1 9960   1.661   4.236   0.787  3.2439  1.2832 -0.3636
 3332TIP3    H2 9961   1.624   4.224   0.641 -1.3705 -1.3646  0.8087
 3333TIP3   OH2 9962   5.590   5.302   5.165 -0.2063  0.1198  0.5404
 3333TIP3    H1 9963   5.591   5.348   5.081 -0.6050  0.4108  0.6911
 3333TIP3    H2 9964   5.514   5.337   5.211 -0.5581 -0.7304  0.6382
 3334TIP3   OH2 9965   0.545   6.747   3.816  0.0829  0.2176  0.2485
 3334TIP3    H1 9966   0.529   6.657   3.844  0.2776  0.2550  0.4822
 3334TIP3    H2 9967   0.636   6.764   3.838 -0.3609  0.9764  1.6441
 3335TIP3   OH2 9968   0.739   2.813   2.295 -0.2813 -0.0394 -0.2457
 3335TIP3    H1 9969   0.772   2.884   2.240 -0.6807 -0.2028 -0.7060
 3335TIP3    H2 9970   0.704   2.749   2.233 -1.6913  0.2485  0.2089
 3336TIP3   OH2 9971   5.385   4.677   4.335 -0.0716  0.1901 -0.0309
 3336TIP3    H1 9972   5.446   4.725   4.390  0.1799  0.3034 -0.4055
 3336TIP3    H2 9973   5.440   4.637   4.268 -0.2668 -0.6687  0.3041
 3337TIP3   OH2 9974   1.621   5.398   1.608  0.4628  0.4239  0.6210
 3337TIP3    H1 9975   1.601   5.322   1.554 -0.9971 -0.0650  1.7882
 3337TIP3    H2 9976   1.554   5.462   1.586  0.2270  0.4539  1.3948
 3338TIP3   OH2 9977   3.898   2.920  -0.004 -0.5075  0.0637 -0.3797
 3338TIP3    H1 9978   3.935   2.894   0.081 -0.8020  0.7776 -0.0228
 3338TIP3    H2 9979   3.815   2.962   0.018 -0.3604  0.6889 -0.9879
 3339TIP3   OH2 9980   2.459   5.731   0.107 -0.2522  0.1709  0.5145
 3339TIP3    H1 9981   2.367   5.757   0.115 -0.0501  0.7751  0.9222
 3339TIP3    H2 9982   2.457   5.656   0.047 -0.9914  0.2789  0.3893
 3340TIP3   OH2 9983   2.553   1.219   2.879  0.2314 -0.2259 -0.1924
 3340TIP3    H1 9984   2.619   1.215   2.948 -0.0820  0.0285  0.1300
 3340TIP3    H2 9985   2.531   1.312   2.871 -0.3545 -0.3409 -0.0286
 3341TIP3   OH2 9986   0.290   5.097   2.696 -0.5924 -0.5374  0.6382
 3341TIP3    H1 9987   0.365   5.055   2.654 -1.6910 -0.8707 -1.0885
 3341TIP3    H2 9988   0.303   5.081   2.790  0.8735 -1.5930  0.2882
 3342TIP3   OH2 9989   5.097   5.968   4.411 -0.7896  0.4425 -0.4690
 3342TIP3    H1 9990   5.067   5.880   4.390 -2.0453  0.3741  1.3034
 3342TIP3    H2 9991   5.024   6.025   4.387 -1.6813  0.5020  2.0350
 3343TIP3   OH2 9992   5.549   5.104   5.895 -0.2487 -0.3277  0.5274
 3343TIP3    H1 9993   5.601   5.042   5.844 -0.0493 -0.0790  0.4251
 3343TIP3    H2 9994   5.471   5.055   5.921 -0.0352 -0.6565  0.5505
 3344TIP3   OH2 9995   2.970   1.288   3.728  0.2442  0.4447 -0.4492
 3344TIP3    H1 9996   2.990   1.195   3.739  0.9219  0.6625  0.2532
 3344TIP3    H2 9997   3.035   1.333   3.782 -0.6396  1.2878 -0.0640
 3345TIP3   OH2 9998   5.203   2.578   5.432  0.7128  0.3189  0.0045
 3345TIP3    H1 9999   5.184   2.491   5.398  1.1472  0.2653 -0.1048
 3345TIP3    H210000   5.120   2.625   5.424  0.0451 -0.5405  1.4918
 3346TIP3   OH210001   6.485   5.651   2.557  0.2076  0.1215 -0.0673
 3346TIP3    H110002   6.580   5.639   2.557  0.1334 -0.6627 -1.2883
 3346TIP3    H210003   6.452   5.587   2.621  0.2709 -2.2886 -2.2868
 3347TIP3   OH210004   3.859   1.236   2.021 -0.3020  0.1750  0.4237
 3347TIP3    H110005   3.792   1.302   2.038 -0.4201 -0.1527  1.2554
 3347TIP3    H210006   3.816   1.152   2.036 -0.6060 -0.2184 -2.1468
 3348TIP3   OH210007   2.007   4.992   3.368 -0.3250  0.4721  0.2246
 3348TIP3    H110008   1.914   4.982   3.391 -0.4249 -2.5566 -1.0735
 3348TIP3    H210009   2.023   5.086   3.377 -3.8886  1.3706 -0.8946
 3349TIP3   OH210010   0.587   0.738   5.258 -0.2327  0.2334  0.1528
 3349TIP3    H110011   0.604   0.765   5.349 -0.5239  0.6263  0.0932
 3349TIP3    H210012   0.567   0.820   5.213  0.8290  0.1643 -0.4759
 3350TIP3   OH210013   5.945   3.451   1.465  0.2705 -0.1269  0.0637
 3350TIP3    H110014   5.975   3.375   1.515 -0.4656 -0.5472 -0.1084
 3350TIP3    H210015   5.904   3.413   1.387  0.9095  0.4985 -0.5878
 3351TIP3   OH210016  -0.021   2.351   5.298  0.2473  0.0521 -0.1286
 3351TIP3    H110017   0.039   2.420   5.270 -1.8798  2.3691  0.6260
 3351TIP3    H210018  -0.007   2.343   5.392 -0.9948  1.1071  0.1829
 3352TIP3   OH210019   3.527   3.398   2.134 -0.2647  0.2351 -0.1502
 3352TIP3    H110020   3.533   3.306   2.162 -0.8008  0.8091  1.9509
 3352TIP3    H210021   3.468   3.439   2.196 -0.2899  1.9709 -1.2539
 3353TIP3   OH210022   5.472   2.675   1.230 -0.3187 -0.3827 -0.0020
 3353TIP3    H110023   5.507   2.586   1.225 -0.2765 -0.4544  1.1820
 3353TIP3    H210024   5.545   2.731   1.204 -0.6328 -0.7123 -1.7079
 3354TIP3   OH210025   5.088   5.278   4.628 -0.0276  0.0311 -0.4180
 3354TIP3    H110026   5.183   5.291   4.618  0.4254 -1.4514  1.3765
 3354TIP3    H210027   5.060   5.348   4.686  0.4686 -0.9099  1.0090
 3355TIP3   OH210028   6.521   6.151   2.676 -0.1846  0.4549 -0.1525
 3355TIP3    H110029   6.511   6.200   2.594 -0.8920  0.6746  0.0648
 3355TIP3    H210030   6.510   6.216   2.745  0.5698  0.2986  0.1280
 3356TIP3   OH210031   1.439   2.562   1.489 -0.2351  0.5721  0.2520
 3356TIP3    H110032   1.511   2.542   1.548  1.2100 -0.6954 -1.8115
 3356TIP3    H210033   1.481   2.600   1.412 -1.6298 -0.9477 -1.3426
 3357TIP3   OH210034   6.548   0.011   4.179  0.4167 -0.4015  0.1432
 3357TIP3    H110035   6.477  -0.043   4.146 -0.2691 -0.2521  1.3168
 3357TIP3    H210036   6.519   0.101   4.164  2.5194 -0.1850 -3.9074
 3358TIP3   OH210037   2.667   1.210   3.135 -0.0426  0.0456 -0.0525
 3358TIP3    H110038   2.616   1.148   3.187 -0.3992  0.9000  0.6593
 3358TIP3    H210039   2.749   1.165   3.116 -0.1214 -0.4774  0.8209
 3359TIP3   OH210040   2.969   0.020   3.562  0.4845 -0.1984 -0.0269
 3359TIP3    H110041   2.972   0.006   3.656 -0.7579  1.7236  0.3602
 3359TIP3    H210042   3.060   0.041   3.538  0.5056  1.1574  1.1084
 3360TIP3   OH210043   0.591   5.985   4.998 -0.4946  0.0003  0.3532
 3360TIP3    H110044   0.650   5.996   4.923 -1.1175  0.7806 -0.0367
 3360TIP3    H210045   0.648   5.957   5.069 -0.0072 -1.5883 -0.6077
 3361TIP3   OH210046   5.468   3.481   5.771  0.2868  0.1764  0.0406
 3361TIP3    H110047   5.504   3.406   5.818 -0.2475  0.8288  1.5655
 3361TIP3    H210048   5.531   3.551   5.785  0.6796  0.0851 -1.1980
 3362TIP3   OH210049   2.189   1.718   1.167  0.5421  0.4291 -0.5398
 3362TIP3    H110050   2.220   1.768   1.092  0.3310  0.9325 -0.2984
 3362TIP3    H210051   2.124   1.775   1.208 -1.3095 -0.8990 -1.4826
 3363TIP3   OH210052   5.300   0.927   5.823  0.1653 -0.5790 -0.3457
 3363TIP3    H110053   5.312   0.860   5.890  0.7293  0.3572  0.5132
 3363TIP3    H210054   5.368   0.992   5.841  0.0097 -0.0623 -1.5213
 3364TIP3   OH210055   3.544   4.106   2.644 -0.4388  0.0862 -0.2174
 3364TIP3    H110056   3.592   4.079   2.722 -0.3319 -1.4980 -0.7942
 3364TIP3    H210057   3.453   4.083   2.663 -0.5736  0.6141 -0.1887
 3365TIP3   OH210058   0.207   3.683   3.662  0.3569  0.0600 -0.2566
 3365TIP3    H110059   0.206   3.730   3.578  2.0348  0.0745 -0.2998
 3365TIP3    H210060   0.187   3.750   3.727  2.7985  0.9697 -0.3130
 3366TIP3   OH210061   5.680   2.812   2.037  0.0592  0.7154  0.4614
 3366TIP3    H110062   5.753   2.846   1.985 -0.3883 -0.4015 -0.9902
 3366TIP3    H210063   5.710   2.817   2.127  1.8935  0.4199 -0.0830
 3367TIP3   OH210064   6.447   2.365   5.252  0.4083 -0.2343  0.7232
 3367TIP3    H110065   6.410   2.410   5.328  1.5862  0.6007  0.8361
 3367TIP3    H210066   6.446   2.272   5.276 -3.9676 -0.6951 -0.3133
 3368TIP3   OH210067   1.376   2.645   3.674 -0.0925 -0.0183  0.0944
 3368TIP3    H110068   1.397   2.676   3.586 -1.0727 -0.8341 -0.4557
 3368TIP3    H210069   1.307   2.704   3.705 -0.3331 -0.2395 -0.0197
 3369TIP3   OH210070   0.559   4.976   2.231  0.2276  0.2643  0.6413
 3369TIP3    H110071   0.610   5.019   2.162 -0.7486 -0.9356 -0.8856
 3369TIP3    H210072   0.479   4.947   2.187  1.0370 -3.5819  1.3712
 3370TIP3   OH210073   4.213   1.492   1.616  0.2637  0.0610  0.2970
 3370TIP3    H110074   4.277   1.430   1.649 -0.3209  0.2381  1.8570
 3370TIP3    H210075   4.253   1.578   1.629  0.1685  0.1189  0.2108
 3371TIP3   OH210076   1.242   5.299   0.686  0.2398  0.2368  0.5147
 3371TIP3    H110077   1.155   5.337   0.696  0.0818 -0.0373  0.2203
 3371TIP3    H210078   1.302   5.368   0.713 -0.0505  0.5950  0.2527
 3372TIP3   OH210079   6.429   4.143   5.873 -0.1922 -0.7121 -0.4943
 3372TIP3    H110080   6.504   4.185   5.832 -0.1698 -0.3986 -0.1303
 3372TIP3    H210081   6.353   4.185   5.832 -0.1706 -0.1828 -0.0001
 3373TIP3   OH210082   1.399   1.516   4.414 -0.0855  0.3661  0.3889
 3373TIP3    H110083   1.325   1.458   4.396  1.2580 -0.6713 -2.3691
 3373TIP3    H210084   1.447   1.471   4.484 -1.1067  0.1677  0.9892
 3374TIP3   OH210085   0.924   6.062   4.977 -0.3462 -0.2263  0.2586
 3374TIP3    H110086   0.871   6.050   4.898  0.1396 -0.0173 -0.1095
 3374TIP3    H210087   0.870   6.028   5.048 -0.7678 -0.4758 -0.1741
 3375TIP3   OH210088   6.086   5.179   3.578 -0.5396 -0.1063 -0.1075
 3375TIP3    H110089   5.998   5.195   3.545 -0.0242 -0.9354 -2.0387
 3375TIP3    H210090   6.140   5.173   3.499  1.0696 -0.6139  0.9849
 3376TIP3   OH210091   2.538   4.920   0.368 -0.3604 -0.2846 -0.4440
 3376TIP3    H110092   2.501   4.996   0.323 -1.4074 -0.8558 -0.5803
 3376TIP3    H210093   2.465   4.882   0.416  0.3985 -0.5763  0.5120
 3377TIP3   OH210094   0.727   3.177   3.278  0.0746 -0.4309 -0.4814
 3377TIP3    H110095   0.753   3.101   3.225  1.5687  0.6768 -1.4296
 3377TIP3    H210096   0.751   3.153   3.367  0.2182 -1.2153 -0.7210
 3378TIP3   OH210097   6.611   3.498   0.124  0.1216  0.0658 -0.6391
 3378TIP3    H110098   6.628   3.575   0.177  1.8359  0.8755 -2.2610
 3378TIP3    H210099   6.544   3.526   0.061 -0.3525 -0.2446 -0.2815
 3379TIP3   OH210100   5.012   0.579   5.150 -0.0130 -0.1836  0.0196
 3379TIP3    H110101   5.058   0.574   5.234  1.0970  0.4657 -0.5309
 3379TIP3    H210102   4.923   0.549   5.170  0.6325 -1.5168  1.1085
 3380TIP3   OH210103   3.906   1.867   5.037  0.0771  0.6020 -1.0304
 3380TIP3    H110104   3.946   1.833   5.116  0.3652 -0.0082 -1.4320
 3380TIP3    H210105   3.979   1.898   4.984 -0.0551  0.4356 -1.3169
 3381TIP3   OH210106   6.883   4.378   0.128  0.1854 -0.1703  0.0493
 3381TIP3    H110107   6.858   4.286   0.140 -0.9441  0.2391  1.0076
 3381TIP3    H210108   6.973   4.374   0.094  0.1348 -1.6231  0.0136
 3382TIP3   OH210109   3.916   6.204   5.694 -0.0374 -0.5616  0.2396
 3382TIP3    H110110   3.995   6.200   5.748  0.3327  0.1419 -0.2344
 3382TIP3    H210111   3.847   6.168   5.750  0.7229 -1.7800  0.4260
 3383TIP3   OH210112   1.100   0.508   2.450 -0.3706 -0.3153  0.9855
 3383TIP3    H110113   1.123   0.578   2.510  0.9888 -0.8872  1.1735
 3383TIP3    H210114   1.112   0.546   2.363 -4.4079  1.2059  0.8993
 3384TIP3   OH210115   5.759   6.255   5.095 -0.6339  0.2475  0.5107
 3384TIP3    H110116   5.761   6.160   5.080 -0.8082  0.5437 -1.7602
 3384TIP3    H210117   5.851   6.281   5.097 -0.5907  0.1857 -0.2413
 3385TIP3   OH210118   1.840   2.655   5.191 -0.4028  0.4544 -0.2323
 3385TIP3    H110119   1.833   2.716   5.117 -1.9886  0.7662  0.1389
 3385TIP3    H210120   1.772   2.682   5.251  0.1473 -0.4898  0.8593
 3386TIP3   OH210121   4.586   1.715   5.786  0.1154 -0.0427  0.0414
 3386TIP3    H110122   4.527   1.683   5.717  1.1938 -0.1205 -0.8802
 3386TIP3    H210123   4.531   1.719   5.864 -0.2119 -3.7948  0.1736
 3387TIP3   OH210124   1.782   5.120   2.166  0.0036  0.6263  0.4097
 3387TIP3    H110125   1.782   5.202   2.117  2.5150  1.6875  2.0034
 3387TIP3    H210126   1.718   5.065   2.121 -0.3587  2.7685 -1.8740
 3388TIP3   OH210127   2.173   0.085   3.477 -0.1037 -0.2155  0.0792
 3388TIP3    H110128   2.223   0.028   3.536  0.8814  0.1073 -0.4291
 3388TIP3    H210129   2.162   0.167   3.525  0.1988 -0.1492  0.0322
 3389TIP3   OH210130   5.269   2.703   2.755 -0.0368 -0.4552 -0.5388
 3389TIP3    H110131   5.186   2.714   2.801  0.7124  0.0875  0.7105
 3389TIP3    H210132   5.251   2.738   2.667 -1.0833 -0.1872 -0.2415
 3390TIP3   OH210133   1.733   0.241   2.533 -0.2863  0.0690  0.0734
 3390TIP3    H110134   1.727   0.154   2.572  0.8605  0.3046  0.8385
 3390TIP3    H210135   1.679   0.296   2.589  1.3465  0.4044  1.4359
 3391TIP3   OH210136   3.901   1.035   5.000  0.1285  0.7705  0.3343
 3391TIP3    H110137   3.856   0.952   4.986  0.4786  0.5902  0.2679
 3391TIP3    H210138   3.961   1.017   5.073  1.6011  0.4041 -0.9104
 3392TIP3   OH210139   3.286   1.461   2.295 -0.1400  0.1499  0.1975
 3392TIP3    H110140   3.257   1.533   2.240 -2.0045 -0.6137  0.0789
 3392TIP3    H210141   3.298   1.500   2.382  0.7276  0.9472 -0.2737
 3393TIP3   OH210142   5.364   5.115   1.112  0.7403 -0.1464 -0.0537
 3393TIP3    H110143   5.373   5.200   1.153  1.3928 -0.8912  1.4026
 3393TIP3    H210144   5.335   5.057   1.182  0.1032 -1.0939 -1.0589
 3394TIP3   OH210145   3.468   3.314   4.132 -0.2286  0.1463 -0.6989
 3394TIP3    H110146   3.509   3.271   4.057  0.2586  1.3453 -1.1450
 3394TIP3    H210147   3.376   3.290   4.126  0.3970 -3.2605  0.7725
 3395TIP3   OH210148   5.011   5.109   2.050 -0.3949  0.3177 -0.0445
 3395TIP3    H110149   5.014   5.118   2.145  0.2778 -0.4134  0.0203
 3395TIP3    H210150   5.101   5.128   2.022 -0.4131 -0.1770 -0.4531
 3396TIP3   OH210151   6.617   5.056   4.403  0.0340 -0.2417  0.3485
 3396TIP3    H110152   6.612   5.144   4.365  1.5981 -0.4619 -0.4778
 3396TIP3    H210153   6.597   5.068   4.496 -1.4104  0.7123 -0.0623
 3397TIP3   OH210154   0.668   1.613   4.907  0.2131  0.1200  0.2049
 3397TIP3    H110155   0.665   1.527   4.949  0.3999 -0.5205 -1.0487
 3397TIP3    H210156   0.682   1.674   4.980  0.9298 -0.9791  1.0283
 3398TIP3   OH210157   5.441   5.235   0.663 -0.0813 -0.5892 -0.4602
 3398TIP3    H110158   5.519   5.281   0.692 -0.2565  0.5080 -1.6536
 3398TIP3    H210159   5.368   5.287   0.698 -0.2741 -0.7510 -0.6186
 3399TIP3   OH210160   0.587   4.341   2.000 -0.3818  0.3945  0.1780
 3399TIP3    H110161   0.640   4.266   2.027 -0.1948  0.3116 -0.4027
 3399TIP3    H210162   0.649   4.402   1.962 -0.9835 -1.2898 -4.1265
 3400TIP3   OH210163   0.146   5.066   5.768 -0.4077 -0.1719  0.0161
 3400TIP3    H110164   0.169   4.979   5.799 -2.7344 -1.0509 -0.5420
 3400TIP3    H210165   0.223   5.095   5.718  0.2480 -2.0906 -0.1498
 3401TIP3   OH210166   0.711   2.351   2.282 -0.4250  0.7899 -0.0181
 3401TIP3    H110167   0.744   2.353   2.372  0.8469 -0.9815 -0.4158
 3401TIP3    H210168   0.622   2.387   2.289 -0.2721  0.8979  1.8998
 3402TIP3   OH210169   3.575   4.334   1.502 -0.3409  0.0369 -0.1356
 3402TIP3    H110170   3.671   4.340   1.502 -0.2075 -0.7228  2.8202
 3402TIP3    H210171   3.557   4.246   1.468 -0.1072  0.5692 -1.7413
 3403TIP3   OH210172   6.607   0.807   1.725  0.6416 -0.2377 -0.5214
 3403TIP3    H110173   6.637   0.898   1.723  0.2567 -0.1223 -2.0774
 3403TIP3    H210174   6.683   0.755   1.701  0.0021 -0.0229 -3.3405
 3404TIP3   OH210175   0.888   3.554   2.895 -0.0972  0.3872 -0.0210
 3404TIP3    H110176   0.979   3.582   2.905 -0.1630 -0.1232  2.8837
 3404TIP3    H210177   0.870   3.502   2.974 -2.7666  0.0384 -0.7614
 3405TIP3   OH210178   1.219   4.764   4.199 -0.0543  0.4240  0.1819
 3405TIP3    H110179   1.313   4.757   4.180 -0.0788 -0.5913  0.3897
 3405TIP3    H210180   1.205   4.708   4.275 -0.8553  0.4715  0.0811
 3406TIP3   OH210181   1.825   6.808   4.690 -0.0959  0.7598 -0.0417
 3406TIP3    H110182   1.811   6.723   4.731  1.5715  0.6912  0.4540
 3406TIP3    H210183   1.741   6.829   4.649 -0.2449 -1.6501 -1.1610
 3407TIP3   OH210184   4.015   6.346   1.538 -0.1340 -0.2543 -0.1239
 3407TIP3    H110185   3.938   6.403   1.533 -0.8728 -1.0363  1.5969
 3407TIP3    H210186   4.030   6.333   1.631  2.1216 -0.1471 -0.4021
 3408TIP3   OH210187   1.378   4.785   5.320 -0.6792  0.0436  0.4581
 3408TIP3    H110188   1.398   4.866   5.367 -1.4255  2.1541 -2.5667
 3408TIP3    H210189   1.461   4.738   5.315 -0.2449  0.5413  2.3233
 3409TIP3   OH210190   5.731   1.961   0.796 -0.3250  0.0405 -0.1433
 3409TIP3    H110191   5.802   1.897   0.801 -1.5335 -1.3199  0.3340
 3409TIP3    H210192   5.767   2.033   0.744  1.6445 -0.2523  0.7290
 3410TIP3   OH210193   3.617   1.458   1.373  0.1598  0.4365 -0.6290
 3410TIP3    H110194   3.618   1.412   1.457 -2.7376  2.1888  0.5180
 3410TIP3    H210195   3.542   1.422   1.327  1.3329 -0.0411 -2.2690
 3411TIP3   OH210196   2.572   1.113   4.050  0.2177  0.3082  0.4621
 3411TIP3    H110197   2.594   1.039   3.993  0.7290  1.3763 -0.7793
 3411TIP3    H210198   2.647   1.171   4.044 -1.1135  2.0385 -0.4736
 3412TIP3   OH210199   5.031   4.100   2.759  0.0966 -0.0155  0.4837
 3412TIP3    H110200   5.053   4.189   2.788 -1.4905  0.9434 -1.1075
 3412TIP3    H210201   4.948   4.109   2.714  0.3952 -2.1557 -0.6091
 3413TIP3   OH210202   6.065   0.007   3.012 -0.6064 -0.3262  0.5577
 3413TIP3    H110203   5.987  -0.048   3.017 -0.9542  0.1864  0.8706
 3413TIP3    H210204   6.057   0.068   3.085 -0.0557 -0.0790  0.4206
 3414TIP3   OH210205   2.812   1.440   3.554  0.3566  0.2008 -0.6228
 3414TIP3    H110206   2.859   1.381   3.614  0.3398 -2.1656 -2.7723
 3414TIP3    H210207   2.729   1.457   3.598  1.1191  0.2249  0.9084
 3415TIP3   OH210208   0.323   5.839   4.326  0.3015  0.1406  0.0180
 3415TIP3    H110209   0.360   5.777   4.264  0.1235  0.8933 -0.8761
 3415TIP3    H210210   0.339   5.800   4.412 -0.8131 -1.6766 -0.5452
 3416TIP3   OH210211   5.202   5.455   1.362 -0.4564  0.0027 -0.1709
 3416TIP3    H110212   5.261   5.440   1.288 -0.0071  1.3455 -0.1176
 3416TIP3    H210213   5.116   5.432   1.329 -0.0231 -1.1641 -0.5249
 3417TIP3   OH210214   4.144   0.511   0.102 -0.3809  0.1260  0.2361
 3417TIP3    H110215   4.097   0.592   0.082 -0.3386 -0.1339 -1.0020
 3417TIP3    H210216   4.084   0.461   0.157 -0.7227  0.6738  0.3649
 3418TIP3   OH210217   5.974   5.407   0.136 -0.0684 -0.3469  0.1891
 3418TIP3    H110218   5.906   5.380   0.074 -0.4446  0.7044  0.1175
 3418TIP3    H210219   6.046   5.437   0.081  0.0127 -0.4148  0.2591
 3419TIP3   OH210220   2.411   1.021   1.224  0.7020 -0.6177 -0.2162
 3419TIP3    H110221   2.373   0.985   1.304  0.1683  0.1237 -0.1172
 3419TIP3    H210222   2.466   1.093   1.255 -0.9294  0.8786 -0.5824
 3420TIP3   OH210223   7.247   0.634   0.071 -0.5654  0.1284  0.2689
 3420TIP3    H110224   7.187   0.585   0.015 -1.7333  0.8371  0.8622
 3420TIP3    H210225   7.191   0.669   0.141  0.0252  2.9711 -0.5585
 3421TIP3   OH210226   1.998   5.419   3.180 -0.5217 -0.3567 -0.2115
 3421TIP3    H110227   1.992   5.459   3.094 -0.4247  2.5179  0.9942
 3421TIP3    H210228   1.917   5.370   3.190 -2.1925  2.1260 -0.6919
 3422TIP3   OH210229   5.018   6.165   2.201 -0.1722  0.6346 -0.3641
 3422TIP3    H110230   5.045   6.073   2.197  0.4098  0.7563  0.5763
 3422TIP3    H210231   4.933   6.166   2.156 -1.5212 -0.8774  1.9143
 3423TIP3   OH210232   0.814   1.894   4.342  0.5145  0.8231 -0.1427
 3423TIP3    H110233   0.802   1.957   4.271  1.0367  2.0629  0.8499
 3423TIP3    H210234   0.779   1.812   4.306 -1.4143  1.9459 -0.9930
 3424TIP3   OH210235   3.586   5.295   5.683 -0.4638 -0.2056  0.4389
 3424TIP3    H110236   3.615   5.247   5.761  0.8302  0.4518  0.4037
 3424TIP3    H210237   3.646   5.267   5.614  0.6111  1.6915  0.5170
 3425TIP3   OH210238   3.733   3.142   5.560 -0.1036  0.2186  0.2458
 3425TIP3    H110239   3.648   3.104   5.536  0.2802  0.2445 -1.2595
 3425TIP3    H210240   3.717   3.236   5.560  0.2911  0.3263 -1.7386
 3426TIP3   OH210241   5.126   1.809   0.451  0.3336  0.0199  0.1581
 3426TIP3    H110242   5.213   1.808   0.491  0.6075  0.1908 -0.4279
 3426TIP3    H210243   5.079   1.738   0.495  1.1058 -0.7606 -0.2334
 3427TIP3   OH210244   1.294   6.101   5.283  0.2976  0.6282 -0.5646
 3427TIP3    H110245   1.265   6.161   5.214  0.2126  0.4000 -0.7304
 3427TIP3    H210246   1.279   6.014   5.246 -1.2371  0.4815  0.3601
 3428TIP3   OH210247   5.688   5.377   0.699 -0.1049  1.2549 -0.0280
 3428TIP3    H110248   5.687   5.450   0.761 -1.5051  1.1528  0.0890
 3428TIP3    H210249   5.701   5.419   0.614  0.6545  1.4909  0.1919
 3429TIP3   OH210250   0.318   3.197   4.646  0.3359  0.0546  0.1078
 3429TIP3    H110251   0.288   3.124   4.700  0.6078 -0.2258 -0.1177
 3429TIP3    H210252   0.405   3.218   4.679  0.9556 -0.8114 -0.8848
 3430TIP3   OH210253   4.686   6.834   3.004 -0.0590 -0.4277 -0.0244
 3430TIP3    H110254   4.608   6.782   3.025  0.0313 -1.2735 -1.6599
 3430TIP3    H210255   4.759   6.784   3.041 -0.1848 -0.1257  0.6562
 3431TIP3   OH210256   2.903   6.128   1.668  0.0697 -0.1587 -0.1839
 3431TIP3    H110257   2.853   6.121   1.749  0.5402 -0.1895  0.1077
 3431TIP3    H210258   2.974   6.065   1.678 -1.6879 -2.6473 -1.9775
 3432TIP3   OH210259   0.717   2.528   5.281 -0.1449  0.1278  0.7970
 3432TIP3    H110260   0.769   2.480   5.217 -0.2836 -0.5713  1.2009
 3432TIP3    H210261   0.782   2.567   5.339  0.0006  1.1728 -0.0372
 3433TIP3   OH210262   1.845   2.939   2.882  0.1723  0.0754 -0.1356
 3433TIP3    H110263   1.773   2.924   2.944 -0.2838  0.4857 -0.5617
 3433TIP3    H210264   1.903   2.865   2.896 -0.7075 -0.6746 -0.3246
 3434TIP3   OH210265   1.899   4.398   4.870  0.0356  0.2755 -0.5049
 3434TIP3    H110266   1.918   4.343   4.794 -0.7104  0.5449 -0.8891
 3434TIP3    H210267   1.844   4.468   4.837  1.0679  1.3374 -0.0339
 3435TIP3   OH210268   0.889   1.484   3.284  0.3055 -0.3608  0.1885
 3435TIP3    H110269   0.945   1.557   3.313 -2.3244  1.6492  0.6069
 3435TIP3    H210270   0.829   1.470   3.357 -1.9804  0.0210 -1.5171
 3436TIP3   OH210271   0.522   3.228   1.489 -0.7404  0.1063  0.2419
 3436TIP3    H110272   0.545   3.249   1.398 -0.2801 -3.6509 -0.6770
 3436TIP3    H210273   0.605   3.235   1.537 -0.8275  1.3231  0.2488
 3437TIP3   OH210274   1.503   4.164   1.294  0.2380 -0.6229 -0.1218
 3437TIP3    H110275   1.516   4.087   1.349  2.2460 -0.8347 -0.8117
 3437TIP3    H210276   1.448   4.222   1.346  2.1159 -0.7622  2.1832
 3438TIP3   OH210277   1.569   3.342   4.940  0.7457  0.3267  0.0267
 3438TIP3    H110278   1.634   3.347   4.870  1.0678 -0.6491  0.2521
 3438TIP3    H210279   1.603   3.277   5.001 -0.1888  0.1840  0.4150
 3439TIP3   OH210280   3.214   2.556   2.484  0.7775 -0.7245  0.4871
 3439TIP3    H110281   3.215   2.650   2.506  0.0557 -0.2129 -1.4296
 3439TIP3    H210282   3.307   2.532   2.478  0.9735  0.0159  0.4357
 3440TIP3   OH210283   6.961   5.082   4.365 -1.2509 -0.0582  0.0729
 3440TIP3    H110284   6.960   4.990   4.341  4.8312 -0.2508 -1.0178
 3440TIP3    H210285   7.035   5.091   4.424 -0.5495  4.3219 -1.0951
 3441TIP3   OH210286   5.795   2.774   3.838  0.3732  0.4147  0.3067
 3441TIP3    H110287   5.812   2.850   3.894  1.0440  1.2135 -0.9203
 3441TIP3    H210288   5.846   2.704   3.876 -0.4471  0.4942  1.6079
 3442TIP3   OH210289   5.883   2.631   5.514 -0.7785  0.0525 -0.1216
 3442TIP3    H110290   5.792   2.659   5.519 -1.2016 -0.7655 -2.2016
 3442TIP3    H210291   5.923   2.692   5.452 -0.4554 -0.8840 -0.8496
 3443TIP3   OH210292   5.867   1.506   1.821 -0.5763 -0.3512  0.1083
 3443TIP3    H110293   5.938   1.565   1.795 -0.9656 -0.2720 -0.8122
 3443TIP3    H210294   5.891   1.477   1.909 -0.8680  1.9528  1.0029
 3444TIP3   OH210295   0.535   6.785   0.273 -0.1703 -0.5750 -0.5204
 3444TIP3    H110296   0.486   6.823   0.346 -0.4374  0.2821 -1.1251
 3444TIP3    H210297   0.627   6.799   0.296 -0.2629  0.1800 -0.5859
 3445TIP3   OH210298   1.365   4.582   1.017 -0.1761 -0.1902  0.0796
 3445TIP3    H110299   1.362   4.583   0.922  1.2306  0.8017  0.0012
 3445TIP3    H210300   1.306   4.653   1.044  0.7809  0.7409 -0.1686
 3446TIP3   OH210301   5.942   6.678   4.802  0.3128  0.0763  0.1101
 3446TIP3    H110302   6.033   6.684   4.830  0.6896 -1.7217 -0.5738
 3446TIP3    H210303   5.904   6.764   4.822  1.9663  0.6275  1.0224
 3447TIP3   OH210304   6.690   4.886   1.394  0.5608  0.1164  0.3006
 3447TIP3    H110305   6.644   4.970   1.396  1.2039  0.4788  2.3311
 3447TIP3    H210306   6.624   4.822   1.419  0.5229  0.2890  0.6535
 3448TIP3   OH210307   0.983   6.707   3.015 -0.5003 -0.3975 -0.1177
 3448TIP3    H110308   0.926   6.745   2.949 -0.0727  0.6252  0.0801
 3448TIP3    H210309   1.059   6.676   2.967 -0.6216 -0.5339 -0.2209
 3449TIP3   OH210310   1.065   4.481   2.403 -0.5511  0.2162 -0.3564
 3449TIP3    H110311   1.030   4.557   2.356  0.4152  0.1605 -1.2142
 3449TIP3    H210312   1.074   4.510   2.494 -1.5593  0.6438 -0.3894
 3450TIP3   OH210313   1.531   5.814   2.538  0.1651  0.2445 -0.3825
 3450TIP3    H110314   1.454   5.869   2.548 -0.1838 -0.3655  0.3358
 3450TIP3    H210315   1.500   5.736   2.493  0.0993 -0.5235  0.9416
 3451TIP3   OH210316   6.595   5.958   4.118  0.1995 -0.8836  0.1890
 3451TIP3    H110317   6.557   5.908   4.046 -1.0946 -1.1515  1.0134
 3451TIP3    H210318   6.631   5.892   4.177  0.1898 -0.7342  0.3635
 3452TIP3   OH210319   3.273   3.689   3.352  0.1948  0.0680  0.2081
 3452TIP3    H110320   3.193   3.740   3.343 -0.1875 -0.1688  1.8339
 3452TIP3    H210321   3.303   3.708   3.441  1.8316 -0.0242 -0.2956
 3453TIP3   OH210322   1.048   4.951   0.861 -0.6325 -0.2852  0.4724
 3453TIP3    H110323   1.017   4.959   0.771  0.5918  0.6229  0.1117
 3453TIP3    H210324   0.970   4.966   0.914 -1.0655  0.7787 -0.4262
 3454TIP3   OH210325   0.597   1.004   3.899 -0.1092  0.3279 -0.7370
 3454TIP3    H110326   0.519   0.995   3.954  0.7744  0.3952  0.5900
 3454TIP3    H210327   0.668   1.020   3.962  1.1096 -0.5777 -1.8399
 3455TIP3   OH210328   1.084   6.448   5.609  0.1923  0.2036 -0.2687
 3455TIP3    H110329   0.994   6.415   5.610  0.6677 -1.1705  0.9177
 3455TIP3    H210330   1.106   6.459   5.702  0.9210  1.5058 -0.5742
 3456TIP3   OH210331   1.427   3.697   0.210 -0.1951  0.1296 -0.1945
 3456TIP3    H110332   1.486   3.663   0.277 -1.5955 -0.5466  0.7432
 3456TIP3    H210333   1.474   3.771   0.172  0.6507  0.5306  1.5466
 3457TIP3   OH210334   3.763   4.815   1.401 -0.1152  0.0007 -0.7013
 3457TIP3    H110335   3.778   4.735   1.452 -0.4518  0.7105  0.5693
 3457TIP3    H210336   3.674   4.842   1.424 -1.3033 -1.0104 -3.6600
 3458TIP3   OH210337   4.969   3.282   4.461  0.3008  0.2390  0.1376
 3458TIP3    H110338   4.938   3.227   4.389 -0.9537  0.2725  0.6336
 3458TIP3    H210339   5.021   3.350   4.419  1.2608 -0.8706 -0.5570
 3459TIP3   OH210340   6.529   5.179   5.679  0.4095  0.5843  0.0224
 3459TIP3    H110341   6.609   5.209   5.635 -0.4710  2.7363 -0.2638
 3459TIP3    H210342   6.472   5.256   5.679 -1.0467 -0.4264  1.6784
 3460TIP3   OH210343   6.282   6.707   0.485 -0.1317 -0.0997 -0.3595
 3460TIP3    H110344   6.349   6.749   0.539 -1.0254  0.8496  0.0474
 3460TIP3    H210345   6.235   6.649   0.544  1.1462 -1.7824 -0.9377
 3461TIP3   OH210346   0.859   0.684   0.518  0.7909 -0.4462 -0.1220
 3461TIP3    H110347   0.776   0.637   0.531  0.5543  0.3934  1.5449
 3461TIP3    H210348   0.914   0.656   0.590  0.5121  2.0645  1.1740
 3462TIP3   OH210349   0.034   6.166   1.089  0.0868 -0.4407  0.7145
 3462TIP3    H110350   0.063   6.249   1.050  1.1714 -0.2290  1.8882
 3462TIP3    H210351  -0.042   6.140   1.038 -1.7691  2.4744  1.7234
 3463TIP3   OH210352   6.448   1.694   2.146 -0.0247  0.8464 -0.1139
 3463TIP3    H110353   6.483   1.770   2.193  1.4053  0.5617 -0.6675
 3463TIP3    H210354   6.513   1.625   2.159 -0.7149  0.0793 -0.6228
 3464TIP3   OH210355   4.084   2.442   0.202 -0.1790  0.5216  0.5725
 3464TIP3    H110356   4.161   2.488   0.169 -0.6722  1.3459  0.5500
 3464TIP3    H210357   4.060   2.382   0.132 -0.0280  0.8334  0.2529
 3465TIP3   OH210358   4.196   2.346   1.928 -0.0790  0.1664 -0.1726
 3465TIP3    H110359   4.252   2.420   1.947 -0.0765  0.6095 -1.7478
 3465TIP3    H210360   4.256   2.273   1.912  0.0313  0.4253 -0.9859
 3466TIP3   OH210361   1.418   3.009   2.512 -0.4124  0.6400  0.2141
 3466TIP3    H110362   1.459   3.068   2.575  0.5779  0.1567  0.0309
 3466TIP3    H210363   1.395   3.065   2.438 -1.0408  1.0997  0.7461
 3467TIP3   OH210364   6.357   1.633   3.030 -0.8578 -0.5540  0.0919
 3467TIP3    H110365   6.313   1.700   3.082 -0.5684 -0.9753  0.8957
 3467TIP3    H210366   6.450   1.643   3.051 -0.7213 -0.6675 -0.4266
 3468TIP3   OH210367   2.464   3.608   3.101 -0.2527  0.1536 -0.3906
 3468TIP3    H110368   2.460   3.609   3.006  0.5587 -0.6846 -0.4409
 3468TIP3    H210369   2.442   3.518   3.125  2.1460 -0.3735  0.0659
 3469TIP3   OH210370   6.843   3.134   4.958 -0.0314 -0.3016 -0.0432
 3469TIP3    H110371   6.777   3.081   5.001  0.0149  0.4096  0.9443
 3469TIP3    H210372   6.827   3.223   4.990  1.6297 -0.1760  0.5568
 3470TIP3   OH210373   2.779   2.416   4.786  0.5132  0.2767 -0.1003
 3470TIP3    H110374   2.818   2.332   4.760  1.2280  0.2022  1.1137
 3470TIP3    H210375   2.806   2.477   4.717  0.3998 -0.3850 -0.7412
 3471TIP3   OH210376   2.714   5.816  -0.018  0.3344 -0.4074 -0.2983
 3471TIP3    H110377   2.779   5.846   0.046  0.3147  0.3158 -0.5999
 3471TIP3    H210378   2.643   5.780   0.034  0.6976 -0.6153  0.0593
 3472TIP3   OH210379   5.799   3.989   2.135 -0.1595  0.2326  0.5310
 3472TIP3    H110380   5.753   3.952   2.060  2.2399 -2.4038  0.1809
 3472TIP3    H210381   5.838   4.070   2.102 -0.6339  0.0316 -0.5492
 3473TIP3   OH210382   5.890   2.894   2.831  0.5570 -0.4395 -0.0181
 3473TIP3    H110383   5.848   2.980   2.839 -0.5561 -0.9792  0.2395
 3473TIP3    H210384   5.885   2.857   2.919  2.5854 -0.1026  0.2778
 3474TIP3   OH210385   3.019   3.114   3.390  0.1611 -0.5705 -0.1320
 3474TIP3    H110386   3.050   3.157   3.310 -0.3509  1.0784  0.5084
 3474TIP3    H210387   3.091   3.056   3.414  1.5093  0.9256 -0.3326
 3475TIP3   OH210388   4.871   3.806   5.416  0.1345  0.2105  0.0245
 3475TIP3    H110389   4.857   3.784   5.508  0.3649  0.2948  0.0786
 3475TIP3    H210390   4.797   3.766   5.370 -0.5021  0.9742  0.3637
 3476TIP3   OH210391   2.510   1.944   5.602  0.0020  0.8276  0.0960
 3476TIP3    H110392   2.428   1.925   5.646  0.3130  2.2444  1.3891
 3476TIP3    H210393   2.557   2.001   5.662  2.8366 -1.5202  0.3431
 3477TIP3   OH210394   4.638   6.654   2.454  0.1891  0.5002 -0.4653
 3477TIP3    H110395   4.551   6.694   2.454  0.3362  1.0920  2.7677
 3477TIP3    H210396   4.633   6.587   2.523  2.1711  0.3120 -0.4636
 3478TIP3   OH210397   0.081   4.105   3.218 -0.0772 -0.1842 -0.3153
 3478TIP3    H110398   0.013   4.167   3.244 -0.5294  0.8557 -3.4469
 3478TIP3    H210399   0.158   4.129   3.270 -0.3860  2.7882 -1.0652
 3479TIP3   OH210400   2.778   4.802   4.483  0.2375  0.0387  0.0890
 3479TIP3    H110401   2.707   4.780   4.544 -0.3603 -1.0539 -0.9681
 3479TIP3    H210402   2.855   4.759   4.521  0.1797  0.5571  0.8187
 3480TIP3   OH210403   1.457   2.664   4.074 -0.6746  0.4051 -0.2042
 3480TIP3    H110404   1.471   2.685   3.982 -0.8303  0.5164 -0.2017
 3480TIP3    H210405   1.364   2.643   4.080 -1.0632  2.1042  0.2601
 3481TIP3   OH210406   6.981   4.396   2.369  0.1430  0.6998 -0.0826
 3481TIP3    H110407   6.961   4.469   2.310  0.0705  0.1885 -0.6956
 3481TIP3    H210408   6.903   4.389   2.424 -1.0372 -0.6406 -1.8082
 3482TIP3   OH210409   5.792   1.206   3.937  0.0393  0.3374  0.3740
 3482TIP3    H110410   5.773   1.295   3.966 -0.5699  1.4473 -3.0558
 3482TIP3    H210411   5.745   1.196   3.854  2.7313 -2.0133 -1.0746
 3483TIP3   OH210412   1.005   0.244   1.834  0.1838 -0.5641  0.2573
 3483TIP3    H110413   1.029   0.190   1.910 -0.5843 -1.2828 -0.0032
 3483TIP3    H210414   1.010   0.334   1.867 -1.7954 -0.9133  1.6688
 3484TIP3   OH210415   0.803   0.581   4.566 -0.1195  0.7443 -0.1645
 3484TIP3    H110416   0.838   0.498   4.535 -0.0544  0.8054 -0.2561
 3484TIP3    H210417   0.777   0.564   4.656  0.3056  0.7418 -0.0389
 3485TIP3   OH210418   0.639   0.078   3.204 -0.3453  0.1066 -0.2588
 3485TIP3    H110419   0.606   0.058   3.291  0.7016 -0.5041  0.0111
 3485TIP3    H210420   0.570   0.130   3.163 -1.1932 -0.3044  0.6358
 3486TIP3   OH210421   6.452   5.933   4.903 -0.1262  0.0737 -0.2531
 3486TIP3    H110422   6.453   5.869   4.832  0.7082 -0.9484  0.6464
 3486TIP3    H210423   6.512   5.898   4.968 -0.6172  1.1478  0.8252
 3487TIP3   OH210424   7.075   5.838   1.509  0.4370 -0.2535  0.1508
 3487TIP3    H110425   7.015   5.847   1.583 -0.2474 -1.2214 -0.2538
 3487TIP3    H210426   7.082   5.744   1.496  0.1942 -0.1008 -1.2765
 3488TIP3   OH210427   0.489   2.628   5.152  0.0659 -0.1666 -0.0425
 3488TIP3    H110428   0.425   2.691   5.120 -0.0915  0.5416  1.5806
 3488TIP3    H210429   0.573   2.660   5.120  0.0217  1.0617  0.9858
 3489TIP3   OH210430   1.960   2.302   5.565 -0.1914  0.5138 -0.8102
 3489TIP3    H110431   1.899   2.347   5.507 -1.4820  0.4550  0.4503
 3489TIP3    H210432   2.000   2.371   5.617  0.5073  0.5132 -1.3409
 3490TIP3   OH210433   3.379   0.921   5.447 -0.2061 -0.0591  0.2008
 3490TIP3    H110434   3.321   0.930   5.523 -1.0530  1.1361 -0.5594
 3490TIP3    H210435   3.328   0.955   5.374  1.2715  0.5056 -0.6018
 3491TIP3   OH210436   3.470   3.449   5.587  0.2590  0.2004 -0.2474
 3491TIP3    H110437   3.433   3.525   5.543  1.7584  0.9067 -0.3476
 3491TIP3    H210438   3.432   3.373   5.542 -3.0085  0.7863  1.2842
 3492TIP3   OH210439   2.897   2.532   3.445 -0.0008  0.1191 -0.3909
 3492TIP3    H110440   2.812   2.525   3.403 -0.5219  0.2963  0.6121
 3492TIP3    H210441   2.912   2.627   3.453  0.3144  0.0904 -0.5889
 3493TIP3   OH210442   5.717   0.530   3.794  0.4727  0.0324  0.4592
 3493TIP3    H110443   5.749   0.447   3.829  2.3169  0.1681 -0.7786
 3493TIP3    H210444   5.790   0.565   3.743 -1.3913  0.7233 -1.9655
 3494TIP3   OH210445   4.056   2.283   5.172  0.0624 -0.1350  0.1756
 3494TIP3    H110446   3.981   2.339   5.152  0.2417 -0.5927 -2.0898
 3494TIP3    H210447   4.077   2.241   5.089  2.0707 -0.9676  1.0351
 3495TIP3   OH210448   6.778   4.561   2.988  0.1752 -0.2983 -0.1834
 3495TIP3    H110449   6.847   4.556   2.923  0.8885 -2.0522  0.6581
 3495TIP3    H210450   6.710   4.502   2.955  1.1845 -2.4349  1.3095
 3496TIP3   OH210451   4.181   5.889   2.075  0.2018 -0.0895  0.1363
 3496TIP3    H110452   4.252   5.847   2.125 -0.6548  0.1757  1.6187
 3496TIP3    H210453   4.176   5.837   1.994  0.2273 -1.9033  1.2283
 3497TIP3   OH210454   4.048   1.698   4.811 -0.0172 -0.2111  0.7868
 3497TIP3    H110455   3.987   1.681   4.739  0.3008 -0.3627  0.5528
 3497TIP3    H210456   4.042   1.620   4.867  1.3303 -1.0656 -0.2081
 3498TIP3   OH210457   1.274   5.098   0.214  0.2011 -0.2790  0.3970
 3498TIP3    H110458   1.233   5.070   0.296 -0.9151 -0.3636 -0.1605
 3498TIP3    H210459   1.281   5.193   0.222  0.1435 -0.2920  0.6091
 3499TIP3   OH210460   3.767   3.344   1.891  0.1352 -0.0372 -0.4292
 3499TIP3    H110461   3.737   3.422   1.845  0.4981  0.1087 -0.4189
 3499TIP3    H210462   3.727   3.350   1.978  2.0040  1.3441  0.3956
 3500TIP3   OH210463   7.020   0.462   2.662 -0.5035 -0.0570 -0.2757
 3500TIP3    H110464   7.069   0.399   2.715 -0.2200  0.2359 -0.1897
 3500TIP3    H210465   7.043   0.439   2.571 -1.1833 -0.7166 -0.2874
 3501TIP3   OH210466   6.188   1.089   0.284 -0.1701 -0.2786 -0.1716
 3501TIP3    H110467   6.216   1.174   0.249 -2.5338  0.7136  0.0857
 3501TIP3    H210468   6.269   1.044   0.307  1.1872  2.7103  1.5438
 3502TIP3   OH210469   0.788   0.365   3.758  0.0398 -0.5336 -0.2112
 3502TIP3    H110470   0.757   0.442   3.805  0.6083 -0.2921 -0.2224
 3502TIP3    H210471   0.715   0.304   3.761 -0.1631 -0.2646  0.4064
 3503TIP3   OH210472   3.636   5.025   2.733 -0.7332  0.9808 -0.1612
 3503TIP3    H110473   3.677   4.963   2.672 -0.7243  1.4818 -0.6801
 3503TIP3    H210474   3.586   5.084   2.676  0.6615  2.5437  0.1240
 3504TIP3   OH210475   6.912   2.625   4.066  0.0768 -0.2793  0.5596
 3504TIP3    H110476   6.919   2.718   4.043  3.0450 -0.4630  0.3033
 3504TIP3    H210477   6.904   2.580   3.981 -0.3454 -0.3316  0.6243
 3505TIP3   OH210478   4.339   6.272   3.910  0.7587 -0.1709 -0.0458
 3505TIP3    H110479   4.307   6.207   3.847  0.6363 -0.5551  0.4018
 3505TIP3    H210480   4.265   6.287   3.969  0.9646 -0.0447  0.1846
 3506TIP3   OH210481   6.268   2.727   5.093 -0.6252  0.5138  0.3070
 3506TIP3    H110482   6.338   2.733   5.158 -1.9319  0.5211  1.7774
 3506TIP3    H210483   6.305   2.767   5.014  0.5451  1.8338  1.4651
 3507TIP3   OH210484   0.613   4.226   3.012 -0.1373 -0.6009  0.1149
 3507TIP3    H110485   0.544   4.227   2.945 -0.4958  0.3085  0.4720
 3507TIP3    H210486   0.693   4.246   2.963 -0.4593  0.4978 -0.0103
 3508TIP3   OH210487   6.980   5.652   2.807 -0.6640  0.2112  0.0769
 3508TIP3    H110488   6.938   5.620   2.728 -0.0210 -1.4561  0.3616
 3508TIP3    H210489   6.918   5.632   2.877  1.6666 -5.5983  1.0472
 3509TIP3   OH210490   6.303   6.672   1.876 -0.2416  0.0650 -0.6527
 3509TIP3    H110491   6.267   6.620   1.948  0.1249  1.4542  0.5890
 3509TIP3    H210492   6.397   6.679   1.897  0.5662 -2.1742 -2.9952
 3510TIP3   OH210493   1.781   5.531   0.860  0.4426 -0.5268  0.0248
 3510TIP3    H110494   1.691   5.547   0.886  0.5080  0.8373 -0.5001
 3510TIP3    H210495   1.829   5.526   0.943  0.3448  1.8304  0.2954
 3511TIP3   OH210496   1.501   2.778   2.658  0.4156 -0.2193 -0.2038
 3511TIP3    H110497   1.547   2.835   2.719 -0.3693  0.7745 -0.4977
 3511TIP3    H210498   1.474   2.837   2.587 -0.3297 -0.9770 -0.5683
 3512TIP3   OH210499   4.177   1.870   2.433 -0.3536  0.3557  0.6906
 3512TIP3    H110500   4.134   1.929   2.495 -0.8465  2.3616 -1.4432
 3512TIP3    H210501   4.123   1.874   2.354  0.5644 -1.6634 -0.0962
 3513TIP3   OH210502   4.055   2.202   0.628  0.2843  0.1248  0.5905
 3513TIP3    H110503   4.100   2.250   0.559  0.3967 -1.4010 -0.4469
 3513TIP3    H210504   3.962   2.223   0.614  0.3895  0.6507  0.6498
 3514TIP3   OH210505   1.681   5.245   1.347 -0.2206  0.5797 -0.6708
 3514TIP3    H110506   1.608   5.184   1.337 -0.8550  0.4604  3.1655
 3514TIP3    H210507   1.758   5.194   1.324 -1.0242 -0.7050 -0.5933
 3515TIP3   OH210508   6.872   0.567   4.784  0.0557 -0.6787  0.5490
 3515TIP3    H110509   6.781   0.587   4.764  0.0313  0.7063  1.8932
 3515TIP3    H210510   6.871   0.474   4.809 -1.0718 -0.5579  0.9954
 3516TIP3   OH210511   3.339   2.036   1.137  0.0993 -0.1519  0.1663
 3516TIP3    H110512   3.300   2.099   1.198  0.6915  0.4836 -0.0929
 3516TIP3    H210513   3.429   2.066   1.126 -0.0444 -0.1215 -1.1771
 3517TIP3   OH210514   3.657   4.566   1.054 -0.2117  0.0952  0.0398
 3517TIP3    H110515   3.695   4.482   1.031  0.5595 -0.3570  2.6273
 3517TIP3    H210516   3.723   4.631   1.029  0.2032 -0.2785  0.1649
 3518TIP3   OH210517   1.022   4.519   4.609  0.1863 -0.0855 -0.0335
 3518TIP3    H110518   0.989   4.433   4.635 -1.0293  0.5267  0.4984
 3518TIP3    H210519   1.019   4.572   4.689 -0.5035  0.8838 -0.6807
 3519TIP3   OH210520   3.984   1.682   0.305  0.2604  0.5873  0.3920
 3519TIP3    H110521   4.066   1.688   0.354 -0.5688 -1.2896  2.1612
 3519TIP3    H210522   4.011   1.681   0.214  2.3390 -1.1127  0.9329
 3520TIP3   OH210523   5.312   4.341   2.496 -0.1619  0.2536  0.0946
 3520TIP3    H110524   5.238   4.283   2.478  0.4564 -0.9213  1.1637
 3520TIP3    H210525   5.369   4.290   2.554  2.0480  0.6884 -1.5634
 3521TIP3   OH210526   4.983   2.490   4.838 -0.0090 -0.7926 -0.2461
 3521TIP3    H110527   4.915   2.424   4.825 -0.5611  0.1515 -2.5433
 3521TIP3    H210528   4.948   2.570   4.799  2.0440 -0.0463 -0.7018
 3522TIP3   OH210529   0.416   4.886   0.060 -0.0487  0.3347  0.3659
 3522TIP3    H110530   0.394   4.979   0.063 -0.6721  0.2196 -0.2650
 3522TIP3    H210531   0.489   4.881  -0.001  1.1828  0.6100  1.7689
 3523TIP3   OH210532   0.279   3.659   1.334  0.3169  0.0273  0.6358
 3523TIP3    H110533   0.241   3.633   1.250  1.8059 -0.4694  0.0977
 3523TIP3    H210534   0.349   3.596   1.350 -0.6140 -0.5822  2.8098
 3524TIP3   OH210535   6.078   3.476   5.881 -0.6430  0.1549  0.8612
 3524TIP3    H110536   6.152   3.537   5.881 -0.4470 -0.0722  0.1607
 3524TIP3    H210537   6.046   3.478   5.791 -0.6654 -0.7463  0.8395
 3525TIP3   OH210538   0.574   0.103   1.512 -0.8679 -0.4921 -0.4788
 3525TIP3    H110539   0.497   0.103   1.569 -0.1084 -1.1903  0.5940
 3525TIP3    H210540   0.594   0.195   1.498 -0.4088 -0.2829  1.3499
 3526TIP3   OH210541   3.499   4.911   4.189  0.0419 -0.3961  0.0114
 3526TIP3    H110542   3.490   4.978   4.258  1.2915  2.0498 -2.0316
 3526TIP3    H210543   3.439   4.940   4.120  1.0115 -1.0910 -1.1455
 3527TIP3   OH210544   0.332   1.819   4.724 -0.6542  0.1144  0.6074
 3527TIP3    H110545   0.426   1.807   4.717 -0.2256  2.0190  2.1486
 3527TIP3    H210546   0.307   1.772   4.804 -0.9532 -0.1159  0.3803
 3528TIP3   OH210547   5.815   5.089   3.486 -0.5170  0.2304  0.2829
 3528TIP3    H110548   5.776   5.170   3.451  0.1134  0.5505  0.3033
 3528TIP3    H210549   5.772   5.076   3.570 -1.0058  0.2491  0.0413
 3529TIP3   OH210550   1.732   6.000   2.096  0.6021 -0.2487 -0.9567
 3529TIP3    H110551   1.688   6.081   2.071  1.5103 -0.1305 -2.2821
 3529TIP3    H210552   1.663   5.934   2.093 -0.1780  0.4663  0.2643
 3530TIP3   OH210553   3.860   3.191   1.572 -0.7068 -0.3416 -0.2015
 3530TIP3    H110554   3.903   3.229   1.649  2.6161 -0.3704 -1.8395
 3530TIP3    H210555   3.838   3.267   1.517 -0.2568 -0.4398 -0.5264
 3531TIP3   OH210556   2.572   1.442   3.236 -0.0976 -0.5278  0.3998
 3531TIP3    H110557   2.494   1.408   3.279  0.2127 -1.0700  0.5518
 3531TIP3    H210558   2.605   1.368   3.185  0.5546 -0.4367  0.6800
 3532TIP3   OH210559   1.816   0.484   2.166  0.1598  0.2004 -0.5213
 3532TIP3    H110560   1.761   0.427   2.113 -0.0415  0.6969 -0.8537
 3532TIP3    H210561   1.829   0.435   2.247  1.4616 -1.1087 -1.4566
 3533TIP3   OH210562   2.105   2.603   2.708 -0.0706 -0.1300  0.4717
 3533TIP3    H110563   2.184   2.596   2.653 -0.8994 -0.8138 -0.6806
 3533TIP3    H210564   2.035   2.565   2.654 -1.3944  1.3392  1.0830
 3534TIP3   OH210565   4.561   4.732   2.247  0.3297 -0.2172 -0.2213
 3534TIP3    H110566   4.592   4.822   2.238 -1.4644  0.5283  0.5205
 3534TIP3    H210567   4.593   4.688   2.168 -2.1090  2.1162 -2.7469
 3535TIP3   OH210568   0.302   0.986   5.474  0.1922  0.0999 -0.4693
 3535TIP3    H110569   0.329   0.905   5.518 -1.5628  0.4343  1.3655
 3535TIP3    H210570   0.229   0.959   5.418  0.0030  0.3057 -0.3222
 3536TIP3   OH210571   0.283   1.676   0.601 -0.0369  0.3445  0.1416
 3536TIP3    H110572   0.300   1.699   0.509  3.3229 -0.1383  0.5297
 3536TIP3    H210573   0.282   1.760   0.647 -0.0314  0.4691 -0.0845
 3537TIP3   OH210574   6.276   3.690   2.155 -0.3791  0.7687  0.0120
 3537TIP3    H110575   6.313   3.698   2.243  0.6370 -0.0422 -0.3143
 3537TIP3    H210576   6.230   3.606   2.156 -0.0381  0.5760 -0.3419
 3538TIP3   OH210577   3.372   3.805   2.889  0.1655  0.1532 -0.0224
 3538TIP3    H110578   3.280   3.784   2.876  0.3171  0.0181 -0.9322
 3538TIP3    H210579   3.393   3.768   2.975 -0.7900  0.7737  0.4971
 3539TIP3   OH210580   4.822   3.636   0.764 -0.2887  0.3869  0.2988
 3539TIP3    H110581   4.862   3.645   0.677 -0.1624  1.1999  0.4326
 3539TIP3    H210582   4.778   3.719   0.779 -1.5571 -0.2923  0.4081
 3540TIP3   OH210583   5.662   1.531   5.368  0.4648 -0.0217  0.2003
 3540TIP3    H110584   5.629   1.464   5.429 -0.1826 -0.6514 -0.7988
 3540TIP3    H210585   5.697   1.600   5.424  1.4206 -1.3173  1.2806
 3541TIP3   OH210586   4.230   0.231   3.828 -0.7540  0.8997  0.4867
 3541TIP3    H110587   4.190   0.256   3.745 -0.2859  0.8717  0.2498
 3541TIP3    H210588   4.319   0.264   3.823 -0.2433 -0.4435  0.3299
 3542TIP3   OH210589   3.112   5.356   0.402 -0.4312 -0.2862 -0.2626
 3542TIP3    H110590   3.100   5.390   0.491 -2.0520 -0.0136 -0.5651
 3542TIP3    H210591   3.206   5.337   0.397  0.2763  2.4478  0.5410
 3543TIP3   OH210592   6.522   6.489   2.986  1.1068  0.4090 -0.4540
 3543TIP3    H110593   6.574   6.528   3.056 -0.7172  2.9277 -0.3479
 3543TIP3    H210594   6.521   6.555   2.917 -0.1286 -0.4715 -1.3334
 3544TIP3   OH210595   0.893   0.026   3.115  0.7153 -0.4968 -0.0356
 3544TIP3    H110596   0.929  -0.041   3.173  0.6204 -1.2667 -0.8304
 3544TIP3    H210597   0.798   0.018   3.126  0.5774 -2.0293 -1.7000
 3545TIP3   OH210598   6.211   2.510   2.901  0.2647  0.0602  0.7372
 3545TIP3    H110599   6.207   2.602   2.927 -3.4393  0.4404 -0.5858
 3545TIP3    H210600   6.131   2.471   2.936 -0.1132 -1.7074 -1.7944
 3546TIP3   OH210601   0.015   4.725   5.716  0.0376  0.6353 -0.1140
 3546TIP3    H110602   0.071   4.692   5.787 -1.0185 -1.8785 -0.3584
 3546TIP3    H210603   0.072   4.723   5.638  0.3892  0.7632  0.1342
 3547TIP3   OH210604   0.714   5.878   5.825  0.2456 -0.2444  0.2755
 3547TIP3    H110605   0.705   5.896   5.919  2.5053 -0.0524  0.5062
 3547TIP3    H210606   0.662   5.799   5.811 -0.4600 -0.0464  1.5994
 3548TIP3   OH210607   3.752   3.434   4.541  0.2122 -1.0402 -0.1322
 3548TIP3    H110608   3.732   3.353   4.495  0.9868  0.0810 -2.6285
 3548TIP3    H210609   3.819   3.477   4.487  0.4817  0.8520  1.5591
 3549TIP3   OH210610   6.231   2.906   5.766  0.0271  0.0937 -0.0796
 3549TIP3    H110611   6.288   2.914   5.843  1.0686 -3.7068 -0.2659
 3549TIP3    H210612   6.164   2.843   5.793 -2.4490  2.2033 -0.8911
 3550TIP3   OH210613   4.102   1.982   5.814  0.0019  0.2337  0.3899
 3550TIP3    H110614   4.050   1.957   5.891 -1.0700  0.9114 -0.0862
 3550TIP3    H210615   4.140   2.066   5.837  0.6946 -0.1381  0.6350
 3551TIP3   OH210616   1.313   3.230   4.869  0.5878 -0.4271 -0.0023
 3551TIP3    H110617   1.247   3.299   4.866  0.3385 -0.6934 -0.9525
 3551TIP3    H210618   1.395   3.276   4.885  0.4787  0.1351 -1.0467
 3552TIP3   OH210619   3.040   3.487   2.043 -0.0067  0.2082  0.0515
 3552TIP3    H110620   3.051   3.397   2.011 -0.4252 -0.3040  1.2812
 3552TIP3    H210621   2.947   3.493   2.066  0.1245  0.7948  0.4355
 3553TIP3   OH210622   1.350   1.578   2.073 -0.1060 -0.2612  0.4835
 3553TIP3    H110623   1.419   1.596   2.009  0.0193 -0.4608  0.5614
 3553TIP3    H210624   1.285   1.528   2.023  0.1071 -0.6309  0.5741
 3554TIP3   OH210625   2.041   0.739   4.502 -0.3445 -0.4043  0.2878
 3554TIP3    H110626   2.015   0.806   4.565 -0.1094 -1.2410  1.3091
 3554TIP3    H210627   1.958   0.700   4.474 -0.3930 -1.9354  2.2774
 3555TIP3   OH210628   1.315   4.589   1.580 -0.3457  0.4549  0.2705
 3555TIP3    H110629   1.280   4.645   1.649 -1.7476  0.3299 -0.3175
 3555TIP3    H210630   1.323   4.647   1.504 -1.6836 -0.0686 -0.3035
 3556TIP3   OH210631   2.104   0.046   2.903 -1.3652 -0.1802  0.1175
 3556TIP3    H110632   2.092  -0.048   2.912  3.3709 -0.8793  1.8406
 3556TIP3    H210633   2.195   0.057   2.875 -0.5946  3.8538  3.1733
 3557TIP3   OH210634   7.008   0.643   0.421 -0.2090 -0.3880  0.2276
 3557TIP3    H110635   6.943   0.610   0.359 -0.2584 -0.4595  0.3166
 3557TIP3    H210636   6.971   0.623   0.507  0.3081 -1.1761  0.2771
 3558TIP3   OH210637   2.756   0.946   2.377  0.0540  0.0695 -0.7174
 3558TIP3    H110638   2.691   1.016   2.369  0.8649  0.9590  0.1078
 3558TIP3    H210639   2.798   0.963   2.461  0.9408 -0.8325 -0.9637
 3559TIP3   OH210640   5.470   4.712   2.781  0.3650 -0.0772 -0.6226
 3559TIP3    H110641   5.413   4.641   2.750 -0.9018  0.0469  1.2582
 3559TIP3    H210642   5.535   4.668   2.836 -0.2723  0.1768  0.3457
 3560TIP3   OH210643   2.067   3.639   0.569 -0.0537 -0.4824  0.1014
 3560TIP3    H110644   2.035   3.678   0.487  0.0976  0.0686  0.2970
 3560TIP3    H210645   2.000   3.661   0.633 -0.2513 -1.0544  0.0960
 3561TIP3   OH210646   5.340   5.336   3.995 -0.6131 -0.1666 -0.4127
 3561TIP3    H110647   5.360   5.422   4.032  0.8191 -0.3971 -0.5643
 3561TIP3    H210648   5.421   5.286   4.008 -1.1492 -1.2290 -1.0585
 3562TIP3   OH210649   2.092   0.058   5.496 -0.4013  0.1151  0.2082
 3562TIP3    H110650   2.074  -0.034   5.516 -1.5412  0.1385 -0.5956
 3562TIP3    H210651   2.150   0.054   5.420  0.2541  0.0659  0.7015
 3563TIP3   OH210652   0.492   6.236   4.788 -0.1657 -0.3448  0.0408
 3563TIP3    H110653   0.435   6.180   4.735 -0.2492 -0.2262  0.0055
 3563TIP3    H210654   0.562   6.261   4.727  0.4441 -1.2589  0.3435
 3564TIP3   OH210655   2.406   2.241   5.364  0.2229  0.4524 -0.4227
 3564TIP3    H110656   2.455   2.200   5.294  1.2126 -0.1945  0.6151
 3564TIP3    H210657   2.470   2.294   5.411 -0.8821  2.7521 -1.3350
 3565TIP3   OH210658   0.309   0.519   5.067 -0.3797 -0.1554 -0.3100
 3565TIP3    H110659   0.311   0.595   5.125 -1.6349 -0.3205 -0.0386
 3565TIP3    H210660   0.322   0.444   5.125 -0.1414 -0.2210 -0.4460
 3566TIP3   OH210661   1.832   4.921   1.858  0.3155 -0.6444  0.2156
 3566TIP3    H110662   1.858   4.887   1.773  1.2271  0.0912  0.1824
 3566TIP3    H210663   1.756   4.868   1.883 -3.2317  2.1660 -3.2614
 3567TIP3   OH210664   1.463   0.117   5.859  0.0290  0.1711  0.3443
 3567TIP3    H110665   1.395   0.180   5.834  0.6984  0.2216 -1.5354
 3567TIP3    H210666   1.528   0.169   5.905 -0.2589  0.5120  0.3730
 3568TIP3   OH210667   7.082   3.431   4.321 -0.0440  0.3062 -0.6145
 3568TIP3    H110668   7.107   3.345   4.287 -0.3831  0.5413 -1.4765
 3568TIP3    H210669   7.001   3.453   4.275  0.6675  1.6215 -1.3364
 3569TIP3   OH210670   3.221   2.301   0.801 -0.3648 -0.0844 -0.1317
 3569TIP3    H110671   3.182   2.303   0.888  0.5571  1.3059  0.2896
 3569TIP3    H210672   3.150   2.327   0.742 -0.5932  0.4802  0.3869
 3570TIP3   OH210673   0.930   0.677   4.303 -0.4182  0.0337  0.5081
 3570TIP3    H110674   0.967   0.653   4.388 -0.9985 -3.3398 -0.0397
 3570TIP3    H210675   0.999   0.657   4.239 -1.5223 -1.9224 -0.1363
 3571TIP3   OH210676   0.982   6.243   2.611 -0.2995 -0.2093 -0.2765
 3571TIP3    H110677   0.976   6.225   2.517  0.2447  0.7489 -0.5050
 3571TIP3    H210678   0.978   6.338   2.617 -0.4061 -0.2715  0.6837
 3572TIP3   OH210679   4.728   2.031   5.026 -0.0639  0.2205  0.3066
 3572TIP3    H110680   4.716   1.993   4.939  0.0870 -0.5660  0.6236
 3572TIP3    H210681   4.822   2.051   5.030  0.0091 -0.1456  0.4481
 3573TIP3   OH210682   0.280   6.118   2.721 -0.1152 -0.1431 -0.7575
 3573TIP3    H110683   0.304   6.197   2.770  1.0610  0.3967 -2.1406
 3573TIP3    H210684   0.328   6.047   2.763  0.1366  0.1546 -0.5420
 3574TIP3   OH210685   1.942   2.845   1.491 -0.3400 -0.0961 -0.6375
 3574TIP3    H110686   1.882   2.805   1.428 -0.9318 -1.2504  0.6142
 3574TIP3    H210687   2.029   2.832   1.453 -0.7664  0.4184 -1.8371
 3575TIP3   OH210688   0.624   4.696   4.589 -0.3120 -0.3922  0.0197
 3575TIP3    H110689   0.586   4.705   4.501 -1.2354 -1.2913  0.3046
 3575TIP3    H210690   0.552   4.717   4.648  0.1963 -0.1750  0.5724
 3576TIP3   OH210691   6.612   3.486   1.621 -0.4666 -0.3296 -0.1082
 3576TIP3    H110692   6.691   3.517   1.578 -1.9963  2.4508 -1.2142
 3576TIP3    H210693   6.573   3.565   1.659 -2.9274 -1.4912 -0.0259
 3577TIP3   OH210694   0.307   0.457   3.070 -0.4233 -0.1686 -0.1805
 3577TIP3    H110695   0.351   0.372   3.073 -1.8545 -0.9427  2.8330
 3577TIP3    H210696   0.303   0.479   2.977  0.8041 -2.9268 -0.9920
 3578TIP3   OH210697   1.080   1.651   5.431 -0.1279 -0.1909 -0.2469
 3578TIP3    H110698   0.996   1.614   5.403 -1.1893  3.4884 -2.6876
 3578TIP3    H210699   1.060   1.693   5.515 -0.4679 -0.2010 -0.3192
 3579TIP3   OH210700   4.538   3.571   3.212 -0.0079 -0.6288 -0.2043
 3579TIP3    H110701   4.626   3.593   3.182 -0.3941 -0.2068 -1.0616
 3579TIP3    H210702   4.498   3.656   3.232 -0.9134 -0.6478 -1.8341
 3580TIP3   OH210703   6.004   3.690   0.435  0.3725  0.1580 -0.7358
 3580TIP3    H110704   6.091   3.659   0.411  0.9809  1.3321 -0.1654
 3580TIP3    H210705   6.015   3.723   0.524 -0.4782  0.9671 -0.9185
 3581TIP3   OH210706   0.977   5.992   3.793  0.1486  0.2729 -0.1265
 3581TIP3    H110707   1.053   6.011   3.848  0.8844  0.0430 -1.0348
 3581TIP3    H210708   0.922   5.936   3.847  2.1003 -2.1729 -0.4442
 3582TIP3   OH210709   3.016   2.001   4.123 -0.6748 -0.3503  0.3565
 3582TIP3    H110710   2.984   1.951   4.198 -0.4200  1.3697  1.6885
 3582TIP3    H210711   3.059   1.937   4.067 -1.9893 -1.8927  1.0426
 3583TIP3   OH210712   3.792   5.250   0.271 -0.4321  0.1982 -0.3302
 3583TIP3    H110713   3.882   5.281   0.265 -0.5584  0.8554  0.8982
 3583TIP3    H210714   3.797   5.170   0.322 -0.7293  1.3470  1.6253
 3584TIP3   OH210715   1.410   1.355   0.253 -0.2689  0.2021 -0.0804
 3584TIP3    H110716   1.410   1.261   0.233 -0.0066  0.2558 -0.3420
 3584TIP3    H210717   1.437   1.397   0.171 -0.6648  0.5264 -0.0515
 3585TIP3   OH210718   1.921   6.591   3.708  0.2652 -0.4095 -0.4324
 3585TIP3    H110719   1.856   6.560   3.645 -2.2008 -0.0073  1.7371
 3585TIP3    H210720   1.870   6.615   3.785  2.8862  1.3013  0.9210
 3586TIP3   OH210721   0.126   0.192   3.160  0.2686 -0.4334 -0.8979
 3586TIP3    H110722   0.112   0.277   3.201  2.0561 -0.9886  1.0168
 3586TIP3    H210723   0.047   0.142   3.179 -0.1987  0.3251 -0.8207
 3587TIP3   OH210724   2.767   4.459   0.288 -0.4078 -0.5489  0.7731
 3587TIP3    H110725   2.846   4.408   0.309 -0.2657 -0.0469  1.5135
 3587TIP3    H210726   2.777   4.539   0.339 -1.7369 -0.7813  1.4314
 3588TIP3   OH210727   6.735   5.436   3.617  0.3581 -0.2359 -0.0649
 3588TIP3    H110728   6.693   5.488   3.686 -0.2134 -0.1639 -0.4599
 3588TIP3    H210729   6.816   5.482   3.598  0.3571 -0.0714  0.3296
 3589TIP3   OH210730   3.075   5.887   0.492 -0.4306  0.4182  0.5111
 3589TIP3    H110731   3.045   5.875   0.583 -1.3606  0.1233  0.1823
 3589TIP3    H210732   2.994   5.882   0.440  0.1858 -0.2529 -0.4134
 3590TIP3   OH210733   4.227   3.687   1.970 -0.8544  0.6112  0.1201
 3590TIP3    H110734   4.136   3.676   1.944 -0.6656 -0.3506 -0.1909
 3590TIP3    H210735   4.245   3.612   2.027  0.0552  0.1635 -0.7190
 3591TIP3   OH210736   5.016   5.800   1.282  0.4076 -0.1666  0.3866
 3591TIP3    H110737   5.012   5.884   1.235 -1.4506 -0.5597 -0.2271
 3591TIP3    H210738   5.087   5.752   1.239  0.0721  0.2796 -0.6974
 3592TIP3   OH210739   2.954   1.651   4.769  0.1152  0.5234  0.1392
 3592TIP3    H110740   2.974   1.716   4.701 -0.3168  0.0349 -0.4546
 3592TIP3    H210741   3.026   1.589   4.765  0.3985  0.8121  0.5423
 3593TIP3   OH210742   0.194   4.724   2.792 -0.1160  0.4134  0.0994
 3593TIP3    H110743   0.209   4.701   2.884 -1.6627  2.8017  1.0464
 3593TIP3    H210744   0.256   4.794   2.775 -0.3193  0.4571 -0.4731
 3594TIP3   OH210745   5.192   3.187   5.537  0.1944  0.4606  0.1197
 3594TIP3    H110746   5.137   3.246   5.588  0.3870  1.3815 -0.6994
 3594TIP3    H210747   5.258   3.244   5.497  0.7221 -0.3883 -0.2529
 3595TIP3   OH210748   3.060   0.633   4.676 -0.1656  0.4029 -0.2757
 3595TIP3    H110749   3.129   0.575   4.707  0.2408  0.1048 -1.6946
 3595TIP3    H210750   2.979   0.594   4.709  0.2780  0.4833  0.9734
 3596TIP3   OH210751   1.112   3.379   4.475 -0.0418 -0.3841  0.2470
 3596TIP3    H110752   1.110   3.456   4.419  0.4416 -0.8560 -0.4366
 3596TIP3    H210753   1.067   3.311   4.424  0.4966 -0.8475  0.3783
 3597TIP3   OH210754   2.471   1.914   2.975 -0.3064 -0.1556  0.5373
 3597TIP3    H110755   2.510   1.835   2.939 -1.3874  0.1314 -1.4560
 3597TIP3    H210756   2.507   1.985   2.922 -0.4362  0.5480  1.3600
 3598TIP3   OH210757   2.195   3.859   1.749 -0.8456  0.0321 -0.3007
 3598TIP3    H110758   2.203   3.929   1.684  1.0068 -0.2674 -0.4427
 3598TIP3    H210759   2.233   3.897   1.829  0.0248 -0.7508 -0.3340
 3599TIP3   OH210760   6.470   0.630   3.850  0.2603  0.1466  0.0027
 3599TIP3    H110761   6.448   0.556   3.794 -2.5845  0.0986  1.0149
 3599TIP3    H210762   6.565   0.636   3.846  0.3639 -1.5230 -2.6390
 3600TIP3   OH210763   2.226   3.429   0.570 -0.0180 -0.2957  0.1543
 3600TIP3    H110764   2.149   3.485   0.583  0.0602 -0.3865  1.1230
 3600TIP3    H210765   2.268   3.427   0.656  1.1818 -0.0861 -0.4142
 3601TIP3   OH210766   6.194   1.842   1.214 -0.3091  0.6063 -0.2343
 3601TIP3    H110767   6.120   1.794   1.251  0.1019 -1.1400 -1.5326
 3601TIP3    H210768   6.166   1.864   1.125  1.1439 -1.2546 -1.2210
 3602TIP3   OH210769   1.163   5.039   1.471  0.1935  0.8211  0.2748
 3602TIP3    H110770   1.155   5.053   1.377 -1.5515 -0.0562  0.2586
 3602TIP3    H210771   1.246   4.992   1.481 -1.1177 -2.0745 -1.2446
 3603TIP3   OH210772   0.294   2.854   0.091  0.1276 -0.1217  0.2882
 3603TIP3    H110773   0.249   2.774   0.118 -1.1334  1.0393  1.8453
 3603TIP3    H210774   0.276   2.916   0.162  3.4001  0.7351  0.5326
 3604TIP3   OH210775   2.018   5.971   1.783 -0.1366 -0.2694  0.3628
 3604TIP3    H110776   2.058   6.056   1.763 -0.5997 -0.0540  0.3369
 3604TIP3    H210777   2.092   5.911   1.791  0.1345 -0.1507 -0.9688
 3605TIP3   OH210778   1.156   5.862   4.245  0.2069  0.2136 -0.2844
 3605TIP3    H110779   1.077   5.851   4.298  0.4050 -0.7217 -0.1655
 3605TIP3    H210780   1.227   5.828   4.300  0.7758  1.4523 -0.2067
 3606TIP3   OH210781   1.057   5.294   3.154 -0.3039 -0.1799 -0.3384
 3606TIP3    H110782   1.027   5.240   3.227  1.0543 -0.7289 -0.1721
 3606TIP3    H210783   1.062   5.383   3.191  0.9656 -0.5509  0.4276
 3607TIP3   OH210784   0.620   6.444   0.493 -0.5012  0.7156 -0.2871
 3607TIP3    H110785   0.682   6.484   0.432  1.1531  2.8210  2.5284
 3607TIP3    H210786   0.546   6.505   0.495 -0.3993  0.8283  0.0564
 3608TIP3   OH210787   6.950   2.142   5.590 -0.0429  0.3668  0.9411
 3608TIP3    H110788   7.034   2.142   5.545 -0.1655 -0.5247  0.6950
 3608TIP3    H210789   6.962   2.203   5.663 -0.0457  2.3058 -0.6223
 3609TIP3   OH210790   2.518   3.840   1.988  0.6324  0.0867 -0.2105
 3609TIP3    H110791   2.440   3.801   2.028  1.3227 -1.5741 -0.4154
 3609TIP3    H210792   2.539   3.915   2.044 -0.2658 -0.3070  0.6762
 3610TIP3   OH210793   3.415   6.519   5.819 -0.4353 -0.4774  0.0442
 3610TIP3    H110794   3.485   6.516   5.884  0.2218  0.1750 -0.6133
 3610TIP3    H210795   3.460   6.534   5.736 -1.4208  1.0286 -0.2591
 3611TIP3   OH210796   4.379   2.189   4.144 -0.1756  0.1765 -0.3135
 3611TIP3    H110797   4.301   2.224   4.187  0.5453 -0.5794  1.7093
 3611TIP3    H210798   4.451   2.210   4.203  0.6492 -2.2712 -0.3438
 3612TIP3   OH210799   2.231   0.580   4.821 -0.1426 -0.2620 -0.0045
 3612TIP3    H110800   2.230   0.615   4.910  0.2482  0.3606 -0.2402
 3612TIP3    H210801   2.305   0.624   4.779 -1.0603  0.3580 -1.0074
 3613TIP3   OH210802   5.299   5.966   3.527  0.1635  0.6561  0.1343
 3613TIP3    H110803   5.243   5.936   3.599 -1.2345 -1.0529 -1.5478
 3613TIP3    H210804   5.332   6.051   3.556  0.0957 -0.1963  2.9845
 3614TIP3   OH210805   6.661   0.751   5.622  0.0012 -0.1797  0.1382
 3614TIP3    H110806   6.636   0.686   5.556 -2.2428  0.5373  0.1918
 3614TIP3    H210807   6.734   0.799   5.582 -1.1791  0.1264 -1.7941
 3615TIP3   OH210808   6.188   3.467   0.752  0.0937  0.2784 -0.3300
 3615TIP3    H110809   6.223   3.541   0.801 -1.2784  0.4880  0.3870
 3615TIP3    H210810   6.114   3.437   0.805  1.5101 -2.5911  0.2291
 3616TIP3   OH210811   5.496   4.847   4.023  0.1956  0.0646  0.2261
 3616TIP3    H110812   5.504   4.764   4.069 -1.5271 -1.1903 -1.5776
 3616TIP3    H210813   5.583   4.862   3.986  0.5686 -0.8361  0.7036
 3617TIP3   OH210814   4.150   6.175   4.994 -0.2457  0.3788  0.2011
 3617TIP3    H110815   4.218   6.211   4.937  0.4549  0.8569  1.3033
 3617TIP3    H210816   4.068   6.207   4.957  0.2477  1.3430 -0.0924
 3618TIP3   OH210817   5.249   0.585   2.327  0.7611 -0.4827 -0.0543
 3618TIP3    H110818   5.284   0.654   2.271  0.1984 -0.3858 -0.2932
 3618TIP3    H210819   5.154   0.587   2.311  0.6540 -0.7825  0.5277
 3619TIP3   OH210820   1.111   3.560   3.055 -0.4398  0.1789  0.1492
 3619TIP3    H110821   1.080   3.501   3.123  1.7947  1.2002  2.2188
 3619TIP3    H210822   1.152   3.632   3.104  0.4332  1.4353 -2.2964
 3620TIP3   OH210823   6.284   4.403   3.774 -0.1225 -0.3690 -0.1392
 3620TIP3    H110824   6.288   4.424   3.867  0.2424  1.4266 -0.5261
 3620TIP3    H210825   6.233   4.322   3.770 -0.7049 -0.1218  1.5580
 3621TIP3   OH210826   3.497   1.859   0.729 -0.0306  0.3892 -0.0813
 3621TIP3    H110827   3.432   1.924   0.755  1.0743  1.2596  0.6298
 3621TIP3    H210828   3.476   1.782   0.782 -1.8870 -0.1891 -1.5639
 3622TIP3   OH210829   6.513   6.173   2.096  0.3092  0.3557  0.0568
 3622TIP3    H110830   6.572   6.243   2.068 -0.3188  0.9032  0.0610
 3622TIP3    H210831   6.568   6.095   2.100  0.8770  0.7088 -0.6110
 3623TIP3   OH210832   3.962   2.607   2.068  0.0449 -0.4368  0.2633
 3623TIP3    H110833   3.879   2.649   2.093  0.6528  0.9004  0.1315
 3623TIP3    H210834   3.944   2.564   1.985 -0.4671  0.0733  0.1020
 3624TIP3   OH210835   4.313   1.293   4.132  0.4533  0.4446 -0.1614
 3624TIP3    H110836   4.361   1.341   4.065  1.6873  0.2732  0.5861
 3624TIP3    H210837   4.309   1.353   4.207 -2.0651  1.1667 -0.7569
 3625TIP3   OH210838   2.849   0.269   3.566  0.8031  0.0222 -0.0938
 3625TIP3    H110839   2.881   0.179   3.561 -0.4364 -0.4310 -0.0834
 3625TIP3    H210840   2.846   0.298   3.474 -1.4270 -0.9294 -0.3888
 3626TIP3   OH210841   3.703   1.480   5.637  0.1371 -0.8173 -0.1650
 3626TIP3    H110842   3.738   1.491   5.725  1.3225  2.5758 -0.9090
 3626TIP3    H210843   3.773   1.437   5.588  1.6497  1.9141 -0.5698
 3627TIP3   OH210844   3.581   1.119   0.070  0.1042 -0.6785 -0.3487
 3627TIP3    H110845   3.666   1.077   0.059  1.7605  2.0891  0.7133
 3627TIP3    H210846   3.580   1.189   0.005 -1.0035 -0.1563  0.1950
 3628TIP3   OH210847   4.306   3.016   0.337  0.0025  0.3154 -0.7538
 3628TIP3    H110848   4.347   2.999   0.251 -2.3743 -1.6978 -1.6085
 3628TIP3    H210849   4.292   2.929   0.374 -2.4008  0.9320 -0.0373
 3629TIP3   OH210850   7.049   5.333   3.094 -0.0102  0.0800  0.1449
 3629TIP3    H110851   7.122   5.274   3.076  0.8473  0.4349  2.2326
 3629TIP3    H210852   6.982   5.308   3.030  0.4570 -2.8736  0.6775
 3630TIP3   OH210853   4.498   0.329   0.600  0.6008  0.2881  0.7301
 3630TIP3    H110854   4.510   0.386   0.524  0.7297 -1.5727 -0.7065
 3630TIP3    H210855   4.540   0.376   0.672  1.5068  1.5687 -0.5790
 3631TIP3   OH210856   2.476   5.012   3.121  0.3126  0.0910  0.1497
 3631TIP3    H110857   2.431   5.096   3.116  0.2617  0.1182  0.9287
 3631TIP3    H210858   2.409   4.951   3.153  0.8637  0.1676  1.4984
 3632TIP3   OH210859   1.010   3.377   5.139 -0.3102  0.0074 -0.5693
 3632TIP3    H110860   0.926   3.389   5.184 -0.9385 -0.2642 -1.6328
 3632TIP3    H210861   0.995   3.411   5.051  0.6709 -0.1577 -0.8115
 3633TIP3   OH210862   5.964   0.228   4.403 -0.0181 -0.0954 -0.2016
 3633TIP3    H110863   5.971   0.187   4.489  0.7963  0.2914 -0.0701
 3633TIP3    H210864   5.925   0.314   4.421  2.0055  0.8223  0.0832
 3634TIP3   OH210865   4.723   1.442   5.028 -0.0479  0.4261  0.8116
 3634TIP3    H110866   4.656   1.380   5.056 -0.0025  0.2070  0.4481
 3634TIP3    H210867   4.768   1.397   4.956 -0.9341  1.4360 -0.4036
 3635TIP3   OH210868   5.780   5.268   3.192  0.3490  0.1835  0.4079
 3635TIP3    H110869   5.698   5.303   3.158 -0.1375 -2.2220 -1.1536
 3635TIP3    H210870   5.783   5.298   3.283 -1.2476  1.9569 -0.0621
 3636TIP3   OH210871   2.880   5.422   4.838  0.2332 -0.6769 -0.0564
 3636TIP3    H110872   2.819   5.350   4.854 -2.5073  1.5997  0.5589
 3636TIP3    H210873   2.918   5.440   4.924  0.1555 -0.7380 -0.0086
 3637TIP3   OH210874   1.505   3.315   4.007 -0.1115 -0.3329 -0.2030
 3637TIP3    H110875   1.528   3.360   3.925 -0.8360 -0.8602 -0.7129
 3637TIP3    H210876   1.586   3.272   4.034  0.7430  1.6259  0.5585
 3638TIP3   OH210877   5.537   4.054   1.416  0.3053 -0.1182 -0.0255
 3638TIP3    H110878   5.496   4.078   1.499 -1.1419  0.2076 -0.7936
 3638TIP3    H210879   5.565   3.963   1.428 -2.5118 -1.0942 -0.0768
 3639TIP3   OH210880   4.684   0.925   0.522  0.0422 -0.0118  0.0438
 3639TIP3    H110881   4.774   0.900   0.502  0.7424  1.0866  1.6332
 3639TIP3    H210882   4.640   0.843   0.542  1.3825 -0.3567  1.7994
 3640TIP3   OH210883   5.725   2.493   2.691  0.7767 -1.0477  0.5530
 3640TIP3    H110884   5.674   2.529   2.763 -1.4783  0.4409 -1.6170
 3640TIP3    H210885   5.674   2.418   2.660  1.9310 -1.9355  0.7175
 3641TIP3   OH210886   2.898   6.117   5.093  0.3805  0.1575 -0.6335
 3641TIP3    H110887   2.830   6.082   5.036 -0.9201 -1.5401  1.7841
 3641TIP3    H210888   2.970   6.055   5.085 -0.3308 -0.8468  0.5506
 3642TIP3   OH210889   1.910   6.024   4.289 -0.1884  0.1506 -0.0382
 3642TIP3    H110890   1.847   6.075   4.238 -1.2802  0.9114  1.9579
 3642TIP3    H210891   1.989   6.077   4.288 -0.4783  0.5910 -0.2157
 3643TIP3   OH210892   3.570   5.461   1.341 -0.5213 -0.0180 -0.9111
 3643TIP3    H110893   3.529   5.520   1.278 -0.5024 -2.3763 -3.3024
 3643TIP3    H210894   3.618   5.398   1.287 -1.1560 -2.6949  1.4166
 3644TIP3   OH210895   4.982   4.091   4.180 -0.2575 -0.2178 -0.1106
 3644TIP3    H110896   4.978   4.002   4.216 -1.5652 -0.6790 -1.3018
 3644TIP3    H210897   4.905   4.134   4.215  0.6648  0.6678  0.9087
 3645TIP3   OH210898   0.480   4.485   3.798 -0.1756 -0.0678  0.2169
 3645TIP3    H110899   0.469   4.390   3.794  0.3203 -0.0681 -2.7703
 3645TIP3    H210900   0.552   4.498   3.860 -0.7488 -1.5499  1.2450
 3646TIP3   OH210901   4.535   6.042   4.045  0.3948 -0.4157  0.1724
 3646TIP3    H110902   4.629   6.056   4.050  0.1392  0.9355  2.3795
 3646TIP3    H210903   4.503   6.116   3.993  0.4236 -0.1405  0.5433
 3647TIP3   OH210904   1.624   3.535   0.672  0.6140  0.0823 -0.2352
 3647TIP3    H110905   1.530   3.517   0.677  0.7707 -0.6398  0.1749
 3647TIP3    H210906   1.666   3.451   0.692  1.3482  0.4761 -0.0943
 3648TIP3   OH210907   5.537   2.103   1.697 -0.0692  0.0447 -0.1826
 3648TIP3    H110908   5.523   2.144   1.612  2.2773  1.7714  0.1349
 3648TIP3    H210909   5.631   2.115   1.714  0.5094 -4.2781  0.6711
 3649TIP3   OH210910   5.211   1.120   2.438 -0.2346 -0.3387  0.5407
 3649TIP3    H110911   5.196   1.068   2.359 -1.8747  1.2510 -0.2790
 3649TIP3    H210912   5.205   1.057   2.509  0.0735 -1.6239 -0.5342
 3650TIP3   OH210913   5.025   0.465   3.034 -0.1383 -0.0364 -0.1927
 3650TIP3    H110914   5.069   0.422   3.108  0.3713  0.9193  0.0752
 3650TIP3    H210915   4.953   0.514   3.075 -0.6545 -0.5459 -0.4822
 3651TIP3   OH210916   2.675   1.861   0.320  0.2873 -0.3294 -0.6241
 3651TIP3    H110917   2.759   1.842   0.279  0.2458 -0.4156 -0.6682
 3651TIP3    H210918   2.687   1.948   0.360 -0.0942  0.3871 -1.9893
 3652TIP3   OH210919   2.787   1.079   5.635 -0.1807  0.1858 -0.7520
 3652TIP3    H110920   2.750   1.116   5.715 -0.9962  1.4788 -1.6924
 3652TIP3    H210921   2.871   1.123   5.624  0.8030 -1.3404  0.3473
 3653TIP3   OH210922   4.657   5.829   3.902 -0.2868  0.7830 -0.1312
 3653TIP3    H110923   4.564   5.812   3.916 -0.4041 -0.2774 -1.9905
 3653TIP3    H210924   4.701   5.766   3.959 -0.6785  1.0023  0.4335
 3654TIP3   OH210925   2.673   4.583   0.917 -0.3366 -0.3714 -0.1529
 3654TIP3    H110926   2.767   4.597   0.925 -0.4488  0.8101 -0.6852
 3654TIP3    H210927   2.636   4.623   0.996 -0.5352  1.1110 -0.9503
 3655TIP3   OH210928   7.162   5.496   1.166 -0.0354 -0.4870  0.5750
 3655TIP3    H110929   7.114   5.431   1.217  0.5814 -3.6207 -2.4178
 3655TIP3    H210930   7.095   5.535   1.109  0.0892 -0.9383  0.1108
 3656TIP3   OH210931   1.067   5.714   3.651  0.4082  0.2338  0.0753
 3656TIP3    H110932   1.035   5.800   3.679  1.9931  0.9297 -0.1088
 3656TIP3    H210933   1.072   5.720   3.556 -0.4755 -0.4525 -0.0242
 3657TIP3   OH210934   3.077   1.530   5.477  0.3008  0.2127  0.0092
 3657TIP3    H110935   3.125   1.604   5.513  0.1697  1.0073 -1.3477
 3657TIP3    H210936   2.996   1.527   5.528 -0.2255  1.7825 -0.6626
 3658TIP3   OH210937   4.448   3.833   2.051  0.8298  0.0074 -0.2383
 3658TIP3    H110938   4.371   3.793   2.012  0.8217 -0.4423  0.2315
 3658TIP3    H210939   4.415   3.885   2.124  0.9584 -0.1426 -0.0696
 3659TIP3   OH210940   4.589   5.207   4.305 -0.6670 -0.7392  0.3111
 3659TIP3    H110941   4.683   5.225   4.295 -0.7366  1.2553  2.4816
 3659TIP3    H210942   4.548   5.251   4.231  0.0647 -1.3046 -0.4454
 3660TIP3   OH210943   3.867   3.998   0.944  0.3932  0.4169 -0.3057
 3660TIP3    H110944   3.947   3.984   0.995  1.0215  1.6611 -0.9030
 3660TIP3    H210945   3.797   3.964   1.000  1.0490  1.7247  1.4204
 3661TIP3   OH210946   2.358   2.116   4.948 -0.0076 -0.2235  0.2566
 3661TIP3    H110947   2.279   2.084   4.903  0.0061 -0.0458  0.1064
 3661TIP3    H210948   2.382   2.195   4.901  1.2005 -1.1448 -0.7164
 3662TIP3   OH210949   5.264   6.271   0.821  0.2230  0.3774  0.8557
 3662TIP3    H110950   5.173   6.299   0.820  0.7560  2.2819 -0.8770
 3662TIP3    H210951   5.296   6.288   0.733  1.9614 -1.3854  1.0711
 3663TIP3   OH210952   0.312   3.068   3.947  0.1702  0.1348 -0.4798
 3663TIP3    H110953   0.309   3.153   3.904  0.0547  0.7787  0.7499
 3663TIP3    H210954   0.243   3.072   4.013 -0.1821 -1.1174 -0.7494
 3664TIP3   OH210955   5.405   6.377   5.265 -0.2598 -0.0263 -0.7061
 3664TIP3    H110956   5.380   6.341   5.180  1.0865 -0.7790 -0.8101
 3664TIP3    H210957   5.325   6.373   5.318 -0.7293 -0.9521 -1.4579
 3665TIP3   OH210958   3.954   2.266   3.630 -0.3346 -0.5062  0.8336
 3665TIP3    H110959   4.032   2.255   3.684  0.7592 -0.4239 -0.6665
 3665TIP3    H210960   3.913   2.180   3.627 -0.2282 -0.5823  1.5126
 3666TIP3   OH210961   0.029   0.459   4.069 -0.0476  0.0665  0.0251
 3666TIP3    H110962   0.082   0.386   4.101  1.4448  1.2647  0.4209
 3666TIP3    H210963  -0.028   0.481   4.142 -1.6237 -1.6457 -0.6215
 3667TIP3   OH210964   6.283   1.125   3.525  0.6802 -0.0628 -0.0799
 3667TIP3    H110965   6.333   1.107   3.605  0.3903  2.0856  0.6286
 3667TIP3    H210966   6.345   1.106   3.454  1.6972  0.1730  0.7173
 3668TIP3   OH210967   6.559   5.199   3.764 -0.1892 -0.6805  0.2620
 3668TIP3    H110968   6.518   5.268   3.816 -0.4564 -2.5744  2.7586
 3668TIP3    H210969   6.538   5.221   3.673 -0.8849  2.0565  1.0106
 3669TIP3   OH210970   4.802   5.925   4.419  0.3599 -0.2944 -0.2337
 3669TIP3    H110971   4.716   5.884   4.408  1.2428 -1.9432 -1.6218
 3669TIP3    H210972   4.822   5.914   4.512 -1.5465  1.5418  0.4671
 3670TIP3   OH210973   4.002   3.672   2.905 -0.0531 -0.3631  0.2389
 3670TIP3    H110974   3.937   3.607   2.931  0.2883 -0.6212  0.4518
 3670TIP3    H210975   4.018   3.653   2.812 -0.4568 -0.1443  0.1214
 3671TIP3   OH210976   6.516   4.008   2.387  0.9084  0.2195 -0.6994
 3671TIP3    H110977   6.575   4.082   2.398  0.5912  0.3111  0.4729
 3671TIP3    H210978   6.454   4.015   2.460  0.2033 -0.5741 -1.2018
 3672TIP3   OH210979   5.521   5.952   2.917 -0.3414  0.6224 -0.1573
 3672TIP3    H110980   5.446   6.003   2.948 -1.7543 -0.2189 -1.9939
 3672TIP3    H210981   5.501   5.935   2.825  2.7162  1.3888 -1.0550
 3673TIP3   OH210982   2.077   4.287   0.916  0.1870 -0.1201 -0.2595
 3673TIP3    H110983   2.066   4.366   0.970 -0.1074  1.5753 -2.6392
 3673TIP3    H210984   1.987   4.257   0.900  0.2999 -1.0003  0.6685
 3674TIP3   OH210985   5.280   4.374   0.128  0.6394  0.4578  0.3501
 3674TIP3    H110986   5.226   4.453   0.125  0.2791  0.1880 -0.6420
 3674TIP3    H210987   5.250   4.322   0.054  3.3420  0.9922 -1.2356
 3675TIP3   OH210988   1.021   3.601   3.883  0.5445  0.1677 -0.2890
 3675TIP3    H110989   1.107   3.564   3.902  0.7497  0.2013 -1.1108
 3675TIP3    H210990   0.959   3.533   3.909  0.7471  0.6392  1.5064
 3676TIP3   OH210991   3.723   5.068   1.711  0.0525  0.1508  0.6508
 3676TIP3    H110992   3.796   5.039   1.657  1.7229  1.6873  1.9547
 3676TIP3    H210993   3.670   4.989   1.724  1.9152 -1.2142  0.3493
 3677TIP3   OH210994   2.693   5.698   3.346  0.8159 -0.7649 -0.1925
 3677TIP3    H110995   2.716   5.605   3.342 -1.7236 -1.4608 -0.7067
 3677TIP3    H210996   2.689   5.718   3.439 -0.0388 -1.6197 -0.0237
 3678TIP3   OH210997   5.991   6.734   3.237 -0.2590  0.4643  0.6605
 3678TIP3    H110998   6.078   6.702   3.210 -0.2579  0.9656  0.0664
 3678TIP3    H210999   5.994   6.731   3.333  0.1422 -0.2475  0.6342
 3679TIP3   OH211000   0.178   0.137   0.617 -0.2291 -0.1200  0.0461
 3679TIP3    H111001   0.188   0.159   0.524 -1.1536 -2.6721 -0.7426
 3679TIP3    H211002   0.143   0.216   0.657  0.7354  1.2255 -1.6467
 3680TIP3   OH211003   3.568   0.297   3.631 -0.2370 -0.0204  0.2969
 3680TIP3    H111004   3.584   0.259   3.545  0.2434  0.6833  0.0633
 3680TIP3    H211005   3.514   0.374   3.614  1.2652  1.1111  0.4023
 3681TIP3   OH211006   3.196   5.690   1.242 -0.2970  0.3104 -0.6146
 3681TIP3    H111007   3.140   5.627   1.288  2.5808 -1.0694  1.3560
 3681TIP3    H211008   3.221   5.753   1.310  0.1622  1.1603 -1.5483
 3682TIP3   OH211009   2.012   2.585   3.735 -0.3049  0.2379 -0.2737
 3682TIP3    H111010   2.056   2.507   3.703 -3.0892 -1.6308  0.0563
 3682TIP3    H211011   2.082   2.645   3.757  1.9661 -2.0114 -0.8866
 3683TIP3   OH211012   5.794   6.642   2.560 -0.4464  0.0166 -0.0945
 3683TIP3    H111013   5.742   6.685   2.491 -0.3230 -1.3224 -1.0517
 3683TIP3    H211014   5.733   6.634   2.633 -0.2300  2.5640  0.4465
 3684TIP3   OH211015   2.814   4.464   5.323  0.2054  0.0521 -0.3951
 3684TIP3    H111016   2.876   4.502   5.386  1.2153  0.5926 -1.6651
 3684TIP3    H211017   2.821   4.370   5.337 -1.2309  0.1920  1.7765
 3685TIP3   OH211018   6.268   2.838   0.961 -0.2373 -0.0791 -0.1777
 3685TIP3    H111019   6.269   2.903   1.031 -3.4556  0.5503 -0.5723
 3685TIP3    H211020   6.253   2.755   1.005  1.4110 -0.2467  0.1219
 3686TIP3   OH211021   2.235   2.387   0.559 -0.6211  0.2240  0.1309
 3686TIP3    H111022   2.290   2.311   0.580 -2.4928 -0.5205  2.7236
 3686TIP3    H211023   2.162   2.351   0.508 -0.1010  0.7979 -1.0664
 3687TIP3   OH211024   0.532   0.344   2.740  0.0635 -0.3163  0.2386
 3687TIP3    H111025   0.624   0.338   2.767 -0.1716 -2.1934  0.7458
 3687TIP3    H211026   0.497   0.417   2.791  1.1576  0.1670  0.3428
 3688TIP3   OH211027   6.790   5.218   1.338  0.0767  0.2381  0.5232
 3688TIP3    H111028   6.785   5.182   1.249  1.4299  1.1771  0.0325
 3688TIP3    H211029   6.700   5.218   1.369 -0.4574  0.1511 -0.9494
 3689TIP3   OH211030   2.899   0.111   2.071  0.8350  1.1226  0.1065
 3689TIP3    H111031   2.847   0.084   1.995 -0.9275  1.7244  1.0439
 3689TIP3    H211032   2.957   0.037   2.088 -2.6613 -1.5653  1.5867
 3690TIP3   OH211033   4.346   0.350   3.425  0.1909  0.0648  0.5038
 3690TIP3    H111034   4.365   0.406   3.350  0.9538 -0.8865 -0.0358
 3690TIP3    H211035   4.426   0.299   3.438  0.2191  0.4683  2.2132
 3691TIP3   OH211036   5.692   5.492   1.155  0.0725 -0.2375  0.1065
 3691TIP3    H111037   5.673   5.524   1.243  0.2765  0.9875 -0.2860
 3691TIP3    H211038   5.621   5.526   1.100  1.7584  2.0262 -0.8440
 3692TIP3   OH211039   5.634   1.435   1.652  0.4400 -0.3762  0.3749
 3692TIP3    H111040   5.716   1.468   1.689  0.5381 -0.1728 -0.0190
 3692TIP3    H211041   5.566   1.490   1.692  0.6549  0.8315 -0.8240
 3693TIP3   OH211042   5.416   1.526   0.580 -0.0542  0.0418  0.0240
 3693TIP3    H111043   5.386   1.516   0.671  1.0142 -0.7212  0.3031
 3693TIP3    H211044   5.511   1.518   0.585  0.0293  0.2214 -1.1380
 3694TIP3   OH211045   3.822   2.967   1.397 -0.3227  0.3533 -0.5019
 3694TIP3    H111046   3.797   2.884   1.437  2.5984 -0.7181 -0.6592
 3694TIP3    H211047   3.846   3.023   1.470  0.6512 -0.0469 -0.4946
 3695TIP3   OH211048   3.775   3.199   4.858  0.1442  0.3995  0.3221
 3695TIP3    H111049   3.701   3.245   4.897  0.7922  0.9057  0.9740
 3695TIP3    H211050   3.737   3.151   4.785 -1.1647 -0.7816  1.7041
 3696TIP3   OH211051   2.068   0.537   1.141 -0.2629 -0.6884 -0.0279
 3696TIP3    H111052   2.026   0.569   1.061 -0.1728 -0.6326 -0.0531
 3696TIP3    H211053   2.145   0.593   1.152 -0.9380  0.1301  0.7720
 3697TIP3   OH211054   3.229   1.336   5.759 -0.0321  0.0353  0.1198
 3697TIP3    H111055   3.214   1.406   5.823  1.1406  0.1053  0.3523
 3697TIP3    H211056   3.325   1.331   5.753 -0.0541  1.2457 -2.9750
 3698TIP3   OH211057   4.966   4.705   0.593  0.1589 -0.2995 -0.0692
 3698TIP3    H111058   4.896   4.686   0.530  0.7812  0.5953 -1.0823
 3698TIP3    H211059   4.948   4.648   0.667 -1.6358 -0.0988 -0.3035
 3699TIP3   OH211060   0.422   0.391   0.147  0.0362  0.0028 -0.5286
 3699TIP3    H111061   0.376   0.468   0.182  1.2454  1.1305 -1.2899
 3699TIP3    H211062   0.512   0.402   0.175  0.5532 -0.2816 -1.9742
 3700TIP3   OH211063   1.475   2.123   1.072  0.5450 -0.7563 -0.2668
 3700TIP3    H111064   1.439   2.162   0.992  0.5586  0.0998  0.1302
 3700TIP3    H211065   1.398   2.104   1.126  0.5769  3.2689  1.6063
 3701TIP3   OH211066   4.858   5.358   0.749  0.4492  0.1351  0.7936
 3701TIP3    H111067   4.856   5.316   0.663  1.8305 -1.7353  1.5923
 3701TIP3    H211068   4.769   5.393   0.761 -0.1398 -0.6912 -0.8369
 3702TIP3   OH211069   5.460   2.871   0.780  0.2088 -0.3914  0.2450
 3702TIP3    H111070   5.376   2.889   0.736  1.0365 -0.0019 -1.2311
 3702TIP3    H211071   5.453   2.919   0.863 -0.3918  1.0447 -0.5881
 3703TIP3   OH211072   6.258   4.796   3.492 -0.4147 -0.2526 -0.1596
 3703TIP3    H111073   6.291   4.853   3.422 -1.4049  0.2475 -0.2393
 3703TIP3    H211074   6.303   4.713   3.477  1.1125  0.4962 -0.0019
 3704TIP3   OH211075   5.744   3.343   0.481 -0.0569 -0.3058  0.4834
 3704TIP3    H111076   5.737   3.438   0.473  1.3944 -0.3068 -1.4404
 3704TIP3    H211077   5.801   3.328   0.557  0.7723  0.4089  0.0113
 3705TIP3   OH211078   2.315   0.901   3.748 -0.4080  0.4424 -0.4241
 3705TIP3    H111079   2.241   0.911   3.688 -0.6833  0.2993 -0.1110
 3705TIP3    H211080   2.369   0.832   3.708 -0.6748  0.2312 -0.4174
 3706TIP3   OH211081   3.395   0.555   5.640 -0.0636 -0.3182 -0.1854
 3706TIP3    H111082   3.425   0.465   5.636  1.2569  0.0416  0.9383
 3706TIP3    H211083   3.397   0.577   5.734 -2.1858  0.2993 -0.2242
 3707TIP3   OH211084   3.626   6.682   3.497  0.8870  0.4170  0.0607
 3707TIP3    H111085   3.531   6.675   3.509  0.4030  0.9868 -2.8566
 3707TIP3    H211086   3.661   6.609   3.549 -1.3405 -1.5164 -0.9432
 3708TIP3   OH211087   2.562   5.130   1.445  0.1002  0.0774  0.4961
 3708TIP3    H111088   2.567   5.223   1.423  0.1049 -0.1045 -0.2906
 3708TIP3    H211089   2.482   5.123   1.498  0.1390  0.5396  0.6248
 3709TIP3   OH211090   1.618   2.279   4.859  0.0089 -0.5496 -0.3747
 3709TIP3    H111091   1.600   2.285   4.765  1.2401 -1.2484 -0.6758
 3709TIP3    H211092   1.666   2.197   4.869 -0.5925 -0.7629  0.9539
 3710TIP3   OH211093   5.159   3.452   4.346  0.0536  0.7291  0.1211
 3710TIP3    H111094   5.251   3.439   4.325 -0.4900  0.5234 -2.4657
 3710TIP3    H211095   5.150   3.546   4.357  0.8434  0.6202  2.1408
 3711TIP3   OH211096   7.135   2.374   3.021  0.5424  0.7467 -0.2233
 3711TIP3    H111097   7.126   2.463   2.988  2.2455  0.9987 -0.0918
 3711TIP3    H211098   7.208   2.378   3.083  0.0042 -0.5448  0.5489
 3712TIP3   OH211099   5.146   6.625   4.619  0.3805  0.1114  0.1269
 3712TIP3    H111100   5.083   6.583   4.678  0.5482 -0.7097 -0.2533
 3712TIP3    H211101   5.175   6.703   4.665  0.4629 -0.4873  1.1109
 3713TIP3   OH211102   5.208   2.161   4.298  0.3576  0.3804 -0.3857
 3713TIP3    H111103   5.301   2.154   4.320  0.3924  1.6119 -0.0608
 3713TIP3    H211104   5.181   2.072   4.278  1.5093 -0.0549 -0.0619
 3714TIP3   OH211105   3.040   4.313   4.526 -0.9469  0.4292 -0.0204
 3714TIP3    H111106   3.021   4.288   4.616 -1.0620  1.3302  0.2145
 3714TIP3    H211107   3.115   4.372   4.533 -2.4273  2.4464 -0.2529
 3715TIP3   OH211108   6.816   4.685   1.683  0.0988 -1.0471 -0.1168
 3715TIP3    H111109   6.898   4.712   1.641 -0.9682  3.4638  0.1236
 3715TIP3    H211110   6.766   4.644   1.613  1.9942 -2.6856 -0.6004
 3716TIP3   OH211111   0.186   0.647   2.439  0.4483 -0.6592 -0.1420
 3716TIP3    H111112   0.177   0.606   2.353 -0.3893 -0.0442 -0.3540
 3716TIP3    H211113   0.116   0.712   2.443  1.9018  0.9441  0.0879
 3717TIP3   OH211114   1.619   5.732   3.246 -0.1132 -0.4135 -0.2102
 3717TIP3    H111115   1.637   5.699   3.334  1.0583 -1.0022 -0.6535
 3717TIP3    H211116   1.673   5.678   3.188 -0.8959 -0.0647 -1.3033
 3718TIP3   OH211117   4.368   3.683   2.891  0.4201  0.1026 -0.1801
 3718TIP3    H111118   4.435   3.618   2.913 -0.4851 -1.0303 -0.6350
 3718TIP3    H211119   4.291   3.655   2.942  0.4327  1.6902  0.7553
 3719TIP3   OH211120   6.366   5.856   1.770 -0.3289 -0.1335  0.7081
 3719TIP3    H111121   6.377   5.921   1.840 -0.5411  1.1882 -0.4390
 3719TIP3    H211122   6.453   5.817   1.760  0.3906  1.5496 -0.0400
 3720TIP3   OH211123   0.980   4.674   0.562 -0.0639  0.5479  0.3463
 3720TIP3    H111124   0.941   4.587   0.558 -1.5127  1.1088  1.4731
 3720TIP3    H211125   1.071   4.661   0.535 -0.4475 -1.1705 -0.2358
 3721TIP3   OH211126   3.745   5.145   5.835 -0.3348  0.3508 -0.4619
 3721TIP3    H111127   3.729   5.063   5.881 -1.0996  0.2786 -0.8473
 3721TIP3    H211128   3.781   5.118   5.750  1.4189  0.4937  0.1959
 3722TIP3   OH211129   6.852   6.507   0.249  0.6775  0.0650 -0.2920
 3722TIP3    H111130   6.856   6.592   0.204  0.9173 -0.6269 -1.6214
 3722TIP3    H211131   6.826   6.445   0.181 -1.6111 -0.6306  1.1128
 3723TIP3   OH211132   5.254   1.278   3.362  0.8149  0.0393  0.3829
 3723TIP3    H111133   5.162   1.254   3.360  1.2851 -3.2044  4.1696
 3723TIP3    H211134   5.295   1.227   3.292  0.1712 -1.4387  1.0535
 3724TIP3   OH211135   5.229   1.581   1.212 -0.3412 -0.1044  0.3608
 3724TIP3    H111136   5.228   1.676   1.202  1.0051 -0.0912  0.1086
 3724TIP3    H211137   5.218   1.567   1.306 -1.1629  0.2655  0.3268
 3725TIP3   OH211138   0.677   0.832   0.932  0.5448 -0.4735  0.4056
 3725TIP3    H111139   0.607   0.842   0.868  0.8501 -1.9545 -0.2152
 3725TIP3    H211140   0.734   0.907   0.917 -0.3222  0.1432  0.1490
 3726TIP3   OH211141   3.651   0.453   0.618 -0.9276 -0.3497 -0.2528
 3726TIP3    H111142   3.693   0.520   0.564  0.4693 -1.5507 -0.7330
 3726TIP3    H211143   3.711   0.441   0.691 -2.5051  0.8197  1.3142
 3727TIP3   OH211144   6.423   2.946   0.436  0.2901  0.4985 -0.5773
 3727TIP3    H111145   6.506   2.927   0.393  1.6254  1.0407  1.6102
 3727TIP3    H211146   6.427   2.897   0.518 -2.3748 -0.9074 -1.1679
 3728TIP3   OH211147   3.501   5.082   5.099  0.0839 -0.3068 -0.1924
 3728TIP3    H111148   3.433   5.017   5.117  0.0953 -0.5570 -1.0137
 3728TIP3    H211149   3.569   5.065   5.165  0.3990 -1.5871 -0.8094
 3729TIP3   OH211150   5.935   5.327   1.924 -0.0091  0.4470 -0.2066
 3729TIP3    H111151   5.882   5.406   1.933  0.8775  1.0777 -0.3298
 3729TIP3    H211152   5.987   5.324   2.004 -1.3018 -1.0128  0.6243
 3730TIP3   OH211153   0.392   2.850   0.428  0.3096  0.2313 -0.3717
 3730TIP3    H111154   0.380   2.771   0.375 -0.1322  1.1702 -1.7302
 3730TIP3    H211155   0.331   2.914   0.391 -0.2667  0.8477  1.5138
 3731TIP3   OH211156   6.228   4.295   2.005  0.1938  0.3032  0.1289
 3731TIP3    H111157   6.213   4.201   2.010 -1.2782  0.5254  0.3275
 3731TIP3    H211158   6.246   4.322   2.095 -0.0036  0.3030  0.1686
 3732TIP3   OH211159   1.401   1.075   0.669  0.0671  0.7430  0.2295
 3732TIP3    H111160   1.389   1.134   0.744  0.0030  0.6600  0.2853
 3732TIP3    H211161   1.319   1.083   0.619 -0.7709 -0.7652  1.2724
 3733TIP3   OH211162   5.912   1.773   3.775  0.0290 -0.7476 -0.2744
 3733TIP3    H111163   5.996   1.816   3.792 -0.5423 -0.3000  1.6597
 3733TIP3    H211164   5.870   1.827   3.707  0.7906 -0.2899 -0.3879
 3734TIP3   OH211165   6.573   1.725   2.598 -0.7853  0.4200 -0.2456
 3734TIP3    H111166   6.567   1.734   2.503  4.1542  1.0389 -0.7590
 3734TIP3    H211167   6.628   1.798   2.626  1.7361 -2.1811  2.3125
 3735TIP3   OH211168   1.020   5.380   4.043  0.0994  0.0385 -0.0929
 3735TIP3    H111169   1.018   5.435   4.121 -0.3374 -0.7526  0.4640
 3735TIP3    H211170   1.050   5.439   3.973  2.8050  0.2157  1.0898
 3736TIP3   OH211171   2.604   4.203   5.823 -0.4507 -0.0115 -0.0367
 3736TIP3    H111172   2.595   4.165   5.735 -1.5321  1.2243 -0.5002
 3736TIP3    H211173   2.564   4.139   5.881 -1.5321  0.0273 -0.7009
 3737TIP3   OH211174   3.255   0.590   2.146  0.2739 -0.0064 -0.1394
 3737TIP3    H111175   3.172   0.593   2.099  0.9534  1.3279 -1.3427
 3737TIP3    H211176   3.239   0.641   2.225 -0.1674 -0.0735 -0.1824
 3738TIP3   OH211177   2.051   2.798   5.295  0.2278  0.0874 -0.2720
 3738TIP3    H111178   1.984   2.746   5.251 -0.8309  1.3263 -0.1814
 3738TIP3    H211179   2.091   2.849   5.224  0.5670 -0.1013 -0.2169
 3739TIP3   OH211180   1.425   2.243   3.393  0.0797  0.1559 -0.5786
 3739TIP3    H111181   1.403   2.199   3.311 -0.7863  0.2423 -0.3968
 3739TIP3    H211182   1.341   2.260   3.435  0.5072  0.1831  0.2933
 3740TIP3   OH211183   1.803   1.080   1.298 -0.1493  0.2912  0.4181
 3740TIP3    H111184   1.780   1.071   1.390  0.6745 -0.3091  0.5850
 3740TIP3    H211185   1.866   1.152   1.296  0.0509  0.1160  0.3686
 3741TIP3   OH211186   4.397   1.066   2.550  0.0073 -0.2806  0.0398
 3741TIP3    H111187   4.400   1.127   2.624  0.6401 -1.3323  0.9159
 3741TIP3    H211188   4.466   1.096   2.491 -0.4945  0.5593 -0.1409
 3742TIP3   OH211189   4.258   4.768   3.330 -0.2263 -0.3868  0.1441
 3742TIP3    H111190   4.332   4.744   3.273 -1.0670 -0.7360 -0.8246
 3742TIP3    H211191   4.217   4.842   3.286 -0.1931  0.0974  0.9199
 3743TIP3   OH211192   5.569   3.658   3.790  0.0178  0.6990 -0.4563
 3743TIP3    H111193   5.573   3.599   3.865 -0.9146  2.4297  1.0103
 3743TIP3    H211194   5.477   3.659   3.765 -0.3736  3.0757  0.8743
 3744TIP3   OH211195   4.784   5.340   3.990 -0.1627  0.0457 -1.2685
 3744TIP3    H111196   4.839   5.404   4.036  0.1537 -0.6409 -0.6716
 3744TIP3    H211197   4.724   5.393   3.937  0.9340  0.8142 -1.7731
 3745TIP3   OH211198   5.157   6.467   1.712 -0.2871  0.5184 -0.4917
 3745TIP3    H111199   5.093   6.416   1.661 -1.1178  0.3617  0.6725
 3745TIP3    H211200   5.195   6.528   1.648 -1.3617  0.3816 -1.2891
 3746TIP3   OH211201   5.694   4.448   2.667  0.3229  0.5171  0.1419
 3746TIP3    H111202   5.778   4.435   2.625  2.4003  0.3110  3.8995
 3746TIP3    H211203   5.693   4.541   2.691 -0.2623  0.4022  0.5945
 3747TIP3   OH211204   2.899   2.429   3.760  0.1670 -0.3012  0.0243
 3747TIP3    H111205   2.919   2.339   3.736 -1.8709 -0.4532 -1.3637
 3747TIP3    H211206   2.824   2.452   3.705 -0.8950  1.4225  2.0733
 3748TIP3   OH211207   0.512   6.799   1.631 -0.5279 -0.4010  0.8329
 3748TIP3    H111208   0.478   6.712   1.613 -0.4918 -0.7020  2.1574
 3748TIP3    H211209   0.604   6.785   1.653 -0.0155  0.1905 -0.7566
 3749TIP3   OH211210   0.952   2.606   5.475 -0.6219 -0.2806 -0.0202
 3749TIP3    H111211   1.005   2.544   5.525  1.7004  1.1542 -0.5507
 3749TIP3    H211212   0.915   2.664   5.542  1.6087  0.9870  0.2012
 3750TIP3   OH211213   5.727   1.881   1.112  0.3473  0.2735  0.6006
 3750TIP3    H111214   5.656   1.882   1.176 -0.4543  1.5330 -0.2668
 3750TIP3    H211215   5.748   1.788   1.101 -0.8871 -0.0902  1.1645
 3751TIP3   OH211216   2.260   2.565   5.079  0.1883 -0.2087  0.0809
 3751TIP3    H111217   2.229   2.553   5.169 -1.2576 -0.1665 -0.3864
 3751TIP3    H211218   2.314   2.487   5.062 -0.3244 -0.7078  0.6642
 3752TIP3   OH211219   4.801   3.983   4.596 -0.3564  0.0096 -0.0771
 3752TIP3    H111220   4.885   3.952   4.563  0.2081 -0.3129  1.5638
 3752TIP3    H211221   4.782   4.062   4.545  0.2699 -0.6626 -1.3832
 3753TIP3   OH211222   0.087   3.434   3.636  0.6735 -0.1766 -0.1835
 3753TIP3    H111223   0.140   3.514   3.633  0.3758  0.0862  0.9853
 3753TIP3    H211224   0.151   3.363   3.640  0.9401  0.0658 -0.0955
 3754TIP3   OH211225   3.091   6.329   4.667  0.1659  0.4311 -0.0849
 3754TIP3    H111226   3.177   6.369   4.658  1.3484 -2.2412 -1.5526
 3754TIP3    H211227   3.103   6.259   4.731 -1.6555  1.6722  1.7712
 3755TIP3   OH211228   5.026   4.165   0.198  0.0997  0.1486 -0.2302
 3755TIP3    H111229   5.047   4.207   0.115  0.5027 -2.5319 -1.5869
 3755TIP3    H211230   5.039   4.072   0.182 -1.8648 -0.6655  2.2383
 3756TIP3   OH211231   6.469   4.650   4.776  0.6159 -0.1064 -0.0725
 3756TIP3    H111232   6.394   4.668   4.720 -0.2796  0.9151  1.3802
 3756TIP3    H211233   6.430   4.617   4.857  1.7932 -0.3940  0.3887
 3757TIP3   OH211234   7.038   1.560   2.764 -0.1343  0.3184 -0.0891
 3757TIP3    H111235   7.076   1.504   2.830  0.6192  0.6526 -0.2318
 3757TIP3    H211236   7.102   1.561   2.693  0.0465  1.6289  0.0559
 3758TIP3   OH211237   3.998   4.949   1.333 -0.0711 -0.1325  0.1472
 3758TIP3    H111238   4.066   4.898   1.289  0.7388 -0.0687  1.2842
 3758TIP3    H211239   3.920   4.893   1.330  0.2591 -0.5683 -0.4074
 3759TIP3   OH211240   3.538   5.765   5.509 -0.3069 -0.0478 -0.2533
 3759TIP3    H111241   3.589   5.699   5.461 -0.1077 -0.8708  1.0426
 3759TIP3    H211242   3.452   5.762   5.467 -0.1164 -0.6977 -0.6182
 3760TIP3   OH211243   0.673   0.466   1.771  0.3988 -0.1998 -0.4807
 3760TIP3    H111244   0.747   0.526   1.762  0.7634 -0.5200  0.2562
 3760TIP3    H211245   0.638   0.485   1.858  0.4901 -1.0099 -0.2601
 3761TIP3   OH211246   5.901   1.189   4.219  0.1285 -0.4120  0.4836
 3761TIP3    H111247   5.874   1.184   4.127 -0.3037  2.5756  0.3584
 3761TIP3    H211248   5.993   1.215   4.216  0.0812 -0.1885  0.8946
 3762TIP3   OH211249   5.873   3.791   4.696  0.0877  0.1382 -0.3757
 3762TIP3    H111250   5.846   3.881   4.715 -2.2146 -0.2015 -1.6712
 3762TIP3    H211251   5.968   3.792   4.707 -0.0545  2.2562  1.4240
 3763TIP3   OH211252   6.091   4.297   5.191  0.5801  0.1151  0.0113
 3763TIP3    H111253   6.090   4.264   5.281 -1.5413  0.2615  0.0990
 3763TIP3    H211254   6.136   4.382   5.197 -0.9983  0.9098  1.2835
 3764TIP3   OH211255   5.212   1.761   3.386  0.2346  0.0037 -0.1501
 3764TIP3    H111256   5.192   1.759   3.292  1.1790 -0.1599 -0.3587
 3764TIP3    H211257   5.223   1.854   3.406  1.9327 -0.0508 -0.6468
 3765TIP3   OH211258   3.699   3.410   0.262  0.1011  0.2793  0.6469
 3765TIP3    H111259   3.710   3.504   0.276 -0.3796  0.3554  0.5356
 3765TIP3    H211260   3.778   3.371   0.299 -0.9899  0.4712  3.4370
 3766TIP3   OH211261   1.317   2.281   0.884 -0.0026  0.3960 -0.0980
 3766TIP3    H111262   1.366   2.312   0.807  1.4562 -2.3885 -0.4358
 3766TIP3    H211263   1.258   2.214   0.850  0.5870 -0.8095  1.1557
 3767TIP3   OH211264   0.293   6.200   3.162  0.6453  0.5576  0.0609
 3767TIP3    H111265   0.279   6.284   3.205  1.1705 -0.4071  2.2652
 3767TIP3    H211266   0.379   6.171   3.193  0.8182 -0.4713 -1.2644
 3768TIP3   OH211267   0.458   1.705   3.702 -0.1662 -0.1987  0.2333
 3768TIP3    H111268   0.447   1.610   3.699  0.7106 -0.3105 -2.4242
 3768TIP3    H211269   0.370   1.740   3.693 -0.3634 -0.7875 -0.1806
 3769TIP3   OH211270   5.283   3.932   3.326  0.2930  0.4393 -0.9991
 3769TIP3    H111271   5.239   3.867   3.381  0.0431  1.3922 -0.0232
 3769TIP3    H211272   5.225   4.008   3.329  0.1678  0.4525 -2.7821
 3770TIP3   OH211273   0.650   5.330   3.294  0.2966 -0.2690  0.2726
 3770TIP3    H111274   0.597   5.274   3.351  1.5611 -0.7553  1.0118
 3770TIP3    H211275   0.619   5.310   3.206 -2.0842  0.9082  0.7653
 3771TIP3   OH211276   6.326   0.323   1.229 -0.2897  0.4496  0.2677
 3771TIP3    H111277   6.323   0.229   1.213  2.6343  0.0870  1.3410
 3771TIP3    H211278   6.322   0.331   1.324 -0.7275  1.4676  0.1776
 3772TIP3   OH211279   0.832   6.143   4.229  0.1865  0.7450 -0.0685
 3772TIP3    H111280   0.825   6.193   4.147  1.2803  0.3197 -0.4473
 3772TIP3    H211281   0.748   6.098   4.237  0.3477  0.1572 -1.4050
 3773TIP3   OH211282   3.331   4.870   5.031 -0.5928 -0.4597  0.3516
 3773TIP3    H111283   3.265   4.809   5.066  0.8580 -1.7808  0.9047
 3773TIP3    H211284   3.283   4.924   4.968 -1.8345 -2.6368 -0.6996
 3774TIP3   OH211285   4.957   2.118   1.819 -0.1000 -0.2779 -0.2216
 3774TIP3    H111286   4.874   2.156   1.789  0.0914  0.0027 -0.4056
 3774TIP3    H211287   4.931   2.042   1.871 -0.4810 -0.0886 -0.1285
 3775TIP3   OH211288   1.378   1.923   2.258  0.0112 -0.4015 -0.2620
 3775TIP3    H111289   1.317   1.952   2.190 -0.7251 -1.0157  0.1215
 3775TIP3    H211290   1.463   1.958   2.230 -0.3590 -0.2528 -1.2570
 3776TIP3   OH211291   5.311   6.322   5.018  0.0031 -0.1842  0.1714
 3776TIP3    H111292   5.281   6.400   4.971 -1.0931 -0.9092 -0.3859
 3776TIP3    H211293   5.366   6.276   4.954  1.1190  0.3853  0.6871
 3777TIP3   OH211294   1.855   4.632   4.330  0.0963  0.5193 -0.0249
 3777TIP3    H111295   1.782   4.688   4.357  1.9640  2.8501  0.5148
 3777TIP3    H211296   1.880   4.664   4.243  1.1758  0.5307  0.2711
 3778TIP3   OH211297   5.487   4.444   4.757  0.6651 -0.0743 -0.1421
 3778TIP3    H111298   5.509   4.538   4.757 -0.0101  0.1200 -1.6586
 3778TIP3    H211299   5.392   4.442   4.762  0.7275 -0.7328  1.0318
 3779TIP3   OH211300   4.952   3.993   2.232  0.5886  0.3526 -0.1059
 3779TIP3    H111301   4.987   3.904   2.231  2.5092  1.0721 -0.4345
 3779TIP3    H211302   4.922   4.007   2.142  0.6534  0.1705 -0.1573
 3780TIP3   OH211303   6.339   6.206   0.626  0.1822 -0.4396 -0.4355
 3780TIP3    H111304   6.316   6.241   0.541 -1.7637 -0.0676  0.2017
 3780TIP3    H211305   6.290   6.124   0.633  0.2253 -0.4087  0.3684
 3781TIP3   OH211306   7.059   6.153   1.396  0.1195 -0.4268 -0.3643
 3781TIP3    H111307   7.005   6.076   1.378  0.6161 -0.8148 -0.2083
 3781TIP3    H211308   7.026   6.220   1.336 -1.6774 -0.1205  0.8953
 3782TIP3   OH211309   5.862   6.048   2.390 -0.5935 -0.0307  0.2563
 3782TIP3    H111310   5.887   6.105   2.318 -0.9928 -0.0140  0.1278
 3782TIP3    H211311   5.870   5.959   2.355  1.9422 -0.1818  1.0461
 3783TIP3   OH211312   2.870   5.913   0.194 -0.4480 -0.1597  0.2586
 3783TIP3    H111313   2.807   5.976   0.229  2.0300  2.2826  0.7333
 3783TIP3    H211314   2.882   5.849   0.265 -0.9841  0.4470  0.9080
 3784TIP3   OH211315   3.021   4.291   0.995  0.2452 -0.1941  0.5727
 3784TIP3    H111316   2.948   4.330   1.043 -0.4249  0.0247 -0.5900
 3784TIP3    H211317   3.062   4.232   1.058 -1.3714 -0.8696  1.0467
 3785TIP3   OH211318   4.347   5.091   0.882 -0.3384  0.2927  0.6821
 3785TIP3    H111319   4.355   5.006   0.924  0.5798 -0.1192 -0.2867
 3785TIP3    H211320   4.301   5.146   0.947  0.2551 -0.5496  1.8449
 3786TIP3   OH211321   6.721   6.052   0.572  0.1528 -0.1882 -0.1133
 3786TIP3    H111322   6.655   5.990   0.541 -0.4965  0.5123 -0.1832
 3786TIP3    H211323   6.800   6.030   0.522 -0.4844  0.0086 -1.2500
 3787TIP3   OH211324   2.500   5.237   5.643 -0.2126  0.2356 -0.3714
 3787TIP3    H111325   2.536   5.161   5.689  0.5594 -0.4957 -2.0941
 3787TIP3    H211326   2.565   5.257   5.575 -1.4995  0.9983 -1.4228
 3788TIP3   OH211327   6.506   0.928   5.412 -0.0400 -0.1369 -0.4735
 3788TIP3    H111328   6.523   0.942   5.505 -0.7390 -1.0867 -0.1835
 3788TIP3    H211329   6.438   0.992   5.390  0.6747  0.6165 -0.5339
 3789TIP3   OH211330   4.097   6.132   1.364  0.6852  0.2676  0.5059
 3789TIP3    H111331   4.078   6.217   1.404  0.8976 -0.4429  2.2148
 3789TIP3    H211332   4.192   6.133   1.350  1.1383 -0.6456  3.0289
 3790TIP3   OH211333   3.356   2.293   4.826  0.1999  0.5907  0.0765
 3790TIP3    H111334   3.283   2.247   4.786  0.8649 -0.2157 -0.2567
 3790TIP3    H211335   3.424   2.226   4.835  0.0085  0.6292  2.8436
 3791TIP3   OH211336   6.235   6.313   5.326 -0.0124 -0.3115  0.7216
 3791TIP3    H111337   6.229   6.341   5.417  0.5222  0.1844  0.6056
 3791TIP3    H211338   6.149   6.335   5.289  0.0287  0.1810  0.9099
 3792TIP3   OH211339   5.167   2.502   5.037  0.3691 -0.8426 -0.2054
 3792TIP3    H111340   5.096   2.534   4.982  0.1438  0.9760  1.0294
 3792TIP3    H211341   5.242   2.559   5.016  0.7960 -1.2815  0.0898
 3793TIP3   OH211342   1.426   6.178   3.101  0.0843 -0.0010  0.1676
 3793TIP3    H111343   1.456   6.087   3.104 -3.0136 -1.1295  0.7349
 3793TIP3    H211344   1.455   6.210   3.015  2.8771 -0.8411  0.7230
 3794TIP3   OH211345   5.930   3.154   4.991  0.2548 -0.3043 -0.0803
 3794TIP3    H111346   5.943   3.247   5.006 -2.1276 -0.2970  3.1278
 3794TIP3    H211347   5.843   3.136   5.026  0.8822 -3.8398  0.0610
 3795TIP3   OH211348   6.946   6.386   5.079 -0.1814  0.1858  0.6299
 3795TIP3    H111349   6.890   6.443   5.131  0.7857  0.1360  1.7717
 3795TIP3    H211350   7.024   6.438   5.062 -0.1989 -0.0446 -0.2024
 3796TIP3   OH211351   0.906   1.825   1.314 -0.5080  0.1131 -0.2526
 3796TIP3    H111352   0.967   1.885   1.358 -1.4577  1.1163 -0.2462
 3796TIP3    H211353   0.886   1.868   1.231 -2.8742  0.9677  0.6559
 3797TIP3   OH211354   3.201   0.725   0.179 -0.0514 -0.0195  0.1493
 3797TIP3    H111355   3.244   0.722   0.094  0.0570 -1.1681  0.2198
 3797TIP3    H211356   3.108   0.725   0.159 -0.0566 -1.7204  0.0093
 3798TIP3   OH211357   3.609   5.797   0.525  0.5235  0.2862 -0.1350
 3798TIP3    H111358   3.558   5.847   0.588  1.7196  0.0175  1.0922
 3798TIP3    H211359   3.561   5.714   0.516 -0.0668  0.6315 -0.1750
 3799TIP3   OH211360   3.041   0.834   1.533  0.5215 -0.2965  0.2341
 3799TIP3    H111361   3.095   0.875   1.600  0.2157 -0.8930  0.8633
 3799TIP3    H211362   2.955   0.826   1.573 -0.1494  0.9562 -0.8841
 3800TIP3   OH211363   4.846   5.743   5.829  0.4255  0.6343 -0.1747
 3800TIP3    H111364   4.921   5.698   5.869 -0.6034  0.4578  1.6070
 3800TIP3    H211365   4.825   5.689   5.752  0.7158 -0.5966  0.5822
 3801TIP3   OH211366   3.569   4.008   0.214 -0.7084  0.0837 -0.0162
 3801TIP3    H111367   3.505   4.078   0.205 -0.9153 -0.0896  0.0851
 3801TIP3    H211368   3.597   4.013   0.305  0.0217  0.6723 -0.2726
 3802TIP3   OH211369   0.821   3.197   2.672  0.2682 -0.2212 -0.4393
 3802TIP3    H111370   0.782   3.283   2.659 -0.6489 -0.0688  2.5284
 3802TIP3    H211371   0.748   3.136   2.666  0.4647 -0.5033 -0.0675
 3803TIP3   OH211372   5.100   0.553   5.430 -0.1648 -0.1890  0.1458
 3803TIP3    H111373   5.046   0.618   5.474  1.4965  0.9079  0.6617
 3803TIP3    H211374   5.103   0.479   5.491  1.2963  0.9229  1.5329
 3804TIP3   OH211375   1.220   6.157   0.022 -0.8676 -0.3982  0.2992
 3804TIP3    H111376   1.184   6.070   0.037 -0.8849 -0.1333  2.0129
 3804TIP3    H211377   1.144   6.211  -0.001 -1.4535 -0.1318  2.5911
 3805TIP3   OH211378   0.344   3.833   0.846  0.1593  0.0450  0.3808
 3805TIP3    H111379   0.385   3.853   0.762 -2.2151  2.0044 -0.4677
 3805TIP3    H211380   0.370   3.905   0.903  1.0428 -0.8065  1.0735
 3806TIP3   OH211381   6.229   2.642   4.736  0.7937 -0.0808  0.5882
 3806TIP3    H111382   6.279   2.700   4.794  1.2048  0.0999  0.0689
 3806TIP3    H211383   6.141   2.641   4.773  1.2903 -0.8177  1.8220
 3807TIP3   OH211384   5.249   6.005   2.432  0.4249  0.3530  0.4051
 3807TIP3    H111385   5.219   5.954   2.357  0.8941 -0.5556  0.8213
 3807TIP3    H211386   5.183   6.073   2.443  0.0063  0.0879 -0.4210
 3808TIP3   OH211387   1.034   3.773   5.405  0.2523  0.7772  0.8382
 3808TIP3    H111388   1.013   3.740   5.318  0.2298  3.5681 -0.2967
 3808TIP3    H211389   1.093   3.707   5.442  1.4099  0.1757 -1.8534
 3809TIP3   OH211390   5.350   3.863   5.553  0.3638 -0.5330 -0.0394
 3809TIP3    H111391   5.314   3.776   5.539  0.1079 -0.1740 -1.8967
 3809TIP3    H211392   5.390   3.886   5.469 -0.1455  1.3912  0.2001
 3810TIP3   OH211393   2.784   3.466   3.840 -0.2890 -0.7248  0.1802
 3810TIP3    H111394   2.804   3.549   3.795 -2.0340 -0.9579 -1.1097
 3810TIP3    H211395   2.855   3.407   3.813  0.9433  0.2910  1.0700
 3811TIP3   OH211396   4.992   0.863   4.746 -0.7062 -0.2801  0.0392
 3811TIP3    H111397   4.910   0.830   4.709 -0.1618 -0.3782 -1.1082
 3811TIP3    H211398   4.964   0.922   4.816 -1.7171 -1.8056  0.9727
 3812TIP3   OH211399   6.283   1.047   5.070  0.1833  0.3206 -0.2068
 3812TIP3    H111400   6.206   0.991   5.061  0.5619 -0.5533  1.4779
 3812TIP3    H211401   6.356   0.992   5.041  0.3828  0.4560  0.0324
 3813TIP3   OH211402   1.743   3.020   0.561 -0.1141  0.6423  0.5283
 3813TIP3    H111403   1.731   3.096   0.504  0.8680 -0.5777 -1.4318
 3813TIP3    H211404   1.821   3.041   0.613  0.3736  0.8470 -0.2654
 3814TIP3   OH211405   0.504   1.842   5.535  0.4790  0.0003  0.3336
 3814TIP3    H111406   0.432   1.794   5.495  1.0023 -0.1736 -0.4052
 3814TIP3    H211407   0.583   1.802   5.499  0.9327  0.9330  0.2732
 3815TIP3   OH211408   5.225   2.689   3.789  0.2749 -0.1773 -0.5656
 3815TIP3    H111409   5.159   2.743   3.833 -1.0569 -1.7200 -0.5529
 3815TIP3    H211410   5.309   2.720   3.823 -0.4094  2.0491 -0.8010
 3816TIP3   OH211411   1.850   1.480   2.171 -0.4165 -0.2247 -0.4130
 3816TIP3    H111412   1.791   1.450   2.102  0.9049 -2.3542 -0.7137
 3816TIP3    H211413   1.791   1.504   2.243 -1.7049 -1.1558 -1.1003
 3817TIP3   OH211414   0.339   3.311   3.586 -0.2705 -0.3299 -0.2341
 3817TIP3    H111415   0.370   3.221   3.574 -1.2062 -0.5253 -1.3512
 3817TIP3    H211416   0.344   3.350   3.499  0.9831  1.0195  0.3865
 3818TIP3   OH211417   1.694   6.498   5.397 -0.1608 -0.5319 -0.2090
 3818TIP3    H111418   1.713   6.533   5.310 -0.9242 -0.3496 -0.3093
 3818TIP3    H211419   1.636   6.563   5.437  0.2999 -0.5457  0.4945
 3819TIP3   OH211420   2.232   5.787   1.797  0.1480  0.5249  0.0198
 3819TIP3    H111421   2.271   5.714   1.845  0.5431  0.6566 -0.0935
 3819TIP3    H211422   2.217   5.753   1.709 -0.3184  0.3680  0.1581
 3820TIP3   OH211423   2.999   3.618  -0.007  0.3810  0.0784  0.5523
 3820TIP3    H111424   3.020   3.614   0.086  1.8024 -0.5473  0.2377
 3820TIP3    H211425   2.909   3.587  -0.013  0.1214  0.5622  1.7618
 3821TIP3   OH211426   2.018   1.314   0.242  0.1222 -1.0677 -0.3523
 3821TIP3    H111427   2.048   1.262   0.317  1.8675 -1.3752 -1.2114
 3821TIP3    H211428   2.029   1.256   0.167  0.0126 -0.1915 -1.0591
 3822TIP3   OH211429   0.314   6.317   2.890  0.3279 -0.2084 -0.0438
 3822TIP3    H111430   0.362   6.397   2.913 -1.1244  0.5479  0.4726
 3822TIP3    H211431   0.284   6.282   2.974 -0.2898 -0.4988 -0.3792
 3823TIP3   OH211432   5.165   6.715   1.871 -0.1041 -0.3955 -0.2242
 3823TIP3    H111433   5.168   6.758   1.785  1.5989 -0.2305 -0.1170
 3823TIP3    H211434   5.166   6.787   1.934 -1.0064 -0.5270 -0.0440
 3824TIP3   OH211435   4.490   0.327   3.152  0.2442 -0.0624 -0.6079
 3824TIP3    H111436   4.459   0.410   3.186 -1.6811 -0.5575 -1.0030
 3824TIP3    H211437   4.584   0.327   3.168  0.5214  2.7157 -1.7459
 3825TIP3   OH211438   4.870   3.031   5.560 -0.2294  0.3183  0.5668
 3825TIP3    H111439   4.947   2.973   5.560  0.0443  0.6614 -0.4160
 3825TIP3    H211440   4.906   3.119   5.548 -0.8425  0.3289 -1.6037
 3826TIP3   OH211441   7.101   1.915   1.697  0.5399 -0.0335 -0.4955
 3826TIP3    H111442   7.070   1.986   1.641  0.5304 -0.4413 -1.0160
 3826TIP3    H211443   7.179   1.950   1.741  0.5108  0.3061 -0.7197
 3827TIP3   OH211444   2.968   4.469   2.672 -0.2989  0.2204  0.3249
 3827TIP3    H111445   2.968   4.565   2.665  0.3281  0.2294  0.4334
 3827TIP3    H211446   2.886   4.449   2.716 -0.4929  0.7011  0.1914
 3828TIP3   OH211447   6.936   5.999   2.471  0.1153 -0.1276  0.0645
 3828TIP3    H111448   6.932   6.002   2.566 -0.9344 -1.6113  0.1010
 3828TIP3    H211449   7.006   5.936   2.452  1.0530  0.9448 -0.1978
 3829TIP3   OH211450   1.164   0.195   4.357  0.1456 -0.2241  0.1311
 3829TIP3    H111451   1.188   0.179   4.266 -1.8697 -0.7096 -0.3705
 3829TIP3    H211452   1.246   0.216   4.400  1.2224 -0.4691 -1.6912
 3830TIP3   OH211453   5.395   3.771   4.949 -0.4223  0.0263 -0.1115
 3830TIP3    H111454   5.435   3.687   4.925  0.0585 -0.1188  1.0703
 3830TIP3    H211455   5.462   3.814   5.002 -1.6243  0.0144  1.4958
 3831TIP3   OH211456   3.894   6.682   3.203  0.3723 -0.2637  0.0459
 3831TIP3    H111457   3.896   6.588   3.182 -1.7326 -0.4387  0.4168
 3831TIP3    H211458   3.817   6.715   3.157  0.9179  1.2413  0.1624
 3832TIP3   OH211459   3.457   1.740   5.876 -0.5007 -0.2667  0.3767
 3832TIP3    H111460   3.381   1.760   5.931 -1.5364 -0.3868 -0.9832
 3832TIP3    H211461   3.448   1.798   5.801  0.2008 -0.9987 -0.2896
 3833TIP3   OH211462   5.854   1.651   3.163 -0.1433  0.3584 -0.1965
 3833TIP3    H111463   5.917   1.602   3.216 -0.4578 -0.9764 -0.9928
 3833TIP3    H211464   5.785   1.675   3.225  1.5924  2.8650  0.9526
 3834TIP3   OH211465   0.533   2.125   2.327 -0.0698 -0.6382  0.0742
 3834TIP3    H111466   0.516   2.151   2.418  0.3829 -0.0915  0.0120
 3834TIP3    H211467   0.584   2.198   2.291 -2.0181  0.1531 -1.2407
 3835TIP3   OH211468   2.690   2.699   3.835 -0.4413 -0.0001  0.0561
 3835TIP3    H111469   2.654   2.769   3.890  0.0305 -0.0012  0.3713
 3835TIP3    H211470   2.762   2.662   3.886 -0.9771 -1.0331  0.1033
 3836TIP3   OH211471   5.834   5.094   5.703  0.2182  0.2846  0.0949
 3836TIP3    H111472   5.792   5.016   5.740  1.5810  0.4581  2.1906
 3836TIP3    H211473   5.906   5.114   5.763  0.0208  3.0707 -0.4283
 3837TIP3   OH211474   1.914   4.800   1.165 -0.3743 -0.0641 -0.3312
 3837TIP3    H111475   1.867   4.731   1.118 -1.1360  0.5010 -0.4120
 3837TIP3    H211476   2.005   4.790   1.137 -0.6187 -0.5044 -0.9838
 3838TIP3   OH211477   5.351   3.925   2.344 -0.5759  0.2579  0.3891
 3838TIP3    H111478   5.307   3.922   2.429  0.4889  2.2748  1.0787
 3838TIP3    H211479   5.443   3.904   2.363 -0.1484  1.6062 -0.0887
 3839TIP3   OH211480   2.366   5.732   1.277 -0.3275 -0.7753  0.2825
 3839TIP3    H111481   2.276   5.767   1.280  0.1698  0.7161 -0.7139
 3839TIP3    H211482   2.402   5.750   1.363 -0.1919  1.0076 -0.0985
 3840TIP3   OH211483   0.122   0.123   1.851  0.3252 -0.1208  0.1898
 3840TIP3    H111484   0.088   0.212   1.862 -0.2494 -0.0727 -1.6579
 3840TIP3    H211485   0.185   0.113   1.923  0.9549  2.0582  0.0276
 3841TIP3   OH211486   6.949   2.392   2.217  0.2187 -0.0972  0.0366
 3841TIP3    H111487   6.962   2.300   2.194  1.1290  0.1276 -0.3718
 3841TIP3    H211488   6.959   2.394   2.313 -0.3542 -0.5027  0.1110
 3842TIP3   OH211489   6.384   1.964   4.984 -0.0126 -0.1132  0.1616
 3842TIP3    H111490   6.309   2.020   4.964 -0.5737 -1.2230 -0.9843
 3842TIP3    H211491   6.345   1.884   5.018  0.7172 -0.2701  0.6339
 3843TIP3   OH211492   2.590   2.023   1.936  0.1862  0.9690 -0.4143
 3843TIP3    H111493   2.546   2.049   1.856 -0.6085  2.1195  0.3699
 3843TIP3    H211494   2.656   1.960   1.908 -2.1288 -1.1132 -1.6161
 3844TIP3   OH211495   7.085   3.565   3.545 -0.1994  0.1873 -0.3769
 3844TIP3    H111496   7.094   3.652   3.582 -0.2204 -1.1727  3.1836
 3844TIP3    H211497   7.164   3.518   3.571 -1.1896 -1.4880 -0.1926
 3845TIP3   OH211498   3.844   0.099   1.616 -0.0667 -0.1021 -0.2712
 3845TIP3    H111499   3.851   0.014   1.658 -0.2684 -0.4101 -0.8529
 3845TIP3    H211500   3.798   0.082   1.534  0.7743  0.4019 -0.8656
 3846TIP3   OH211501   0.950   0.104   0.287  0.2253 -0.1360 -0.5449
 3846TIP3    H111502   0.904   0.162   0.348 -1.1241 -1.7783  0.0740
 3846TIP3    H211503   1.042   0.127   0.298 -0.1421  0.8986  0.7217
 3847TIP3   OH211504   2.130   4.448   0.690  0.1258 -0.4383  0.4712
 3847TIP3    H111505   2.152   4.386   0.620 -1.2024 -0.6144  0.1661
 3847TIP3    H211506   2.111   4.393   0.766  1.1969 -0.2676  0.8692
 3848TIP3   OH211507   0.411   4.694   5.214 -0.5823 -0.3501  0.2926
 3848TIP3    H111508   0.326   4.686   5.171 -0.8756 -0.2487  0.8375
 3848TIP3    H211509   0.475   4.672   5.146 -1.1297 -3.1344  0.5386
 3849TIP3   OH211510   3.793   1.004   0.373 -0.2366  0.0180  0.3827
 3849TIP3    H111511   3.813   1.090   0.337  0.3409  0.5204  1.8313
 3849TIP3    H211512   3.796   1.016   0.468 -1.9030 -1.1887  0.6535
 3850TIP3   OH211513   6.517   6.548   5.688  0.3907  0.0309  0.8447
 3850TIP3    H111514   6.441   6.579   5.738 -0.3358 -0.9291  0.3641
 3850TIP3    H211515   6.549   6.472   5.738 -2.0773 -2.8075 -1.4432
 3851TIP3   OH211516   4.871   2.233   2.704  0.3563 -0.1033  0.3972
 3851TIP3    H111517   4.879   2.327   2.688 -0.2825  0.0795  1.0634
 3851TIP3    H211518   4.954   2.208   2.743  0.2283  0.3673  0.9936
 3852TIP3   OH211519   2.812   4.454   2.094 -0.2168 -0.1021  0.1277
 3852TIP3    H111520   2.872   4.405   2.151 -0.4375  1.0562  1.4063
 3852TIP3    H211521   2.845   4.437   2.006  0.9988 -0.8132  0.6804
 3853TIP3   OH211522   4.272   1.562   2.326  0.1151  0.2819 -0.2463
 3853TIP3    H111523   4.334   1.558   2.253  2.7791 -1.8715  1.9215
 3853TIP3    H211524   4.223   1.643   2.311  0.7567  0.1529 -4.1461
 3854TIP3   OH211525   4.408   4.901   3.805  0.1557 -0.1380  0.2973
 3854TIP3    H111526   4.497   4.887   3.773  0.1573 -2.5657  1.1334
 3854TIP3    H211527   4.359   4.933   3.729  1.0371 -1.8826 -1.0643
 3855TIP3   OH211528   5.772   4.814   3.487  0.6117  0.4189 -0.0047
 3855TIP3    H111529   5.852   4.829   3.537  0.5810 -1.1067  0.5484
 3855TIP3    H211530   5.726   4.898   3.489  0.7297  0.4875  2.3068
 3856TIP3   OH211531   0.943   5.385   0.373 -0.2436 -0.0002 -0.2263
 3856TIP3    H111532   0.918   5.293   0.360  1.1526 -1.0537  3.3655
 3856TIP3    H211533   1.036   5.387   0.353 -0.4743  0.9305 -1.2957
 3857TIP3   OH211534   1.489   6.243   1.575 -0.6762 -0.2047 -0.2807
 3857TIP3    H111535   1.403   6.284   1.585 -0.4782  0.3671 -0.8492
 3857TIP3    H211536   1.479   6.183   1.502 -0.6646 -0.3351 -0.1754
 3858TIP3   OH211537   1.867   0.374   1.215 -0.0984 -0.0657 -0.5977
 3858TIP3    H111538   1.929   0.306   1.242  0.2091 -0.6057 -2.5647
 3858TIP3    H211539   1.919   0.454   1.211 -0.3346  0.2307  1.1343
 3859TIP3   OH211540   2.318   3.205   1.448 -0.0318  0.1261  0.1831
 3859TIP3    H111541   2.234   3.250   1.458 -0.6335 -0.7405 -0.7629
 3859TIP3    H211542   2.381   3.261   1.492 -0.8686  1.5601 -0.3837
 3860TIP3   OH211543   6.765   6.582   1.801 -0.4113 -0.1891  0.4005
 3860TIP3    H111544   6.852   6.619   1.815  0.1546 -1.3013 -0.0929
 3860TIP3    H211545   6.767   6.549   1.712 -1.3211 -0.2997  0.4116
 3861TIP3   OH211546   1.413   6.304   3.369 -0.1278  0.2401 -0.2488
 3861TIP3    H111547   1.496   6.349   3.385  1.5902 -2.6119 -0.4173
 3861TIP3    H211548   1.426   6.260   3.285 -1.1684 -1.5532  0.4727
 3862TIP3   OH211549   3.287   6.324   3.838  0.2249 -0.1554 -0.4533
 3862TIP3    H111550   3.312   6.232   3.832 -0.4492 -0.3288 -0.6208
 3862TIP3    H211551   3.196   6.323   3.866  0.0046  0.4496 -1.1307
 3863TIP3   OH211552   1.255   3.145   0.086  0.2332 -0.2558 -0.7000
 3863TIP3    H111553   1.274   3.057   0.119  0.6917 -0.0260 -0.3336
 3863TIP3    H211554   1.329   3.198   0.116 -0.4016  0.4124 -0.2773
 3864TIP3   OH211555   7.102   2.957   1.591 -0.2925 -0.6380 -0.5896
 3864TIP3    H111556   7.091   3.009   1.670 -0.8577 -0.4083 -0.8136
 3864TIP3    H211557   7.110   2.867   1.622 -1.7345 -0.7006 -0.3225
 3865TIP3   OH211558   1.626   2.557   1.707  0.4588  0.0567  0.0638
 3865TIP3    H111559   1.692   2.499   1.669  0.1383  0.4285 -1.1068
 3865TIP3    H211560   1.673   2.610   1.771  0.5700 -2.2220  2.0311
 3866TIP3   OH211561   6.534   4.849   5.629  0.0403  0.1534 -0.4196
 3866TIP3    H111562   6.565   4.939   5.631 -0.9731  0.5131 -0.4891
 3866TIP3    H211563   6.482   4.842   5.549  2.9596 -1.5077 -2.3719
 3867TIP3   OH211564   0.085   6.502   2.310  0.1066 -0.2884 -0.0646
 3867TIP3    H111565   0.122   6.443   2.375  0.3312  0.8296  0.8543
 3867TIP3    H211566   0.119   6.588   2.333  2.0028 -0.1257 -2.9858
 3868TIP3   OH211567   5.742   4.069   4.105  0.4392  0.3058 -0.0919
 3868TIP3    H111568   5.753   4.159   4.073  0.1087 -0.2703 -1.9420
 3868TIP3    H211569   5.652   4.067   4.139  0.3598  0.6129 -0.2747
 3869TIP3   OH211570   5.246   5.693   1.116  0.4572  0.0781 -0.3349
 3869TIP3    H111571   5.200   5.705   1.033  3.6001 -0.3738 -2.2986
 3869TIP3    H211572   5.286   5.606   1.109  0.6540 -0.0634  1.7812
 3870TIP3   OH211573   4.143   1.933   1.011 -0.2902 -0.8684 -0.0520
 3870TIP3    H111574   4.129   1.868   1.080  0.2330  1.5061  2.4742
 3870TIP3    H211575   4.055   1.951   0.977 -0.7382 -1.0941  0.9610
 3871TIP3   OH211576   0.545   3.354   5.767 -0.0755 -0.3969 -0.3733
 3871TIP3    H111577   0.571   3.262   5.759  3.5859  0.4429  0.4111
 3871TIP3    H211578   0.499   3.358   5.851  1.8849 -1.1385  0.7859
 3872TIP3   OH211579   0.113   3.919   0.963  0.1587  0.6499  0.4327
 3872TIP3    H111580   0.077   3.993   0.914 -0.1420  0.0561 -0.2616
 3872TIP3    H211581   0.197   3.902   0.921  0.1368  0.4736  0.4605
 3873TIP3   OH211582   4.080   0.061   1.367 -0.2257 -0.1877 -0.3272
 3873TIP3    H111583   3.998   0.015   1.390 -0.6479  1.1918  1.1314
 3873TIP3    H211584   4.133   0.055   1.446 -0.2357  1.6561 -0.1427
 3874TIP3   OH211585   7.036   1.677   1.963 -0.6622 -0.1966 -0.1987
 3874TIP3    H111586   7.032   1.641   2.052 -1.0253 -1.1056 -0.5622
 3874TIP3    H211587   6.950   1.716   1.950 -0.4810  0.2624 -0.0217
 3875TIP3   OH211588   4.049   2.768   4.640 -0.4711 -0.0576 -0.4265
 3875TIP3    H111589   3.963   2.810   4.653  0.0983  0.4913  2.0980
 3875TIP3    H211590   4.037   2.678   4.670 -0.4259 -0.3322 -1.1924
 3876TIP3   OH211591   0.622   4.142   4.465 -0.0352  0.0852 -0.8666
 3876TIP3    H111592   0.601   4.146   4.372 -0.7292 -1.2052 -0.7843
 3876TIP3    H211593   0.564   4.206   4.506  0.4254  0.8138 -1.3370
 3877TIP3   OH211594   0.853   0.380   2.528 -0.1500 -0.3041  0.0652
 3877TIP3    H111595   0.849   0.285   2.531  1.0897 -0.4233 -1.1046
 3877TIP3    H211596   0.946   0.401   2.522 -0.4638  0.8793 -1.4757
 3878TIP3   OH211597   5.830   1.163   3.538  0.2320 -0.1419  0.1756
 3878TIP3    H111598   5.791   1.099   3.479 -0.2587  0.7548 -0.5070
 3878TIP3    H211599   5.763   1.179   3.604  1.4973 -2.5962  2.1858
 3879TIP3   OH211600   2.896   5.199   5.115  0.0827  0.3914  0.1129
 3879TIP3    H111601   2.936   5.116   5.139  0.6758  0.3869 -0.8307
 3879TIP3    H211602   2.858   5.184   5.029 -2.9237  0.1025  1.3642
 3880TIP3   OH211603   2.550   5.913   1.096  0.1953  0.1254  0.1507
 3880TIP3    H111604   2.542   5.906   1.191  0.6763  1.9192  0.3480
 3880TIP3    H211605   2.488   5.848   1.062 -0.8223  0.2600  1.6715
 3881TIP3   OH211606   0.337   2.302   5.592  0.2980  0.5259  0.1878
 3881TIP3    H111607   0.332   2.336   5.681 -0.7147 -0.1408  0.4025
 3881TIP3    H211608   0.331   2.207   5.603 -2.2821  0.5191 -0.7220
 3882TIP3   OH211609   4.659   4.082   4.984 -0.2267  0.0225 -0.1176
 3882TIP3    H111610   4.611   4.025   5.044  1.8435 -0.4202  1.1861
 3882TIP3    H211611   4.632   4.051   4.897 -0.7100 -1.5802  0.5598
 3883TIP3   OH211612   3.374   2.679   1.320  0.0767 -0.2719  0.6353
 3883TIP3    H111613   3.308   2.613   1.299  1.2127 -1.4782  0.7377
 3883TIP3    H211614   3.394   2.664   1.413  1.8121 -1.1796  0.1536
 3884TIP3   OH211615   2.444   4.068   0.515  0.1411  0.4020 -0.3901
 3884TIP3    H111616   2.465   4.157   0.544  1.0028  0.8699 -2.3026
 3884TIP3    H211617   2.398   4.081   0.431 -2.6962 -0.8549  0.8439
 3885TIP3   OH211618   1.899   1.667   2.765  0.0759 -0.5216 -0.0545
 3885TIP3    H111619   1.942   1.649   2.681  0.0033 -1.6511  0.1347
 3885TIP3    H211620   1.959   1.630   2.831  0.1048  0.2999  0.3961
 3886TIP3   OH211621   1.836   3.090   3.543 -0.6677  0.5433  0.4056
 3886TIP3    H111622   1.923   3.071   3.578 -0.8859 -0.3752  0.4902
 3886TIP3    H211623   1.850   3.100   3.449 -0.6389 -0.9754  0.2090
 3887TIP3   OH211624   0.408   4.302   2.840  0.0605  0.7635 -0.5085
 3887TIP3    H111625   0.320   4.330   2.815 -0.3275 -1.4971 -1.9258
 3887TIP3    H211626   0.463   4.326   2.766 -0.4088 -2.5300 -2.1067
 3888TIP3   OH211627   5.371   3.896   4.248  0.6769  0.0797  0.1826
 3888TIP3    H111628   5.428   3.870   4.320  0.8760  0.7775  0.2800
 3888TIP3    H211629   5.360   3.990   4.258  0.4655  0.1402 -0.5282
 3889TIP3   OH211630   0.457   5.039   1.151  0.0516 -0.2366 -0.3891
 3889TIP3    H111631   0.447   4.955   1.197 -0.0425 -1.2150 -2.1043
 3889TIP3    H211632   0.378   5.045   1.097  1.4167 -0.5305 -2.5332
 3890TIP3   OH211633   6.347   0.040   5.680 -0.3043  0.1991 -0.2249
 3890TIP3    H111634   6.324   0.100   5.752 -0.9756 -0.5756  0.2220
 3890TIP3    H211635   6.290  -0.035   5.693  0.3604 -0.4357 -0.9275
 3891TIP3   OH211636   2.764   4.422   5.722 -0.8311  0.3968 -0.0022
 3891TIP3    H111637   2.717   4.345   5.755  0.5793  0.2867  1.8738
 3891TIP3    H211638   2.815   4.389   5.649  1.3472 -1.0106  2.0347
 3892TIP3   OH211639   6.184   0.506   1.458 -0.4674 -0.2846  0.1992
 3892TIP3    H111640   6.140   0.459   1.387 -0.1949 -0.3334  0.0593
 3892TIP3    H211641   6.120   0.508   1.529 -0.2897 -1.3523  0.4063
 3893TIP3   OH211642   1.012   1.956   1.785 -0.1074 -0.1771 -0.1365
 3893TIP3    H111643   1.014   1.916   1.871  0.5201  0.4829  0.1683
 3893TIP3    H211644   1.011   2.050   1.802  0.0586 -0.0365 -0.8420
 3894TIP3   OH211645   2.956   3.208   0.171 -0.0219  0.2578  0.0495
 3894TIP3    H111646   2.920   3.226   0.258 -1.4848 -0.3441 -0.4059
 3894TIP3    H211647   3.034   3.263   0.166  0.7432 -0.5316  2.1684
 3895TIP3   OH211648   4.451   5.044   0.540  0.1351  1.0576 -0.1194
 3895TIP3    H111649   4.370   5.007   0.576 -0.4360  2.5818  0.2592
 3895TIP3    H211650   4.512   5.045   0.614  0.5648 -0.2068 -0.4359
 3896TIP3   OH211651   0.309   1.241   1.061 -0.5948 -0.5063  0.1673
 3896TIP3    H111652   0.225   1.271   1.028 -2.1463 -2.8329  1.7510
 3896TIP3    H211653   0.331   1.302   1.131 -0.2393  0.8934 -1.1118
 3897TIP3   OH211654   3.564   0.070   3.776  0.7426 -0.4855 -0.0703
 3897TIP3    H111655   3.552  -0.014   3.732  2.6840 -0.3507 -0.9823
 3897TIP3    H211656   3.557   0.136   3.706 -1.3958  0.2278  0.7296
 3898TIP3   OH211657   3.504   1.953   2.472  0.1418  0.5808 -0.4227
 3898TIP3    H111658   3.456   1.976   2.393  0.6790  0.3208 -0.8242
 3898TIP3    H211659   3.462   2.005   2.541 -0.6151  0.4730 -0.7936
 3899TIP3   OH211660   3.021   6.035   4.256 -0.3521  0.2604 -0.3593
 3899TIP3    H111661   3.013   6.082   4.173 -1.7854 -0.7349 -0.8336
 3899TIP3    H211662   2.999   6.099   4.323 -0.8731  0.6436 -0.8890
 3900TIP3   OH211663   6.163   5.188   3.298 -0.4481  0.2913 -0.0988
 3900TIP3    H111664   6.171   5.174   3.204 -0.6317 -0.7960  0.0320
 3900TIP3    H211665   6.166   5.100   3.336  1.9393  0.7941  1.1068
 3901TIP3   OH211666   3.127   4.006   2.480 -0.4478 -0.0409 -0.0987
 3901TIP3    H111667   3.164   4.026   2.394 -1.9082  0.8960 -0.5362
 3901TIP3    H211668   3.201   3.971   2.530  0.3654 -0.8817 -1.8126
 3902TIP3   OH211669   2.447   6.796   3.259 -0.0193  0.2441  0.1328
 3902TIP3    H111670   2.357   6.768   3.269 -1.0567  2.2525 -2.2752
 3902TIP3    H211671   2.470   6.836   3.343 -1.3196 -0.4035  0.8112
 3903TIP3   OH211672   0.814   2.856   5.891  0.6923  0.1030 -1.1389
 3903TIP3    H111673   0.885   2.802   5.925  2.1687  2.8776  0.5373
 3903TIP3    H211674   0.803   2.827   5.801  2.5864 -1.7501 -0.8452
 3904TIP3   OH211675   2.247   5.867   1.044  0.6652  0.5623 -0.2446
 3904TIP3    H111676   2.276   5.956   1.061  2.0981  0.1867 -0.5647
 3904TIP3    H211677   2.161   5.861   1.086  1.2127  1.6312  1.0998
 3905TIP3   OH211678   2.807   0.863   3.641 -0.1855  0.2876  0.7460
 3905TIP3    H111679   2.737   0.841   3.580  0.8906 -1.3266  0.0190
 3905TIP3    H211680   2.849   0.779   3.660  1.8837  1.2673  0.7342
 3906TIP3   OH211681   5.447   0.867   4.473 -0.2962 -0.3209  0.6344
 3906TIP3    H111682   5.355   0.871   4.501 -0.3201  1.0957  0.4499
 3906TIP3    H211683   5.442   0.867   4.377 -0.0993  1.4357  0.5937
 3907TIP3   OH211684   1.614   1.829   0.005  0.3261 -0.0103  0.0326
 3907TIP3    H111685   1.521   1.820  -0.019  0.2159  0.4535  0.2633
 3907TIP3    H211686   1.624   1.775   0.083 -0.1604  1.2220  0.9975
 3908TIP3   OH211687   1.477   0.720   4.552 -0.7363 -0.0624  0.4852
 3908TIP3    H111688   1.466   0.777   4.628  2.6508  0.9483  0.3615
 3908TIP3    H211689   1.487   0.632   4.589 -2.1763 -0.0517  0.9467
 3909TIP3   OH211690   4.762   5.959   0.181 -0.3413  0.5858  0.3938
 3909TIP3    H111691   4.846   5.914   0.189  0.6009  2.1015 -0.4795
 3909TIP3    H211692   4.707   5.900   0.129  0.8304  0.3681 -0.6432
 3910TIP3   OH211693   4.901   2.794   0.299 -0.7068  0.6911 -0.5122
 3910TIP3    H111694   4.939   2.881   0.311 -0.1368  0.4644 -0.6416
 3910TIP3    H211695   4.866   2.771   0.385  1.0722  0.1482  0.1086
 3911TIP3   OH211696   4.902   3.832   4.320  0.1634 -0.4768  0.5631
 3911TIP3    H111697   4.822   3.792   4.287  0.9109 -0.7819 -0.9368
 3911TIP3    H211698   4.937   3.768   4.382  1.3194 -2.2180 -1.7658
 3912TIP3   OH211699   3.426   2.530   4.620 -0.2224  0.0517  0.8216
 3912TIP3    H111700   3.426   2.472   4.696  2.2527  0.5094  1.2578
 3912TIP3    H211701   3.402   2.474   4.547  1.0261 -1.3001  1.4000
 3913TIP3   OH211702   1.784   0.740   5.507  0.0008 -0.5604 -0.2628
 3913TIP3    H111703   1.842   0.698   5.444 -0.3343 -0.2412 -0.7839
 3913TIP3    H211704   1.749   0.816   5.462  0.8199  0.4689  0.7630
 3914TIP3   OH211705   4.863   2.489   5.148 -0.0956 -0.1935 -0.8534
 3914TIP3    H111706   4.791   2.466   5.088  0.7560  0.7721 -2.3091
 3914TIP3    H211707   4.942   2.467   5.099  0.6831 -2.3812  1.1815
 3915TIP3   OH211708   2.436   0.719   3.102 -0.0957 -0.4626 -0.5282
 3915TIP3    H111709   2.370   0.738   3.169  0.5500 -1.0391  0.2975
 3915TIP3    H211710   2.459   0.627   3.116 -1.4321 -1.2628 -2.8984
 3916TIP3   OH211711   0.848   4.417   5.660 -0.7075 -0.1065 -0.4497
 3916TIP3    H111712   0.885   4.389   5.744 -1.1334  1.0292  0.1348
 3916TIP3    H211713   0.865   4.343   5.601  0.8996 -0.3505  0.2509
 3917TIP3   OH211714   1.597   4.896   2.170  0.2012 -0.3018  0.5289
 3917TIP3    H111715   1.581   4.832   2.101  0.3376 -0.7263  0.8859
 3917TIP3    H211716   1.644   4.847   2.237  0.2437  0.1575  0.8352
 3918TIP3   OH211717   5.760   4.060   2.576  0.0982 -0.0274  0.0216
 3918TIP3    H111718   5.679   4.043   2.527  0.3909  0.0991 -0.5153
 3918TIP3    H211719   5.780   3.977   2.620  0.3178 -0.4211 -0.8010
 3919TIP3   OH211720   6.296   4.410   1.727 -0.7331 -0.3765 -0.5402
 3919TIP3    H111721   6.242   4.382   1.801 -1.1803 -0.6324 -0.9626
 3919TIP3    H211722   6.373   4.451   1.768 -1.5774  0.6426  0.0671
 3920TIP3   OH211723   2.005   6.455   4.731 -0.7310 -0.0525  0.0293
 3920TIP3    H111724   2.047   6.379   4.692 -0.9326 -0.3098  0.3057
 3920TIP3    H211725   1.998   6.518   4.660  0.2861  0.0655  0.0256
 3921TIP3   OH211726   5.509   5.693   2.970 -0.2903 -0.8168 -0.3344
 3921TIP3    H111727   5.455   5.660   3.042 -2.8733 -0.1082 -1.8073
 3921TIP3    H211728   5.474   5.780   2.952  0.2869 -0.9678 -2.4046
 3922TIP3   OH211729   5.917   4.362   3.977  0.1580  0.2872  0.4578
 3922TIP3    H111730   5.943   4.399   3.892 -0.3408 -1.2377 -0.3943
 3922TIP3    H211731   5.836   4.314   3.959  0.1014 -0.1497  1.7803
 3923TIP3   OH211732   1.413   2.824   1.591 -0.1414  0.4303 -0.3507
 3923TIP3    H111733   1.334   2.798   1.544  1.3296  0.6171 -3.1255
 3923TIP3    H211734   1.448   2.741   1.625  1.2661 -0.5643 -3.8385
 3924TIP3   OH211735   3.082   2.659   1.900  0.4907  0.2836  0.3654
 3924TIP3    H111736   3.118   2.710   1.827 -2.4290  1.2479 -0.5342
 3924TIP3    H211737   3.035   2.588   1.857 -4.8817  3.1256  0.7249
 3925TIP3   OH211738   7.076   0.774   2.765  0.2872  0.3322 -0.2077
 3925TIP3    H111739   6.984   0.758   2.747  1.0276 -1.2474 -3.2278
 3925TIP3    H211740   7.109   0.691   2.800  0.5964  0.8930  0.8844
 3926TIP3   OH211741   3.594   3.990   4.857 -0.2445 -0.0962  0.2994
 3926TIP3    H111742   3.638   4.069   4.890  1.2145 -0.1037 -1.4666
 3926TIP3    H211743   3.666   3.928   4.841 -1.2861 -1.4852  0.8343
 3927TIP3   OH211744   4.118   0.790   2.592  0.0771 -0.3288 -0.6073
 3927TIP3    H111745   4.127   0.873   2.639  1.2234 -0.8369  0.1050
 3927TIP3    H211746   4.182   0.796   2.521  1.3194 -1.2228  0.4002
 3928TIP3   OH211747   4.181   4.695   5.778  0.1551 -0.2909 -0.1503
 3928TIP3    H111748   4.194   4.779   5.822  0.4110 -0.1365 -0.5159
 3928TIP3    H211749   4.224   4.705   5.694  2.5429 -1.6701  0.8097
 3929TIP3   OH211750   6.567   3.602   0.417  0.2867  0.5459  0.1901
 3929TIP3    H111751   6.500   3.537   0.395  1.0279 -0.0527 -0.3460
 3929TIP3    H211752   6.641   3.551   0.448  1.0404  1.0968 -0.6560
 3930TIP3   OH211753   4.063   0.692   1.224 -0.2324  0.8411 -0.1496
 3930TIP3    H111754   3.980   0.683   1.270  0.0446 -0.3954  0.1660
 3930TIP3    H211755   4.044   0.662   1.135 -0.0536  0.2144  0.0183
 3931TIP3   OH211756   0.082   3.503   2.716  0.2623  0.2845  0.6996
 3931TIP3    H111757   0.078   3.590   2.677  1.1589  0.3976  0.8425
 3931TIP3    H211758   0.170   3.472   2.697 -0.2043 -0.8164  0.1875
 3932TIP3   OH211759   5.028   1.518   2.037 -0.6917 -0.3035 -0.1795
 3932TIP3    H111760   5.079   1.598   2.047  1.5884 -1.2777 -2.7229
 3932TIP3    H211761   4.938   1.548   2.022  0.2131  1.8627 -1.7730
 3933TIP3   OH211762   4.542   6.093   1.329 -0.0979  0.1002 -0.4516
 3933TIP3    H111763   4.529   6.112   1.422 -0.3868  1.1331 -0.6853
 3933TIP3    H211764   4.537   5.998   1.323 -3.8901  0.1207  0.0554
 3934TIP3   OH211765   3.408   3.149   5.142  0.5501 -0.2789 -0.9349
 3934TIP3    H111766   3.313   3.158   5.139  0.5088 -0.6159 -0.6715
 3934TIP3    H211767   3.422   3.058   5.168  0.9135  1.0793  4.7670
 3935TIP3   OH211768   3.681   2.922   1.012  0.6750  0.3426 -0.1883
 3935TIP3    H111769   3.749   2.928   1.079  0.5248 -0.2991  0.0307
 3935TIP3    H211770   3.643   2.835   1.024  0.3372  0.3961 -0.8132
 3936TIP3   OH211771   3.831   5.797   4.137  0.2649  0.0758 -0.6061
 3936TIP3    H111772   3.774   5.807   4.214  1.3073 -0.0685  0.2166
 3936TIP3    H211773   3.794   5.856   4.072 -0.4134  0.5112  0.1469
 3937TIP3   OH211774   2.144   0.331   4.862  0.5121  0.3470 -0.0525
 3937TIP3    H111775   2.178   0.293   4.780 -0.2002 -0.1045 -0.1499
 3937TIP3    H211776   2.172   0.422   4.859 -0.9595  0.8176 -1.6604
 3938TIP3   OH211777   1.815   0.302   4.570 -0.7187 -0.0723 -0.3657
 3938TIP3    H111778   1.905   0.289   4.538 -1.7609 -0.8113 -3.3430
 3938TIP3    H211779   1.794   0.220   4.615  0.1593  0.2236  0.6284
 3939TIP3   OH211780   5.434   2.472   2.235 -0.3095 -0.1572  0.2286
 3939TIP3    H111781   5.396   2.502   2.318  1.6544  1.0394  0.7652
 3939TIP3    H211782   5.528   2.477   2.249  0.1080  1.0617 -2.3786
 3940TIP3   OH211783   2.104   5.173   0.321 -0.0383  0.1323  0.2242
 3940TIP3    H111784   2.050   5.232   0.269 -1.3320  1.4189  2.8193
 3940TIP3    H211785   2.063   5.088   0.312 -0.3960  0.3858 -0.6064
 3941TIP3   OH211786   7.130   2.404   0.670  0.3861 -0.0880  0.0493
 3941TIP3    H111787   7.062   2.458   0.710 -0.8666 -1.7609  0.2553
 3941TIP3    H211788   7.142   2.331   0.731  2.3894  0.1435  0.0248
 3942TIP3   OH211789   2.280   2.042   1.158  0.3896 -0.1587  0.1722
 3942TIP3    H111790   2.321   1.975   1.104  0.4357 -0.4247  0.5347
 3942TIP3    H211791   2.354   2.091   1.196  0.3594 -0.0682  0.1153
 3943TIP3   OH211792   3.199   0.255   3.925 -0.9455  0.7822  0.2229
 3943TIP3    H111793   3.209   0.168   3.886 -1.2563  0.5730  0.5988
 3943TIP3    H211794   3.196   0.239   4.020 -1.1504  1.1850  0.2887
 3944TIP3   OH211795   5.431   4.872   3.398  0.5712  0.4649  1.1102
 3944TIP3    H111796   5.366   4.941   3.384  0.3859 -0.1960 -2.1792
 3944TIP3    H211797   5.422   4.814   3.322  2.5595 -1.7001  2.3629
 3945TIP3   OH211798   4.795   0.880   0.768  0.3630  0.3740 -0.8435
 3945TIP3    H111799   4.729   0.901   0.702 -0.0009  2.7190  0.1722
 3945TIP3    H211800   4.862   0.947   0.756 -0.7233  2.2491  2.4438
 3946TIP3   OH211801   1.204   4.550   5.328 -0.0628 -0.1440 -0.4675
 3946TIP3    H111802   1.125   4.555   5.383  1.0957  0.0335  1.2447
 3946TIP3    H211803   1.248   4.634   5.343  0.8844 -0.5904 -0.7187
 3947TIP3   OH211804   1.271   4.346   5.814 -0.0710 -0.1845  0.0869
 3947TIP3    H111805   1.304   4.268   5.769 -1.6015 -1.4650  1.0470
 3947TIP3    H211806   1.339   4.367   5.878  0.7719 -0.1574 -0.7971
 3948TIP3   OH211807   4.025   3.954   4.893  0.5612 -0.0083 -0.4064
 3948TIP3    H111808   3.968   3.980   4.820  0.1826  0.1367 -0.0682
 3948TIP3    H211809   3.972   3.891   4.942  0.1109  1.1880  0.7133
 3949TIP3   OH211810   6.013   1.277   4.923 -1.1840 -0.0233  0.3184
 3949TIP3    H111811   5.952   1.331   4.873 -1.4396  0.3023  0.9719
 3949TIP3    H211812   6.024   1.198   4.870 -0.3025  0.9190 -0.9715
 3950TIP3   OH211813   5.760   6.457   4.828 -0.6305  0.9274 -0.0547
 3950TIP3    H111814   5.809   6.457   4.746 -1.2990 -0.9282 -0.5150
 3950TIP3    H211815   5.818   6.499   4.891  0.3089  1.4692 -1.2384
 3951TIP3   OH211816   4.840   0.119   3.555  0.5130 -0.5211 -0.0367
 3951TIP3    H111817   4.904   0.099   3.623  0.0720 -0.3008  0.4443
 3951TIP3    H211818   4.813   0.209   3.572 -0.3451 -0.7978  0.1082
 3952TIP3   OH211819   5.613   5.619   2.669 -0.2060 -0.2036 -0.4438
 3952TIP3    H111820   5.615   5.658   2.756 -2.4764 -0.3190 -0.2753
 3952TIP3    H211821   5.625   5.693   2.609 -0.3646  0.1289 -0.0635
 3953TIP3   OH211822   6.198   1.734   3.312 -0.3681  0.5965  0.0107
 3953TIP3    H111823   6.192   1.807   3.250 -1.8984  1.6171  1.2706
 3953TIP3    H211824   6.147   1.664   3.273 -0.0267  0.6747 -0.5873
 3954TIP3   OH211825   5.356   0.141   5.674 -0.4562  0.3582 -0.8622
 3954TIP3    H111826   5.266   0.117   5.697 -1.1067  3.2169  0.0428
 3954TIP3    H211827   5.404   0.134   5.757  0.2115 -1.1675 -1.3442
 3955TIP3   OH211828   0.421   2.714   1.957  0.3497 -0.0907 -0.2701
 3955TIP3    H111829   0.396   2.751   1.872 -1.8621  1.3526  0.9232
 3955TIP3    H211830   0.401   2.621   1.948 -3.0368  0.5102 -0.3989
 3956TIP3   OH211831   4.181   6.214   2.809  0.1139  0.9813  0.5085
 3956TIP3    H111832   4.224   6.167   2.736 -1.0204 -0.9311  0.9949
 3956TIP3    H211833   4.121   6.275   2.766 -0.4467 -0.0324 -0.2056
 3957TIP3   OH211834   2.243   3.667   3.803  0.8545 -0.4317 -0.7050
 3957TIP3    H111835   2.167   3.618   3.770  0.0005  1.0101 -0.9716
 3957TIP3    H211836   2.270   3.722   3.730 -0.4245  2.0582  0.5541
 3958TIP3   OH211837   1.748   6.659   5.176 -0.3794 -0.5032 -0.8269
 3958TIP3    H111838   1.746   6.744   5.219 -0.3969  0.2156 -2.2022
 3958TIP3    H211839   1.810   6.670   5.104 -1.4842 -1.1960 -1.9303
 3959TIP3   OH211840   3.279   4.585   2.875 -0.5534 -0.3437  0.2221
 3959TIP3    H111841   3.297   4.663   2.823 -0.4227 -0.5684 -0.0758
 3959TIP3    H211842   3.258   4.518   2.810 -1.2732 -0.4002  0.5017
 3960TIP3   OH211843   6.454   6.556   4.114  0.6398 -0.1168 -0.2488
 3960TIP3    H111844   6.513   6.484   4.090 -0.2509 -1.3286  1.0056
 3960TIP3    H211845   6.376   6.512   4.148 -0.7366  1.4382 -1.2149
 3961TIP3   OH211846   5.272   2.770   5.230  0.6243  0.6834 -0.2596
 3961TIP3    H111847   5.355   2.773   5.277  1.3933  0.5693 -1.5822
 3961TIP3    H211848   5.216   2.833   5.276  1.1385  0.1122  1.1812
 3962TIP3   OH211849   1.216   5.721   0.196  0.5618 -0.4986  0.0846
 3962TIP3    H111850   1.212   5.791   0.261  0.5972 -1.0465  0.6891
 3962TIP3    H211851   1.292   5.670   0.221 -1.5377 -2.9722  1.9889
 3963TIP3   OH211852   1.741   2.733   1.908  0.2312 -0.0670  0.4161
 3963TIP3    H111853   1.770   2.787   1.835  0.0761  0.9025  1.0613
 3963TIP3    H211854   1.654   2.767   1.930  0.7941  0.5057  1.8719
 3964TIP3   OH211855   2.362   5.177   3.767  0.6644 -0.4807  0.1043
 3964TIP3    H111856   2.364   5.154   3.674 -1.6110 -0.5703  0.0316
 3964TIP3    H211857   2.449   5.215   3.784  0.3931  1.6554 -2.6179
 3965TIP3   OH211858   7.197   1.078   2.194  0.0636  0.0567  0.0718
 3965TIP3    H111859   7.122   1.019   2.196  0.6271 -0.7709 -1.4138
 3965TIP3    H211860   7.159   1.166   2.198 -1.2316 -0.2292 -2.9061
 3966TIP3   OH211861   6.494   1.377   4.174 -0.2466 -0.2639  0.3958
 3966TIP3    H111862   6.463   1.456   4.219 -1.5664  0.5018 -1.6914
 3966TIP3    H211863   6.423   1.314   4.184  0.1134 -0.6312  0.6695
 3967TIP3   OH211864   2.510   2.194   1.207 -0.3738  0.7159  0.2309
 3967TIP3    H111865   2.503   2.220   1.298 -1.1210 -0.7489  0.6210
 3967TIP3    H211866   2.601   2.165   1.197 -0.3405  0.7114  0.5596
 3968TIP3   OH211867   2.775   6.749   4.780  0.2830 -0.3271  0.0983
 3968TIP3    H111868   2.816   6.834   4.798 -1.7578  1.2884 -2.1783
 3968TIP3    H211869   2.743   6.719   4.866  1.3078  1.0242  0.9996
 3969TIP3   OH211870   0.415   2.832   3.853  0.3270  0.2104  0.0800
 3969TIP3    H111871   0.390   2.918   3.887 -1.4678 -0.6809  1.2189
 3969TIP3    H211872   0.335   2.780   3.860  1.8762 -2.1821  1.5677
 3970TIP3   OH211873   5.767   3.841   5.001  0.1824  0.6802 -0.2782
 3970TIP3    H111874   5.765   3.769   4.938  0.9470  0.2121  0.2081
 3970TIP3    H211875   5.821   3.908   4.961  1.6526 -0.0870  0.3273
 3971TIP3   OH211876   2.544   1.715   1.713  0.7101 -0.6279  0.1009
 3971TIP3    H111877   2.621   1.716   1.770  2.1208 -1.0935 -1.7229
 3971TIP3    H211878   2.555   1.791   1.656  0.4217 -1.3506 -0.9330
 3972TIP3   OH211879   4.123   4.015   0.340  0.6294  0.0499  0.2675
 3972TIP3    H111880   4.189   3.967   0.289 -0.1284 -2.6492  1.6198
 3972TIP3    H211881   4.076   4.068   0.276  2.3182 -0.0950 -1.1478
 3973TIP3   OH211882   7.069   5.938   5.751 -0.2300  0.4371  0.1684
 3973TIP3    H111883   7.072   6.023   5.706  4.6691  1.5869  2.0114
 3973TIP3    H211884   7.068   5.874   5.680  0.2531  2.0736 -1.4106
 3974TIP3   OH211885   6.246   3.152   5.366 -0.3855  0.0395  0.0610
 3974TIP3    H111886   6.192   3.230   5.356 -0.0129  0.1549 -1.1265
 3974TIP3    H211887   6.192   3.081   5.331  0.1513  0.1268 -0.9568
 3975TIP3   OH211888   4.376   2.042   2.765  0.4634  0.2220 -0.0119
 3975TIP3    H111889   4.312   1.981   2.801  1.6423  0.1002  1.9973
 3975TIP3    H211890   4.461   1.999   2.778  1.0330  0.1345 -3.0979
 3976TIP3   OH211891   5.529   0.546   1.240  0.3919 -0.2382 -0.2544
 3976TIP3    H111892   5.482   0.464   1.255  0.6140 -0.1662  0.9692
 3976TIP3    H211893   5.492   0.606   1.305  0.9773  0.3202 -0.4325
 3977TIP3   OH211894   5.031   1.356   0.630  0.6475  0.2916  0.9682
 3977TIP3    H111895   4.952   1.303   0.618  0.6459 -0.1261  2.6371
 3977TIP3    H211896   5.084   1.305   0.691  1.9806  0.8349  0.3010
 3978TIP3   OH211897   0.332   0.976   3.993  0.4146  0.5052 -0.7669
 3978TIP3    H111898   0.273   1.052   3.991 -0.1119  0.1322  0.1419
 3978TIP3    H211899   0.299   0.921   4.063 -0.1723 -1.3680 -2.4148
 3979TIP3   OH211900   0.897   4.268   2.572 -0.4647  0.9032  0.1638
 3979TIP3    H111901   0.977   4.220   2.552 -3.4701 -4.3511 -1.0494
 3979TIP3    H211902   0.857   4.285   2.487 -1.1137  2.6555  0.7801
 3980TIP3   OH211903   0.550   3.111   0.482 -0.6347 -1.0027  0.0066
 3980TIP3    H111904   0.568   3.033   0.535  0.8287  0.3196  1.6079
 3980TIP3    H211905   0.565   3.083   0.392 -0.9131 -2.7542  0.4684
 3981TIP3   OH211906   2.040   4.852   3.110  0.2134  0.4583  0.1819
 3981TIP3    H111907   2.046   4.889   3.198 -0.8748 -1.4859  1.1516
 3981TIP3    H211908   1.969   4.788   3.116  0.0621  0.3214 -2.1447
 3982TIP3   OH211909   0.476   2.124   4.728 -0.3621 -0.2752  0.8197
 3982TIP3    H111910   0.485   2.156   4.818  1.1792 -0.0503  0.6081
 3982TIP3    H211911   0.402   2.063   4.732  0.9705 -1.8994  2.7199
 3983TIP3   OH211912   5.720   1.454   2.837 -0.5348 -0.0351  0.2263
 3983TIP3    H111913   5.692   1.368   2.869 -0.2311  0.5775  2.2954
 3983TIP3    H211914   5.649   1.513   2.861 -1.0424  0.2441 -1.7638
 3984TIP3   OH211915   2.044   0.581   1.621 -0.3059  0.5945 -0.7342
 3984TIP3    H111916   2.102   0.533   1.561  0.9300  1.7392 -0.4972
 3984TIP3    H211917   2.035   0.523   1.697  0.8508  0.5371 -0.6208
 3985TIP3   OH211918   1.379   5.008   4.163 -0.0206  0.4923  0.4671
 3985TIP3    H111919   1.388   4.914   4.148 -2.2724  0.0342  1.4872
 3985TIP3    H211920   1.368   5.046   4.076  2.3080  0.0704 -0.0840
 3986TIP3   OH211921   5.202   2.762   2.014 -0.1086  0.3525 -0.2065
 3986TIP3    H111922   5.141   2.728   1.949 -0.5411 -0.7562  0.7448
 3986TIP3    H211923   5.288   2.744   1.978 -0.3396 -0.5093 -0.3607
 3987TIP3   OH211924   5.939   3.578   3.960 -0.0274  0.2656 -0.0678
 3987TIP3    H111925   5.850   3.575   3.994  0.2279 -1.0149  0.5753
 3987TIP3    H211926   5.994   3.565   4.037  0.7287  1.1837 -0.4354
 3988TIP3   OH211927   3.816   2.341   0.326  0.8900 -0.0821 -0.0538
 3988TIP3    H111928   3.777   2.396   0.258  1.0555  0.1031 -0.0005
 3988TIP3    H211929   3.883   2.291   0.280  1.8224  0.9080  0.1898
 3989TIP3   OH211930   1.374   2.860   2.142  0.0015  0.4033  0.3558
 3989TIP3    H111931   1.287   2.899   2.153  0.7799  1.8817  1.6900
 3989TIP3    H211932   1.406   2.845   2.231  0.9165 -0.6124 -0.1126
 3990TIP3   OH211933   4.175   1.197   1.166  0.1417 -0.0301  0.0815
 3990TIP3    H111934   4.259   1.191   1.213  0.1659 -0.8787 -0.0609
 3990TIP3    H211935   4.195   1.168   1.077 -0.7861 -2.6978  0.6551
 3991TIP3   OH211936   5.832   0.764   3.708  0.2491  0.4057  0.4459
 3991TIP3    H111937   5.775   0.769   3.632 -1.4672 -1.4275  1.5209
 3991TIP3    H211938   5.823   0.849   3.750  0.0504  0.9087 -0.5742
 3992TIP3   OH211939   1.818   0.649   0.385 -0.3092  0.4356 -0.0774
 3992TIP3    H111940   1.809   0.744   0.396  0.9196  0.6105 -0.4076
 3992TIP3    H211941   1.793   0.633   0.294 -0.4580  0.4440 -0.0390
 3993TIP3   OH211942   6.265   3.200   2.041 -0.2547  0.1641 -0.1424
 3993TIP3    H111943   6.283   3.110   2.014 -0.9026 -0.3715  1.1203
 3993TIP3    H211944   6.310   3.254   1.976 -0.9849 -1.0402 -1.7142
 3994TIP3   OH211945   3.285   3.075   2.403  0.2887 -0.2922  0.1490
 3994TIP3    H111946   3.231   3.120   2.468  1.9558 -0.4494  1.7237
 3994TIP3    H211947   3.301   2.988   2.441  2.9196  0.2855  0.5631
 3995TIP3   OH211948   1.897   5.554   5.620 -0.1337  0.1931  0.1803
 3995TIP3    H111949   1.987   5.536   5.592 -0.4944 -0.8231 -0.3922
 3995TIP3    H211950   1.876   5.639   5.583 -0.1781 -0.5825 -1.6650
 3996TIP3   OH211951   4.156   2.340   1.422  0.4099 -0.2027 -0.2613
 3996TIP3    H111952   4.197   2.267   1.375 -0.9079 -0.9498 -0.3132
 3996TIP3    H211953   4.064   2.337   1.395  0.4632  2.0008 -0.8832
 3997TIP3   OH211954   6.612   4.589   5.704 -0.1459 -0.2982 -0.6904
 3997TIP3    H111955   6.596   4.677   5.671  2.6001  0.5277 -0.0298
 3997TIP3    H211956   6.614   4.599   5.799  0.0699 -1.1070 -0.6000
 3998TIP3   OH211957   4.691   1.827   2.971 -0.0705  0.0894 -0.3663
 3998TIP3    H111958   4.673   1.746   2.924  0.3808  0.0629 -0.5003
 3998TIP3    H211959   4.734   1.799   3.052 -0.8601  0.1342  0.0758
 3999TIP3   OH211960   0.024   1.938   3.971  0.1245  0.0462 -0.4187
 3999TIP3    H111961   0.075   1.972   3.897 -1.8080 -0.7206 -2.2194
 3999TIP3    H211962  -0.063   1.978   3.960 -0.5434 -1.0389  0.7278
 4000TIP3   OH211963   6.735   5.109   2.671 -0.2154  0.0157 -0.0392
 4000TIP3    H111964   6.802   5.047   2.702 -0.5302 -0.9808 -1.2599
 4000TIP3    H211965   6.656   5.055   2.665 -0.6328  0.6942 -0.5841
 4001TIP3   OH211966   2.506   0.423   3.786 -0.0041  0.0736  0.3493
 4001TIP3    H111967   2.556   0.401   3.864  0.2853  1.0429  0.4436
 4001TIP3    H211968   2.433   0.476   3.818  0.0307  0.3502 -0.0154
 4002TIP3   OH211969   6.253   5.481   0.217  0.1151  0.4733 -0.0388
 4002TIP3    H111970   6.236   5.485   0.311  0.4954  0.5115  0.0264
 4002TIP3    H211971   6.311   5.406   0.206 -1.6129 -0.8897 -0.4839
 4003TIP3   OH211972   3.529   2.644   4.379 -0.1802 -0.2529  0.4139
 4003TIP3    H111973   3.489   2.557   4.376  3.2015 -1.9500 -0.6358
 4003TIP3    H211974   3.621   2.629   4.356  0.5483  3.6506  0.0812
 4004TIP3   OH211975   7.037   1.320   1.285 -0.7281 -0.0226 -0.2969
 4004TIP3    H111976   7.019   1.365   1.368  0.9303  0.1783 -0.0087
 4004TIP3    H211977   6.957   1.272   1.266 -1.8945  1.5570  0.3519
 4005TIP3   OH211978   6.966   4.460   4.674  0.1556  0.0268  0.2958
 4005TIP3    H111979   7.031   4.418   4.618 -0.5586 -2.6000  1.2799
 4005TIP3    H211980   6.883   4.446   4.629  0.0911  3.1755 -0.8516
 4006TIP3   OH211981   2.649   2.218   0.112  0.5456 -0.4330  0.7693
 4006TIP3    H111982   2.660   2.125   0.091 -1.1286 -0.6112  0.5396
 4006TIP3    H211983   2.582   2.219   0.180 -0.7301  0.6689 -0.4228
 4007TIP3   OH211984   2.357   2.939   5.201 -0.1543 -0.8337 -0.0356
 4007TIP3    H111985   2.376   2.858   5.250 -1.5808 -0.9896  0.3056
 4007TIP3    H211986   2.363   3.008   5.266  0.5371 -0.7190 -0.2147
 4008TIP3   OH211987   0.702   1.124   1.580  0.0988 -0.5311 -0.0027
 4008TIP3    H111988   0.781   1.159   1.620  1.8861 -1.0573 -2.8494
 4008TIP3    H211989   0.702   1.031   1.603  0.6106 -0.6469 -0.4800
 4009TIP3   OH211990   2.936   1.962   2.551  0.2644  0.1562  0.1633
 4009TIP3    H111991   2.878   1.960   2.474  0.6834 -1.6666 -0.1598
 4009TIP3    H211992   3.011   2.015   2.522  0.1314  0.0131 -0.4742
 4010TIP3   OH211993   6.744   0.692   3.838 -0.6221 -0.6427 -0.0309
 4010TIP3    H111994   6.774   0.641   3.762 -1.4575 -3.1177  1.2077
 4010TIP3    H211995   6.806   0.671   3.907 -1.8306 -1.1811  0.9206
 4011TIP3   OH211996   6.050   2.629   1.523 -0.0623 -0.2322  0.3446
 4011TIP3    H111997   6.065   2.535   1.538 -0.9171 -0.2945  0.8605
 4011TIP3    H211998   6.006   2.659   1.602 -1.4950  0.1913 -0.5805
 4012TIP3   OH211999   0.097   3.010   5.139 -0.1734  0.1514  0.2507
 4012TIP3    H112000   0.016   2.961   5.152 -0.7472  0.7454 -0.9817
 4012TIP3    H212001   0.110   3.058   5.221 -0.8374 -0.2682  0.6060
 4013TIP3   OH212002   5.417   6.495   3.487  0.1482 -0.2929 -0.0966
 4013TIP3    H112003   5.338   6.492   3.542  0.4114 -1.3576  0.2572
 4013TIP3    H212004   5.481   6.543   3.540  0.5537 -1.7274  0.7818
 4014TIP3   OH212005   5.264   4.230   0.731 -0.2527  0.0492  0.2081
 4014TIP3    H112006   5.332   4.280   0.686  0.2395  0.0418  0.9362
 4014TIP3    H212007   5.289   4.138   0.716  0.6380  0.0503  1.5650
 4015TIP3   OH212008   0.138   0.698   4.031  0.5423 -0.7790 -0.4204
 4015TIP3    H112009   0.120   0.604   4.028  3.1238 -1.3884  0.2254
 4015TIP3    H212010   0.223   0.705   4.075  1.1195  1.7611 -1.6961
 4016TIP3   OH212011   0.065   0.396   3.319  0.1608  0.3239 -0.0963
 4016TIP3    H112012   0.120   0.464   3.357 -1.1663  1.1868  0.3491
 4016TIP3    H212013  -0.008   0.443   3.279 -0.3421 -0.7903 -0.5302
 4017TIP3   OH212014   0.382   0.617   0.778  0.1914 -0.2620  0.4555
 4017TIP3    H112015   0.329   0.609   0.699  1.0665 -0.0293 -0.1637
 4017TIP3    H212016   0.444   0.688   0.759  1.0577 -0.8622  0.9698
 4018TIP3   OH212017   4.222   0.694   1.530  0.2160 -0.4683  0.2119
 4018TIP3    H112018   4.184   0.710   1.616 -0.4021 -0.8689  0.0266
 4018TIP3    H212019   4.154   0.723   1.469 -0.3482 -2.3730 -0.1358
 4019TIP3   OH212020   0.600   4.419   1.213 -0.2336  0.1480 -0.4581
 4019TIP3    H112021   0.612   4.481   1.140  0.1283  1.3723  0.6076
 4019TIP3    H212022   0.589   4.474   1.290 -1.9172 -1.1021  0.2567
 4020TIP3   OH212023   5.579   2.599   3.479 -0.5010 -0.0774 -0.2144
 4020TIP3    H112024   5.604   2.517   3.434  0.0274 -1.4082  2.3323
 4020TIP3    H212025   5.507   2.573   3.537  1.9266  0.3517  3.2305
 4021TIP3   OH212026   2.274   1.405   3.227  0.3170  0.3023 -0.6183
 4021TIP3    H112027   2.292   1.421   3.134 -1.0743  2.4119 -0.5786
 4021TIP3    H212028   2.189   1.446   3.242 -0.0161 -0.9998  1.3505
 4022TIP3   OH212029   1.980   0.715   4.957 -0.0679 -0.2994  0.3684
 4022TIP3    H112030   2.009   0.769   4.883 -0.4930  1.0076  1.1264
 4022TIP3    H212031   2.060   0.694   5.005 -0.0626  1.1958  1.0641
 4023TIP3   OH212032   0.636   6.171   2.026  0.2233  0.4448  0.1658
 4023TIP3    H112033   0.548   6.205   2.040 -0.8233 -2.1232  0.3408
 4023TIP3    H212034   0.676   6.169   2.114 -0.9403 -1.7654  0.7222
 4024TIP3   OH212035   6.372   2.617   5.428 -0.3233  0.2628  0.1186
 4024TIP3    H112036   6.413   2.671   5.360 -0.6483  1.8122  1.1018
 4024TIP3    H212037   6.302   2.672   5.463 -1.6862 -1.3877  0.1594
 4025TIP3   OH212038   6.137   1.247   2.465  0.6041  0.0121  0.1943
 4025TIP3    H112039   6.117   1.303   2.540  0.7591 -0.4374  0.5782
 4025TIP3    H212040   6.053   1.235   2.421 -0.1767 -2.2543  2.0717
 4026TIP3   OH212041   0.426   1.861   1.708 -0.4409  0.0577 -0.0320
 4026TIP3    H112042   0.414   1.767   1.724  1.3811 -0.4219 -1.1489
 4026TIP3    H212043   0.510   1.867   1.661  2.1958  2.6376  4.3278
 4027TIP3   OH212044   0.334   2.304   4.525 -0.4003 -0.0822  0.2088
 4027TIP3    H112045   0.406   2.292   4.587  0.8117 -0.5234 -1.2165
 4027TIP3    H212046   0.347   2.235   4.460 -0.6823  1.3210 -1.4044
 4028TIP3   OH212047   5.630   3.903   2.355  0.0314 -0.2964  0.6563
 4028TIP3    H112048   5.661   3.812   2.352  0.3497 -0.1660 -0.6525
 4028TIP3    H212049   5.687   3.949   2.293 -0.5107  0.6797  0.8766
 4029TIP3   OH212050   3.423   2.728   1.050  0.3510  0.6421 -0.6117
 4029TIP3    H112051   3.401   2.740   1.142  0.2977 -3.2647  0.0314
 4029TIP3    H212052   3.510   2.688   1.050 -0.2385 -0.7795 -2.1218
 4030TIP3   OH212053   0.202   4.049   4.416 -0.6110 -0.1580 -0.2596
 4030TIP3    H112054   0.288   4.007   4.406 -0.1231  0.8548 -0.4654
 4030TIP3    H212055   0.188   4.053   4.510  0.5149  1.4726 -0.1192
 4031TIP3   OH212056   1.258   6.180   3.572 -0.3848 -0.7391 -0.2603
 4031TIP3    H112057   1.307   6.211   3.496 -0.1884  0.7641  0.4389
 4031TIP3    H212058   1.242   6.087   3.554  1.7399 -1.0049 -1.0006
 4032TIP3   OH212059   5.830   1.657   4.012  0.3184  0.2025 -0.2823
 4032TIP3    H112060   5.833   1.677   3.919  5.3831 -1.7736 -0.8158
 4032TIP3    H212061   5.835   1.562   4.017  4.6569  0.3181  1.7496
 4033TIP3   OH212062   5.910   1.313   0.407 -0.5598  0.3934  0.3636
 4033TIP3    H112063   5.966   1.273   0.472  1.8198  0.7735 -1.3379
 4033TIP3    H212064   5.966   1.375   0.361 -1.2905 -1.6584 -3.7404
 4034TIP3   OH212065   2.155   2.131   0.901 -0.1659  0.6704 -0.6396
 4034TIP3    H112066   2.206   2.104   0.978  0.7658  1.1810 -1.0606
 4034TIP3    H212067   2.136   2.050   0.855  1.5165  0.5822 -1.2263
 4035TIP3   OH212068   3.044   6.712   5.551 -0.1166 -0.4052 -0.1506
 4035TIP3    H112069   3.008   6.799   5.569  0.5472  0.0773 -1.0992
 4035TIP3    H212070   3.068   6.678   5.638 -0.8938  0.1181  0.2830
 4036TIP3   OH212071   0.220   5.131   1.412  0.0725 -0.2343 -0.2418
 4036TIP3    H112072   0.200   5.218   1.378 -1.3823  0.0688  1.2634
 4036TIP3    H212073   0.308   5.140   1.450  1.8827 -0.6613 -3.9073
 4037TIP3   OH212074   0.466   0.453   2.036 -0.3111  0.3139 -0.4181
 4037TIP3    H112075   0.557   0.426   2.044 -0.2201  0.4348 -0.9948
 4037TIP3    H212076   0.447   0.501   2.116 -0.5046 -1.5242  0.6986
 4038TIP3   OH212077   3.438   6.007   1.953 -0.4299 -0.1907 -0.1665
 4038TIP3    H112078   3.528   5.974   1.962 -0.9553 -1.5277  0.3964
 4038TIP3    H212079   3.396   5.984   2.035 -0.7870  2.1680  0.3762
 4039TIP3   OH212080   2.350   3.035   3.929 -0.3098  0.0386  0.1415
 4039TIP3    H112081   2.390   3.094   3.865 -0.0862 -0.4447 -0.1638
 4039TIP3    H212082   2.313   3.094   3.995 -1.4053  0.6010 -0.9176
 4040TIP3   OH212083   2.242   0.162   5.095 -0.0426 -0.4303  0.1827
 4040TIP3    H112084   2.182   0.103   5.141 -0.2512 -0.3463  0.0222
 4040TIP3    H212085   2.188   0.201   5.026  0.4316 -1.0389 -0.5474
 4041TIP3   OH212086   0.970   2.273   3.315  0.4105 -0.4752 -0.0837
 4041TIP3    H112087   0.889   2.302   3.358 -0.0509 -2.3936  0.4104
 4041TIP3    H212088   1.040   2.311   3.368 -0.1588 -0.4082  0.6437
 4042TIP3   OH212089   6.819   2.886   2.013  0.2335  0.2286  0.2556
 4042TIP3    H112090   6.817   2.795   2.040 -0.0053 -0.0487 -0.6881
 4042TIP3    H212091   6.732   2.920   2.033 -0.2059 -0.1946 -0.8924
 4043TIP3   OH212092   4.569   3.768   1.520 -0.4423 -0.3269 -0.4626
 4043TIP3    H112093   4.641   3.710   1.545  0.7945  1.1167 -0.5170
 4043TIP3    H212094   4.493   3.734   1.568  0.3981 -1.5342  0.0752
 4044TIP3   OH212095   5.623   1.234   3.713  0.0059 -0.6440  0.4240
 4044TIP3    H112096   5.631   1.324   3.679  1.4177 -0.6418  0.7332
 4044TIP3    H212097   5.533   1.209   3.691 -0.3547  0.7775  0.1674
 4045TIP3   OH212098   6.952   4.957   2.801  0.1233 -0.2006  0.0666
 4045TIP3    H112099   6.917   4.990   2.884  0.7280 -0.4596  0.4357
 4045TIP3    H212100   7.009   4.884   2.827  4.1097  2.5245 -0.0461
 4046TIP3   OH212101   3.631   5.499   0.241  0.0390  0.4202 -0.4549
 4046TIP3    H112102   3.628   5.477   0.334 -1.3848 -0.5427 -0.7035
 4046TIP3    H212103   3.651   5.416   0.197 -1.9866  0.2638 -1.1705
 4047TIP3   OH212104   0.321   6.381   5.736  0.2202 -0.1636 -0.5661
 4047TIP3    H112105   0.241   6.349   5.776 -0.0835  2.2448  0.9906
 4047TIP3    H212106   0.390   6.360   5.798 -0.0155  2.1071  0.5990
 4048TIP3   OH212107   0.019   6.697   5.472 -0.1119  0.4941 -0.6372
 4048TIP3    H112108  -0.069   6.696   5.511  0.3494  1.6787  0.5208
 4048TIP3    H212109   0.065   6.625   5.516  0.0141  1.0069  0.0988
 4049TIP3   OH212110   4.969   0.031   2.997 -0.0582 -0.2597  0.1241
 4049TIP3    H112111   4.947   0.029   3.090  0.1623  0.5773  0.2040
 4049TIP3    H212112   4.971   0.124   2.975 -0.3730 -0.4556 -0.7845
 4050TIP3   OH212113   3.875   4.814   0.092  0.1085 -0.3298  0.3084
 4050TIP3    H112114   3.801   4.843   0.145 -0.4375  1.4943 -1.3550
 4050TIP3    H212115   3.950   4.862   0.126 -0.0732  0.1582  0.0324
 4051TIP3   OH212116   3.629   1.555   0.189 -0.5741 -0.4248 -0.2052
 4051TIP3    H112117   3.682   1.497   0.134 -1.1673  0.0008 -1.2481
 4051TIP3    H212118   3.692   1.614   0.229 -0.0934 -0.9777 -0.1265
 4052TIP3   OH212119   5.271   3.709   1.551 -0.3097 -0.3553 -0.5533
 4052TIP3    H112120   5.287   3.722   1.457 -0.9369 -0.6800 -0.7127
 4052TIP3    H212121   5.186   3.665   1.555 -0.6060  0.2657  0.2070
 4053TIP3   OH212122   3.651   0.574   1.093  0.4211  0.4370  0.1656
 4053TIP3    H112123   3.673   0.481   1.102  3.1018  0.9636 -0.1296
 4053TIP3    H212124   3.557   0.574   1.073 -0.2758 -2.0386  2.6838
 4054TIP3   OH212125   5.883   5.587   2.005 -0.2758  0.3250 -0.3366
 4054TIP3    H112126   5.859   5.628   2.089 -0.1388 -0.5037  0.1160
 4054TIP3    H212127   5.930   5.656   1.958  1.8388  0.0929  1.2659
 4055TIP3   OH212128   6.349   1.686   2.718  0.3249  0.0522  0.2475
 4055TIP3    H112129   6.435   1.713   2.685  0.2835  0.2271  0.2797
 4055TIP3    H212130   6.364   1.666   2.810  0.3326  0.0730  0.2507
 4056TIP3   OH212131   0.172   5.402   4.455  0.1781 -0.2102 -0.1015
 4056TIP3    H112132   0.152   5.493   4.477 -0.6462  0.1723 -2.1776
 4056TIP3    H212133   0.245   5.407   4.394 -1.0394 -0.7701 -1.6649
 4057TIP3   OH212134   6.392   2.503   1.655 -0.3789  0.0336  0.6072
 4057TIP3    H112135   6.384   2.570   1.722  3.1524  0.5661  0.6887
 4057TIP3    H212136   6.410   2.423   1.703  0.0160 -0.0288  0.3549
 4058TIP3   OH212137   6.199   5.495   5.813  0.2912  0.0843 -0.5447
 4058TIP3    H112138   6.137   5.423   5.805  0.3582  0.1038 -1.2844
 4058TIP3    H212139   6.145   5.573   5.828  0.1576  0.0408 -0.7986
 4059TIP3   OH212140   5.607   4.339   3.689  0.0047 -0.3510 -1.0022
 4059TIP3    H112141   5.628   4.396   3.614 -0.3123 -0.6442 -1.3192
 4059TIP3    H212142   5.512   4.327   3.684  0.1087 -1.1618 -1.1281
 4060TIP3   OH212143   2.287   6.172   1.149 -0.3504 -0.2940  0.6773
 4060TIP3    H112144   2.327   6.217   1.075 -0.0176  0.7651  1.4664
 4060TIP3    H212145   2.282   6.239   1.218  0.1452 -1.4435  1.8904
 4061TIP3   OH212146   0.468   0.599   3.952  0.5904  0.0919  0.3466
 4061TIP3    H112147   0.427   0.625   4.035  0.8684  2.2343 -0.1269
 4061TIP3    H212148   0.562   0.607   3.969  0.6304  1.2382 -0.3727
 4062TIP3   OH212149   3.353   1.945   5.683 -0.0097 -0.4076  0.3414
 4062TIP3    H112150   3.388   2.022   5.638 -0.8509 -0.5431 -0.5835
 4062TIP3    H212151   3.308   1.980   5.760  0.2739 -0.0415  0.3406
 4063TIP3   OH212152   7.061   2.632   5.428 -0.8269 -0.2080  0.5145
 4063TIP3    H112153   7.080   2.542   5.457 -2.2140 -0.9014 -0.5944
 4063TIP3    H212154   7.147   2.670   5.411 -0.2003 -1.2328  1.2923
 4064TIP3   OH212155   1.842   6.150   1.485 -0.0350 -0.0685  0.1379
 4064TIP3    H112156   1.918   6.094   1.468  0.5774  1.2263 -1.6691
 4064TIP3    H212157   1.873   6.239   1.472 -1.1245  0.7477  2.4263
 4065TIP3   OH212158   1.450   4.618   3.815 -0.4480  0.2607 -1.1531
 4065TIP3    H112159   1.460   4.571   3.732 -0.3359  0.1606 -1.0824
 4065TIP3    H212160   1.427   4.551   3.879  0.2000  0.2263 -0.9520
 4066TIP3   OH212161   0.763   4.764   3.758 -0.4228 -0.0557  0.4707
 4066TIP3    H112162   0.729   4.692   3.810 -0.7998 -0.1641  0.0839
 4066TIP3    H212163   0.821   4.723   3.694  1.3120  0.2305  1.8030
 4067TIP3   OH212164   0.663   5.794   5.529 -0.3888 -0.3942  0.0069
 4067TIP3    H112165   0.615   5.768   5.608 -0.7749 -1.3467 -0.5365
 4067TIP3    H212166   0.629   5.881   5.508 -1.4982 -0.8346 -0.0710
 4068TIP3   OH212167   2.885   0.608   3.615  0.0418 -0.1544 -0.6885
 4068TIP3    H112168   2.936   0.614   3.534  1.2219  1.6362  0.1206
 4068TIP3    H212169   2.797   0.586   3.586  0.8495 -1.5205 -2.2856
 4069TIP3   OH212170   0.812   2.561   2.819  0.2292 -0.3533  0.2937
 4069TIP3    H112171   0.810   2.654   2.799 -0.6922  0.1519  2.4240
 4069TIP3    H212172   0.855   2.521   2.743  0.8631  1.8047 -0.5689
 4070TIP3   OH212173   2.460   5.654   2.941  0.0818 -0.1965  1.0569
 4070TIP3    H112174   2.446   5.680   3.033  2.4805  1.6666  1.0194
 4070TIP3    H212175   2.456   5.737   2.893 -0.2074 -1.0355 -0.4012
 4071TIP3   OH212176   1.439   0.469   5.071  0.4445  0.2305 -0.5441
 4071TIP3    H112177   1.476   0.440   5.154 -0.2102 -1.9675 -0.9552
 4071TIP3    H212178   1.344   0.472   5.086  0.4384  1.5300 -0.7382
 4072TIP3   OH212179   4.923   2.112   3.874 -0.0049 -0.6086  0.4641
 4072TIP3    H112180   4.910   2.191   3.821 -5.3390 -2.6211 -1.9857
 4072TIP3    H212181   4.989   2.061   3.827 -0.2126  0.2796 -0.8383
 4073TIP3   OH212182   3.685   0.483   5.493  0.1278  0.5586 -0.3517
 4073TIP3    H112183   3.670   0.540   5.568  1.2846 -0.1218  0.4356
 4073TIP3    H212184   3.762   0.431   5.518 -1.5786 -2.2354 -0.4924
 4074TIP3   OH212185   2.094   3.958   3.160  0.5959 -0.1741 -0.8235
 4074TIP3    H112186   2.112   4.044   3.121 -0.0422  0.9953  1.2853
 4074TIP3    H212187   2.180   3.918   3.167  1.0457  0.7337 -0.9013
 4075TIP3   OH212188   1.162   4.276   4.454  0.0266  0.5632  0.6333
 4075TIP3    H112189   1.076   4.309   4.428 -1.0002 -1.1905  1.6209
 4075TIP3    H212190   1.192   4.224   4.379  0.1079  0.9274  0.4086
 4076TIP3   OH212191   6.487   5.027   5.155 -0.3111 -0.3153 -0.0065
 4076TIP3    H112192   6.447   4.977   5.085 -0.2989 -0.2722 -0.0441
 4076TIP3    H212193   6.484   5.117   5.126  1.3859 -0.4702 -0.7965
 4077TIP3   OH212194   4.839   3.616   5.039  0.6353  0.1231 -0.1627
 4077TIP3    H112195   4.880   3.593   4.956 -0.7767 -0.1387 -0.8111
 4077TIP3    H212196   4.865   3.707   5.053 -1.0663  1.0102 -2.1663
 4078TIP3   OH212197   4.582   0.144   0.036 -0.1902  0.3116 -0.2273
 4078TIP3    H112198   4.554   0.168  -0.052 -0.7483  2.8363  0.5398
 4078TIP3    H212199   4.675   0.121   0.027 -0.9094 -2.3934 -1.8677
 4079TIP3   OH212200   6.671   6.052   5.199  0.2470 -0.5879  0.3839
 4079TIP3    H112201   6.751   6.103   5.190 -0.4619  0.6018  0.5721
 4079TIP3    H212202   6.699   5.961   5.193  1.6510 -0.2016  0.7979
 4080TIP3   OH212203   6.099   5.004   4.909  0.4655  0.1274  0.8447
 4080TIP3    H112204   6.014   4.961   4.919  1.0409 -0.8604  1.6468
 4080TIP3    H212205   6.162   4.943   4.948  1.4511  1.2028  0.9909
 4081TIP3   OH212206   0.895   1.459   5.594 -0.1302  0.3135  0.4052
 4081TIP3    H112207   0.890   1.524   5.664  1.8960  1.1998 -0.1910
 4081TIP3    H212208   0.863   1.505   5.516  0.6191  0.3929  0.1328
 4082TIP3   OH212209   4.086   4.549   4.601  0.4515 -0.2451 -0.8861
 4082TIP3    H112210   4.065   4.643   4.603  0.3456 -0.2730  1.3465
 4082TIP3    H212211   4.160   4.543   4.541  2.5333  1.7780  1.2773
 4083TIP3   OH212212   2.575   2.753   5.595 -0.0277 -0.0492  0.7168
 4083TIP3    H112213   2.504   2.733   5.657 -0.3037 -2.3378 -0.2201
 4083TIP3    H212214   2.530   2.765   5.512  0.5794 -0.2100  0.3641
 4084TIP3   OH212215   4.714   2.258   5.309  0.8398 -0.0795 -0.7418
 4084TIP3    H112216   4.785   2.248   5.246  1.6954 -0.8074  0.2957
 4084TIP3    H212217   4.754   2.305   5.382 -0.3179  1.3823 -1.0173
 4085TIP3   OH212218   2.375   5.794   4.813  0.0274  0.7373  0.5684
 4085TIP3    H112219   2.460   5.780   4.855  0.4669 -1.6399 -0.9312
 4085TIP3    H212220   2.392   5.861   4.747  0.6470  0.6065  0.5899
 4086TIP3   OH212221   3.970   6.414   3.018 -0.1265  0.2873  0.2003
 4086TIP3    H112222   4.016   6.393   3.099 -1.4214 -0.3880  0.7976
 4086TIP3    H212223   3.997   6.345   2.957  0.4551  0.5023  0.2100
 4087TIP3   OH212224   5.927   2.892   1.644  0.0558  0.2156 -0.7540
 4087TIP3    H112225   5.900   2.916   1.733  1.4916  1.1758 -0.5370
 4087TIP3    H212226   5.850   2.908   1.590 -1.0834 -1.1132  0.4138
 4088TIP3   OH212227   2.088   4.906   4.261 -0.5489 -0.0397  0.4189
 4088TIP3    H112228   2.098   4.859   4.344 -1.6810 -2.6799 -0.8536
 4088TIP3    H212229   2.014   4.865   4.217  0.0252  1.2297 -1.9526
 4089TIP3   OH212230   0.652   0.890   0.299  0.3364  0.5826  0.4503
 4089TIP3    H112231   0.736   0.848   0.278  0.4083  1.0432 -0.2189
 4089TIP3    H212232   0.618   0.919   0.215 -0.9338 -0.3788  0.6078
 4090TIP3   OH212233   6.431   4.944   3.325  0.5502 -0.8310 -0.1935
 4090TIP3    H112234   6.515   4.943   3.372  0.6953 -1.4302 -0.4483
 4090TIP3    H212235   6.441   5.012   3.259  0.4434 -0.1676  0.4625
 4091TIP3   OH212236   6.874   0.150   5.396  0.0243  0.6173  0.0905
 4091TIP3    H112237   6.844   0.130   5.485 -2.4543  0.8401 -0.6376
 4091TIP3    H212238   6.816   0.220   5.366  1.2260  0.9845 -1.4992
 4092TIP3   OH212239   2.285   5.598   1.000  0.7996 -0.3720 -0.3876
 4092TIP3    H112240   2.307   5.624   1.090 -1.4484 -0.9146  0.3832
 4092TIP3    H212241   2.258   5.680   0.958 -0.3590 -0.4585  0.1595
 4093TIP3   OH212242   4.614   5.088   3.456 -0.1681  0.6399 -0.2098
 4093TIP3    H112243   4.646   5.028   3.389 -1.5988 -1.2793  0.7208
 4093TIP3    H212244   4.529   5.118   3.423 -0.7025 -0.0142  0.5115
 4094TIP3   OH212245   3.743   4.245   2.531  0.3714  0.1937 -0.0583
 4094TIP3    H112246   3.773   4.185   2.462  0.6248  1.6790 -1.2864
 4094TIP3    H212247   3.666   4.202   2.569  0.6816 -1.0038 -0.7486
 4095TIP3   OH212248   3.093   3.743   4.123  0.0260  0.2623  0.3350
 4095TIP3    H112249   3.064   3.803   4.191  0.2921  1.3393 -0.4816
 4095TIP3    H212250   3.087   3.793   4.042 -3.7630 -2.0149 -1.0617
 4096TIP3   OH212251   2.859   1.289   5.018 -0.4340  0.0185 -0.4311
 4096TIP3    H112252   2.765   1.304   5.029 -0.5730 -0.5397 -0.8425
 4096TIP3    H212253   2.873   1.198   5.045 -0.1978 -0.2483 -1.4074
 4097TIP3   OH212254   6.691   2.191   5.147 -0.4283 -0.3988  0.2621
 4097TIP3    H112255   6.606   2.155   5.175  0.2871 -1.1821  1.5148
 4097TIP3    H212256   6.677   2.285   5.144 -1.6712 -0.5862 -0.7117
 4098TIP3   OH212257   1.688   4.448   1.336 -0.0631  0.0364  0.0951
 4098TIP3    H112258   1.638   4.447   1.418  0.2300  0.5711  0.2838
 4098TIP3    H212259   1.776   4.422   1.361  0.0309  0.2159 -0.0461
 4099TIP3   OH212260   4.838   4.775   4.825  0.2931 -0.2084 -0.2678
 4099TIP3    H112261   4.791   4.831   4.763 -2.3428 -2.1575 -0.2250
 4099TIP3    H212262   4.849   4.692   4.779  1.0716 -0.7191  0.7972
 4100TIP3   OH212263   5.600   2.705   0.302  0.1067 -0.0782 -0.2140
 4100TIP3    H112264   5.538   2.764   0.347  0.4930 -0.2433  0.5474
 4100TIP3    H212265   5.558   2.619   0.307  0.8227 -0.3818  1.1918
 4101TIP3   OH212266   3.161   1.804   1.775 -0.2077  0.1412  0.0971
 4101TIP3    H112267   3.123   1.743   1.712 -1.8008 -0.9859  2.0478
 4101TIP3    H212268   3.109   1.884   1.766 -1.2088 -0.4120  0.7304
 4102TIP3   OH212269   4.286   6.537   2.816 -0.6410 -0.1434 -0.4437
 4102TIP3    H112270   4.297   6.449   2.852 -0.8654 -0.3245 -0.8174
 4102TIP3    H212271   4.265   6.591   2.892 -2.5370 -0.7768 -0.4620
 4103TIP3   OH212272   4.771   2.670   2.771 -0.2478 -0.3713 -0.0589
 4103TIP3    H112273   4.763   2.734   2.701  0.5223 -0.7431 -0.4995
 4103TIP3    H212274   4.718   2.596   2.743 -1.5370  0.2442  0.6771
 4104TIP3   OH212275   1.532   0.583   1.776 -0.3165  0.2120 -0.1489
 4104TIP3    H112276   1.480   0.518   1.823 -0.5009  0.2942 -0.2403
 4104TIP3    H212277   1.475   0.614   1.706  0.0945 -0.1944 -0.6763
 4105TIP3   OH212278   3.953   5.972   0.348 -0.3591 -0.3505  0.3833
 4105TIP3    H112279   4.027   5.959   0.407  0.2436 -0.6729 -0.4317
 4105TIP3    H212280   3.985   6.031   0.281 -1.2199  0.4667  0.6670
 4106TIP3   OH212281   2.799   6.007   1.896 -0.0053 -0.8274  0.5174
 4106TIP3    H112282   2.844   5.923   1.885 -0.4962 -0.8580 -1.7436
 4106TIP3    H212283   2.714   5.994   1.855  0.4506  1.1576 -1.2058
 4107TIP3   OH212284   3.906   1.664   1.676  0.0391 -0.2110  0.6166
 4107TIP3    H112285   3.871   1.592   1.728 -0.4020 -0.5934 -0.1875
 4107TIP3    H212286   3.958   1.716   1.738  0.0046 -0.9718  1.2956
 4108TIP3   OH212287   5.049   3.126   5.262 -0.6364  0.8811  0.3702
 4108TIP3    H112288   5.122   3.135   5.323 -0.8830  1.3771  0.5928
 4108TIP3    H212289   5.060   3.199   5.201  0.5340 -0.5027 -1.1794
 4109TIP3   OH212290   0.331   4.748   0.971  0.3046 -0.0884 -0.2251
 4109TIP3    H112291   0.324   4.777   1.062 -1.4958  0.2941 -0.4602
 4109TIP3    H212292   0.273   4.806   0.922 -0.1753 -1.4433 -1.3390
 4110TIP3   OH212293   4.717   0.798   5.440 -0.2067  0.0604  0.0288
 4110TIP3    H112294   4.730   0.704   5.431  0.2501  0.0560  0.6770
 4110TIP3    H212295   4.805   0.834   5.448 -0.3882  0.5148  0.0258
 4111TIP3   OH212296   0.540   1.427   2.319 -0.2051 -0.3110 -0.4792
 4111TIP3    H112297   0.525   1.355   2.380  0.5969  0.5683  0.8082
 4111TIP3    H212298   0.532   1.387   2.233 -0.7805 -1.7218  0.1918
 4112TIP3   OH212299   5.191   4.998   3.315  0.2443 -0.0482 -0.5777
 4112TIP3    H112300   5.141   4.967   3.239 -1.8356  1.4877  0.0549
 4112TIP3    H212301   5.210   5.090   3.294  0.9040 -0.0106  0.1561
 4113TIP3   OH212302   2.944   4.998   5.416  0.2098  0.3151 -0.0119
 4113TIP3    H112303   2.998   5.055   5.472  0.8631 -1.9830  1.9063
 4113TIP3    H212304   2.856   5.005   5.452  0.0364  1.0515 -0.5780
 4114TIP3   OH212305   2.590   3.011   4.225 -0.2936  0.2734 -0.3767
 4114TIP3    H112306   2.655   3.048   4.286  0.4100 -0.5320 -0.6292
 4114TIP3    H212307   2.512   2.997   4.280  0.2868 -0.3190  0.3170
 4115TIP3   OH212308   0.298   5.478   0.979 -0.4351 -0.1071 -0.5004
 4115TIP3    H112309   0.324   5.507   0.891  0.7488  0.3235 -0.0390
 4115TIP3    H212310   0.380   5.479   1.029 -0.4441 -3.3551 -0.1766
 4116TIP3   OH212311   1.676   4.040   1.082  0.2814  0.1959 -0.0434
 4116TIP3    H112312   1.608   4.093   1.122 -1.0777 -0.9671 -0.7289
 4116TIP3    H212313   1.653   3.950   1.105  0.7222 -0.3298 -1.5253
 4117TIP3   OH212314  -0.003   2.380   0.384  0.3809 -0.1115  0.0180
 4117TIP3    H112315  -0.023   2.369   0.477 -2.9760 -1.7202 -0.7400
 4117TIP3    H212316   0.036   2.468   0.378  1.6492 -0.3551  2.9821
 4118TIP3   OH212317   7.037   2.406   2.479 -0.5845  0.5211 -0.8313
 4118TIP3    H112318   7.095   2.330   2.490  1.5442  1.7719 -2.4939
 4118TIP3    H212319   6.991   2.414   2.562 -0.2177 -2.0209 -0.2983
 4119TIP3   OH212320   5.830   5.028   3.051  0.0883  0.2064 -0.3937
 4119TIP3    H112321   5.772   5.061   2.982 -1.5820 -2.0102 -0.1711
 4119TIP3    H212322   5.808   5.080   3.128 -0.5285  0.3993 -0.6921
 4120TIP3   OH212323   5.727   3.950   1.151  0.3006  0.1521 -0.2954
 4120TIP3    H112324   5.696   3.859   1.153  1.7201 -0.3563 -0.5227
 4120TIP3    H212325   5.769   3.962   1.236  2.8240 -0.4337 -1.3698
 4121TIP3   OH212326   0.730   0.895   2.068 -0.4429  0.1267  0.2364
 4121TIP3    H112327   0.677   0.940   2.002 -1.2664  0.3609  1.0426
 4121TIP3    H212328   0.790   0.962   2.100 -0.6775  0.2647  0.3904
 4122TIP3   OH212329   6.498   5.794   4.650 -0.0614 -0.4854 -0.2226
 4122TIP3    H112330   6.484   5.841   4.568 -0.7808  0.7289  0.5644
 4122TIP3    H212331   6.425   5.732   4.654  0.9992 -1.8856 -1.3590
 4123TIP3   OH212332   0.312   0.165   3.383 -0.2901 -0.3243 -0.6952
 4123TIP3    H112333   0.256   0.169   3.461  1.4340  1.9138  0.5088
 4123TIP3    H212334   0.253   0.187   3.310 -0.9562  2.7237  0.6131
 4124TIP3   OH212335   4.926   5.648   4.411  0.3899  0.7122 -0.6899
 4124TIP3    H112336   4.956   5.636   4.501  1.5119 -1.5044 -1.2903
 4124TIP3    H212337   4.832   5.633   4.415  0.6769 -1.1575 -0.1192
 4125TIP3   OH212338   5.194   3.961   0.149 -0.0132  0.1484 -0.2368
 4125TIP3    H112339   5.253   4.033   0.126  0.1266 -0.0237 -0.4289
 4125TIP3    H212340   5.246   3.905   0.206  0.5140 -0.7563 -1.5519
 4126TIP3   OH212341   1.407   2.642   0.324 -0.3714 -0.2545 -0.6723
 4126TIP3    H112342   1.476   2.587   0.286  0.1801  0.7853 -1.2047
 4126TIP3    H212343   1.451   2.724   0.346 -0.9476 -0.3904  1.1245
 4127TIP3   OH212344   0.086   6.024   4.420 -0.3621  0.1925 -0.5852
 4127TIP3    H112345   0.163   5.979   4.386  0.2498 -0.4667  1.5512
 4127TIP3    H212346   0.099   6.115   4.393 -0.1403 -0.3225 -2.4006
 4128TIP3   OH212347   3.453   2.785   2.704 -0.6981 -0.5731  0.2493
 4128TIP3    H112348   3.541   2.750   2.693 -0.3931  0.4418 -0.6511
 4128TIP3    H212349   3.451   2.820   2.793 -0.0756 -0.2859  0.1528
 4129TIP3   OH212350   2.773   4.983   0.651 -0.2568  0.1409  0.2755
 4129TIP3    H112351   2.837   5.014   0.716  0.4067 -0.6465  0.0211
 4129TIP3    H212352   2.715   4.925   0.701  0.0384 -0.1832  0.2533
 4130TIP3   OH212353   6.289   5.769   3.101 -0.0121 -0.0918  0.7900
 4130TIP3    H112354   6.236   5.775   3.181 -2.2210  1.7511 -0.6940
 4130TIP3    H212355   6.268   5.849   3.052  0.8036 -1.4238 -1.9232
 4131TIP3   OH212356   5.065   5.568   4.687  0.0944  0.0793 -0.2667
 4131TIP3    H112357   5.024   5.569   4.773  1.5407  0.8695  0.4365
 4131TIP3    H212358   5.125   5.642   4.688  1.3354 -0.8771 -1.3639
 4132TIP3   OH212359   2.642   1.954   5.354  0.2364 -0.0979  0.0283
 4132TIP3    H112360   2.587   1.932   5.279  1.0867 -0.7782 -0.4252
 4132TIP3    H212361   2.589   1.935   5.431 -0.2853 -0.3848 -0.4026
 4133TIP3   OH212362   3.933   0.999   1.544 -0.1190 -0.0167  0.4681
 4133TIP3    H112363   3.978   1.081   1.567  1.7767 -0.8389 -0.1153
 4133TIP3    H212364   3.973   0.973   1.461  0.9997 -2.6972  1.7324
 4134TIP3   OH212365   3.076   4.636   0.359  0.4190 -0.0783  0.2024
 4134TIP3    H112366   2.998   4.677   0.321 -0.2081 -2.2954 -1.0988
 4134TIP3    H212367   3.048   4.605   0.445  0.9748  2.2927  1.3145
 4135TIP3   OH212368   6.466   2.471   0.874  0.5151  0.2681  0.2940
 4135TIP3    H112369   6.393   2.491   0.932  1.1982  0.6204  1.0640
 4135TIP3    H212370   6.538   2.525   0.907  1.2610 -0.4383 -0.1413
 4136TIP3   OH212371   3.011   0.420   2.618  0.1848 -0.0534 -0.0050
 4136TIP3    H112372   2.954   0.434   2.694  0.1409 -1.2457  0.2046
 4136TIP3    H212373   2.960   0.364   2.560  1.8428 -2.9629  1.1343
 4137TIP3   OH212374   6.226   0.623   2.165 -0.4093  0.5467 -0.1886
 4137TIP3    H112375   6.296   0.612   2.230 -0.5449 -1.0845 -0.2856
 4137TIP3    H212376   6.272   0.646   2.084  0.1551 -1.5012 -0.5030
 4138TIP3   OH212377   7.225   2.412   4.425  0.7230  0.2534 -0.1491
 4138TIP3    H112378   7.140   2.456   4.415  2.1933  2.7609 -2.9948
 4138TIP3    H212379   7.204   2.332   4.474 -2.9869  1.5021  0.6607
 4139TIP3   OH212380   2.783   2.212   0.990  0.2611  0.0430  0.2214
 4139TIP3    H112381   2.817   2.297   0.962  1.4210  0.2637  2.0688
 4139TIP3    H212382   2.689   2.218   0.975  0.3085  1.6937  0.3627
 4140TIP3   OH212383   5.715   2.570   2.244 -0.4140 -0.2028  0.3206
 4140TIP3    H112384   5.770   2.503   2.203 -1.5904 -0.0204 -1.6834
 4140TIP3    H212385   5.777   2.636   2.275  0.6560 -1.4190  0.8861
 4141TIP3   OH212386   5.149   2.191   4.030  0.2826  0.2065 -0.2974
 4141TIP3    H112387   5.077   2.130   4.047  0.4959 -0.7462 -2.4452
 4141TIP3    H212388   5.194   2.198   4.114  0.3916 -2.8273  0.0253
 4142TIP3   OH212389   3.949   1.375   2.934 -0.5026 -0.8548 -0.3700
 4142TIP3    H112390   3.870   1.321   2.927  1.0578 -3.1875 -1.4529
 4142TIP3    H212391   3.975   1.368   3.026 -3.0061  2.3814  0.7924
 4143TIP3   OH212392   2.915   3.011   1.680 -0.6923  1.3107 -0.2607
 4143TIP3    H112393   2.873   3.077   1.626 -1.3646  0.0895 -1.2883
 4143TIP3    H212394   2.847   2.945   1.695 -0.0450  0.8348  0.7370
 4144TIP3   OH212395   4.135   6.673   0.117  0.5404  0.2171  0.5084
 4144TIP3    H112396   4.177   6.649   0.034 -0.4039 -1.0819  0.3737
 4144TIP3    H212397   4.202   6.657   0.184  1.1197  0.7337  0.0648
 4145TIP3   OH212398   2.744   1.459   4.483 -0.0451  0.4901 -0.3565
 4145TIP3    H112399   2.688   1.537   4.479 -1.1092 -0.2881 -1.2120
 4145TIP3    H212400   2.779   1.459   4.572 -0.4089  1.6801 -0.1949
 4146TIP3   OH212401   2.287   5.488   3.923 -0.1256  0.3989  0.0888
 4146TIP3    H112402   2.267   5.581   3.910 -0.8119  0.3028  0.3865
 4146TIP3    H212403   2.366   5.472   3.871 -0.1043  1.1077 -0.1012
 4147TIP3   OH212404   3.876   0.764   0.647  0.1649  0.2848  0.2108
 4147TIP3    H112405   3.865   0.765   0.552 -0.7439  0.3922  0.3065
 4147TIP3    H212406   3.891   0.672   0.668 -0.9330  0.0676  0.0906
 4148TIP3   OH212407   6.788   3.019   3.092 -0.7016 -0.0836 -0.2295
 4148TIP3    H112408   6.777   3.073   3.014 -0.3531 -0.9614 -0.9040
 4148TIP3    H212409   6.711   2.962   3.093 -0.6696 -0.1260  0.0311
 4149TIP3   OH212410   1.792   2.039   1.092 -0.4031 -0.1678 -0.0226
 4149TIP3    H112411   1.711   2.077   1.126  0.6837 -1.1739  4.3807
 4149TIP3    H212412   1.848   2.114   1.073 -1.1278  0.5211  0.5018
 4150TIP3   OH212413   1.772   0.610   0.122 -0.7698  0.3708 -0.1969
 4150TIP3    H112414   1.753   0.523   0.087 -3.3059  0.7086  0.1515
 4150TIP3    H212415   1.862   0.629   0.094  0.5344 -3.0261  1.1973
 4151TIP3   OH212416   2.048   0.169   1.444  0.4737  0.1601 -0.0042
 4151TIP3    H112417   2.020   0.096   1.389 -1.4121  1.7059 -1.2230
 4151TIP3    H212418   2.034   0.138   1.534  0.0315 -1.0904 -0.4805
 4152TIP3   OH212419  -0.002   3.867   4.302 -0.0481  0.6380 -0.1199
 4152TIP3    H112420   0.021   3.937   4.363 -1.3776  1.3941 -0.4719
 4152TIP3    H212421  -0.013   3.790   4.358  4.8230 -0.3326  0.0075
 4153TIP3   OH212422   2.528   0.017   2.016  0.6609  0.1492 -0.3739
 4153TIP3    H112423   2.501   0.089   2.074  1.5273  0.3455 -0.2077
 4153TIP3    H212424   2.576   0.060   1.945  1.3820 -0.2774 -0.1546
 4154TIP3   OH212425   7.038   6.538   2.194  0.3854 -0.1293  0.5190
 4154TIP3    H112426   7.034   6.509   2.104 -1.1030 -0.2199  0.6039
 4154TIP3    H212427   7.131   6.533   2.216  0.5610 -1.7536 -0.4536
 4155TIP3   OH212428   3.257   0.297   2.905  0.1370 -0.4726 -0.0247
 4155TIP3    H112429   3.190   0.357   2.936  1.6460  0.2130  2.1009
 4155TIP3    H212430   3.299   0.343   2.832  0.3657  0.4548  0.6812
 4156TIP3   OH212431   7.209   3.831   5.363 -0.2242 -0.3664  0.1855
 4156TIP3    H112432   7.132   3.776   5.345 -0.0975 -0.8373  1.0389
 4156TIP3    H212433   7.275   3.770   5.397  0.8749 -0.1345 -1.4062
 4157TIP3   OH212434   4.518   4.420   5.221 -0.3822  0.0271 -0.1249
 4157TIP3    H112435   4.598   4.472   5.211  0.6213 -1.3948  0.0823
 4157TIP3    H212436   4.484   4.411   5.131 -1.2431  1.9610 -0.0446
 4158TIP3   OH212437   3.396   4.264   1.718 -0.2511  0.4073  0.2392
 4158TIP3    H112438   3.463   4.284   1.653  1.7623  0.4161  2.2095
 4158TIP3    H212439   3.364   4.349   1.748 -0.0979  0.4282  0.3404
 4159TIP3   OH212440   4.437   5.302   4.528 -0.5821  0.4669 -0.4480
 4159TIP3    H112441   4.463   5.395   4.531  3.0817 -0.4262  0.1358
 4159TIP3    H212442   4.480   5.268   4.450 -0.8796 -1.0147  0.0182
 4160TIP3   OH212443   2.330   0.198   4.185 -0.1743 -0.5481 -0.1060
 4160TIP3    H112444   2.368   0.146   4.257  1.2626  0.4386 -0.1042
 4160TIP3    H212445   2.236   0.185   4.193 -0.0824 -0.2405  2.1774
 4161TIP3   OH212446   1.836   1.763   2.346 -0.2825  0.6704 -0.2181
 4161TIP3    H112447   1.771   1.782   2.413 -0.4046 -0.7170  0.0933
 4161TIP3    H212448   1.805   1.681   2.306  1.4039 -0.1865  0.1468
 4162TIP3   OH212449   0.071   4.945   1.521 -0.1245  0.0804 -0.2088
 4162TIP3    H112450  -0.013   4.975   1.487  0.2875  2.0893  0.4003
 4162TIP3    H212451   0.134   5.009   1.488  1.0670 -0.9784 -0.0474
 4163TIP3   OH212452   5.879   3.804   2.633  0.7189  0.5192  0.1606
 4163TIP3    H112453   5.837   3.720   2.649  1.0691  0.1742 -0.6828
 4163TIP3    H212454   5.924   3.825   2.715  0.7606 -0.1886  0.3208
 4164TIP3   OH212455   1.058   3.902   3.605 -0.2541 -0.2978  0.8877
 4164TIP3    H112456   1.112   3.839   3.558 -2.6975 -2.1570  0.3767
 4164TIP3    H212457   1.080   3.986   3.566  1.5099 -1.0938  0.0374
 4165TIP3   OH212458   4.083   2.838   2.115 -0.2600 -0.2626 -0.5452
 4165TIP3    H112459   4.014   2.893   2.077 -0.1401  0.5557  0.3699
 4165TIP3    H212460   4.053   2.748   2.101 -0.5347  0.0221 -1.9465
 4166TIP3   OH212461   4.875   0.271   2.921 -0.7373  0.1126 -0.2332
 4166TIP3    H112462   4.941   0.333   2.952  0.8911 -1.9319  0.6272
 4166TIP3    H212463   4.820   0.255   2.997 -0.5854 -0.1903 -0.1872
 4167TIP3   OH212464   6.080   0.957   3.464 -0.2404  0.3201  0.2280
 4167TIP3    H112465   6.143   1.029   3.469 -1.7705  1.7669 -0.4083
 4167TIP3    H212466   6.043   0.951   3.552 -0.7170  0.8931  0.0694
 4168TIP3   OH212467   1.650   3.239   2.367  0.4425 -0.4394  0.1143
 4168TIP3    H112468   1.606   3.318   2.336 -2.1536 -1.8190  0.0023
 4168TIP3    H212469   1.677   3.260   2.456  0.0526  0.6494 -0.0041
 4169TIP3   OH212470   3.975   6.322   1.876 -0.0021  0.0389 -0.4269
 4169TIP3    H112471   3.984   6.301   1.969  1.0389  1.6994 -0.1173
 4169TIP3    H212472   4.027   6.254   1.832  1.2060  0.4008  0.3715
 4170TIP3   OH212473   0.185   1.496   4.557 -0.0258  0.4522  0.0163
 4170TIP3    H112474   0.149   1.580   4.586  1.9038  1.5635 -0.6351
 4170TIP3    H212475   0.126   1.469   4.487 -0.6035  1.3401  0.1323
 4171TIP3   OH212476   4.770   6.309   1.867 -0.1992 -0.0037  0.2572
 4171TIP3    H112477   4.735   6.263   1.944 -0.4107  1.8702  1.3294
 4171TIP3    H212478   4.696   6.359   1.833  0.3466  0.5957 -0.0673
 4172TIP3   OH212479   6.511   1.570   3.988  0.3947  0.2340  0.5911
 4172TIP3    H112480   6.556   1.548   3.907 -1.7878 -0.1312 -0.5998
 4172TIP3    H212481   6.523   1.493   4.045 -0.9061 -0.9999 -0.7213
 4173TIP3   OH212482   0.410   3.650   2.199 -0.4860  0.4589 -0.4631
 4173TIP3    H112483   0.396   3.708   2.124 -0.9435  0.1600 -0.6148
 4173TIP3    H212484   0.419   3.708   2.274 -0.5568  0.7371 -0.6704
 4174TIP3   OH212485   6.834   4.132   0.123 -0.1882  0.1136 -0.4688
 4174TIP3    H112486   6.906   4.121   0.061 -1.9043 -1.1858 -2.3655
 4174TIP3    H212487   6.840   4.055   0.180  0.7857  0.7989  0.4053
 4175TIP3   OH212488   4.875   5.159   1.680  0.0476 -0.0766 -0.4238
 4175TIP3    H112489   4.880   5.239   1.628  1.5025  1.1918  1.5438
 4175TIP3    H212490   4.940   5.100   1.640  0.5383  0.5470 -0.5489
 4176TIP3   OH212491   5.638   5.420   0.032 -0.3106 -0.3998 -0.3984
 4176TIP3    H112492   5.559   5.472   0.047  1.1143  1.1893  2.6993
 4176TIP3    H212493   5.641   5.359   0.106  0.8997 -1.0110 -0.9249
 4177TIP3   OH212494   0.908   1.061   3.923 -0.1032  0.0491 -0.7026
 4177TIP3    H112495   0.899   0.982   3.977  0.9332  0.5575  0.2647
 4177TIP3    H212496   0.977   1.039   3.860 -0.8366 -0.3096 -1.3901
 4178TIP3   OH212497   2.057   2.671   1.007  0.5642 -0.3692 -0.0278
 4178TIP3    H112498   2.004   2.724   0.948 -0.2672  0.0731  1.0665
 4178TIP3    H212499   2.111   2.735   1.054  1.3649 -0.7329 -0.4344
 4179TIP3   OH212500   1.874   2.295   1.039 -0.7512  0.1230 -0.8128
 4179TIP3    H112501   1.912   2.246   0.966  0.6957  1.0492 -0.7263
 4179TIP3    H212502   1.943   2.356   1.066 -1.4423  0.1818  0.9829
 4180TIP3   OH212503   5.769   4.832   1.237 -0.0826 -0.6289  0.9078
 4180TIP3    H112504   5.800   4.874   1.317 -0.5849  0.0088  0.7727
 4180TIP3    H212505   5.749   4.742   1.264  0.1229 -0.5308  1.4069
 4181TIP3   OH212506   0.227   1.542   0.886 -0.5004  1.1256  0.2917
 4181TIP3    H112507   0.270   1.522   0.803 -1.0067 -0.4789  0.3822
 4181TIP3    H212508   0.298   1.564   0.945  0.0688  0.0243  0.0306
 4182TIP3   OH212509   0.589   2.503   4.267 -0.8214  0.7590 -0.5142
 4182TIP3    H112510   0.610   2.426   4.215 -0.6580  1.2906 -1.2567
 4182TIP3    H212511   0.592   2.576   4.204 -1.9219  1.2428 -0.0326
 4183TIP3   OH212512   6.310   0.447   5.592  0.3040  0.1146 -0.0866
 4183TIP3    H112513   6.389   0.402   5.562  0.6025 -0.6164  1.6937
 4183TIP3    H212514   6.340   0.535   5.614  1.0502 -0.6278  2.1599
 4184TIP3   OH212515   7.051   1.778   0.162  0.3004 -0.0350 -0.6763
 4184TIP3    H112516   7.022   1.853   0.111 -1.4526  0.3087  0.7315
 4184TIP3    H212517   7.098   1.816   0.236  0.8949 -0.4241 -0.8466
 4185TIP3   OH212518   1.980   1.974   0.420  0.4575  0.2622  0.3286
 4185TIP3    H112519   1.956   1.985   0.328  0.6524 -2.9462 -0.1947
 4185TIP3    H212520   1.896   1.973   0.466  0.2870  0.6483  0.0389
 4186TIP3   OH212521   4.754   3.239   5.108 -0.5132  0.2249  0.0502
 4186TIP3    H112522   4.785   3.264   5.195 -2.2336  1.1500  0.4326
 4186TIP3    H212523   4.833   3.240   5.054  0.6155 -0.5183  1.6043
 4187TIP3   OH212524   3.489   6.323   4.198  0.0957 -0.4184 -0.4425
 4187TIP3    H112525   3.544   6.401   4.206  0.8243 -0.9034 -0.5971
 4187TIP3    H212526   3.401   6.353   4.218  0.7886 -0.1705  2.8075
 4188TIP3   OH212527   4.922   4.785   2.763 -0.9598  0.0065 -0.5858
 4188TIP3    H112528   4.866   4.717   2.726 -2.3963  1.7034 -1.7103
 4188TIP3    H212529   4.880   4.867   2.738  0.7369  1.3374  0.6519
 4189TIP3   OH212530   6.867   1.636   4.065 -0.1669 -0.0137  0.2571
 4189TIP3    H112531   6.947   1.587   4.082 -0.1340  0.1553  0.5916
 4189TIP3    H212532   6.848   1.619   3.972  0.0554 -0.3434  0.2693
 4190TIP3   OH212533   1.489   0.162   3.649  0.3879  0.0927 -0.5047
 4190TIP3    H112534   1.462   0.242   3.604  0.1836  0.2264 -0.1498
 4190TIP3    H212535   1.435   0.093   3.611  1.3973 -0.0928 -1.6712
 4191TIP3   OH212536   0.521   5.737   2.392  0.5431  0.3109  0.0979
 4191TIP3    H112537   0.465   5.810   2.419  2.1244  2.4856 -2.1244
 4191TIP3    H212538   0.463   5.678   2.344 -0.0594  2.0807 -1.4238
 4192TIP3   OH212539   2.121   0.677   3.757 -0.1573 -0.0081  0.1118
 4192TIP3    H112540   2.103   0.730   3.835  1.1847  0.9510 -0.1919
 4192TIP3    H212541   2.206   0.637   3.773 -0.4478 -0.8251 -0.3330
 4193TIP3   OH212542   0.634   6.265   1.767 -0.5846 -0.3104 -0.4483
 4193TIP3    H112543   0.619   6.248   1.860 -2.1708 -0.2191 -0.6586
 4193TIP3    H212544   0.680   6.349   1.765 -0.1177 -0.5378  0.2530
 4194TIP3   OH212545   0.964   2.100   0.320  0.1309 -0.1774 -0.3390
 4194TIP3    H112546   1.036   2.042   0.347  1.1968  1.2519 -0.0263
 4194TIP3    H212547   0.886   2.046   0.331  0.8286 -0.8381  2.3288
 4195TIP3   OH212548   6.893   3.332   4.524 -0.5407  0.4089  0.9378
 4195TIP3    H112549   6.939   3.350   4.606  1.7957 -0.8458  0.0219
 4195TIP3    H212550   6.946   3.376   4.457 -1.4643  0.0322 -0.0708
 4196TIP3   OH212551   6.460   0.225   1.999  0.5764 -0.2008 -0.1433
 4196TIP3    H112552   6.408   0.199   1.923 -1.2243  1.4854  0.4388
 4196TIP3    H212553   6.509   0.302   1.970  0.6271 -0.1287  0.1290
 4197TIP3   OH212554   5.153   0.403   4.412 -0.9216  0.6067  0.3153
 4197TIP3    H112555   5.190   0.464   4.476 -1.6497  1.6293 -0.2058
 4197TIP3    H212556   5.191   0.430   4.329  0.2834 -0.9375  0.3344
 4198TIP3   OH212557   2.106   0.516   5.612 -0.1391 -0.2706  0.0811
 4198TIP3    H112558   2.047   0.513   5.536  1.2998 -0.7465 -1.0536
 4198TIP3    H212559   2.117   0.424   5.637  0.2099 -0.1878  0.2305
 4199TIP3   OH212560   0.064   0.845   5.348  0.6889  0.1169 -0.3650
 4199TIP3    H112561  -0.023   0.866   5.313  0.3782  1.8343  1.2696
 4199TIP3    H212562   0.048   0.774   5.410  0.2748  0.9985  0.5662
 4200TIP3   OH212563   6.751   1.328   5.748 -0.4131 -0.2543 -0.3729
 4200TIP3    H112564   6.683   1.353   5.810  0.8162  1.3305  0.4155
 4200TIP3    H212565   6.738   1.388   5.674  0.3030  0.2852 -0.0728
 4201TIP3   OH212566   0.993   2.153   2.340  0.3865  0.0919  0.0535
 4201TIP3    H112567   1.027   2.154   2.250 -0.2923 -0.1721 -0.2132
 4201TIP3    H212568   0.908   2.109   2.333  0.2720  0.1795  0.8081
 4202TIP3   OH212569   0.774   3.366   4.532  0.3055 -0.2600  0.4277
 4202TIP3    H112570   0.780   3.461   4.537 -1.1462 -0.2084  1.6134
 4202TIP3    H212571   0.709   3.342   4.598  1.6779 -2.1959  1.1786
 4203TIP3   OH212572   4.394   4.834   1.013 -0.3297 -0.0453  0.1982
 4203TIP3    H112573   4.380   4.893   1.087 -0.4219 -0.3698  0.4399
 4203TIP3    H212574   4.483   4.800   1.025  0.0021  0.6018 -0.3402
 4204TIP3   OH212575   4.335   1.545   0.017  0.4909  0.3396 -0.2399
 4204TIP3    H112576   4.382   1.607   0.072  1.6227 -0.7205  0.0342
 4204TIP3    H212577   4.388   1.538  -0.062  0.0126  0.2227 -0.5554
 4205TIP3   OH212578   1.022   5.134   2.584 -0.6680 -0.3514  0.0246
 4205TIP3    H112579   0.945   5.109   2.635 -1.4548  1.4669 -0.1822
 4205TIP3    H212580   1.089   5.153   2.650 -1.0236 -0.0378  0.2999
 4206TIP3   OH212581   4.969   5.780   1.933  0.3927  0.2842 -0.0955
 4206TIP3    H112582   4.907   5.794   2.005  1.9178 -0.1709  1.3723
 4206TIP3    H212583   4.976   5.685   1.926 -0.5903  0.2906 -1.6624
 4207TIP3   OH212584   3.700   4.696   5.301 -0.2801 -0.1595 -0.2845
 4207TIP3    H112585   3.725   4.612   5.263  2.0404  1.0045 -1.5650
 4207TIP3    H212586   3.737   4.695   5.390 -0.6801 -0.6468 -0.1188
 4208TIP3   OH212587   2.308   0.533   3.930 -0.0471  0.8712 -0.8101
 4208TIP3    H112588   2.250   0.471   3.974 -0.3076  1.3412 -0.4847
 4208TIP3    H212589   2.331   0.597   3.998  0.6925  0.8046 -0.9864
 4209TIP3   OH212590   3.214   6.744   3.752  0.1086  0.3302  0.1056
 4209TIP3    H112591   3.185   6.818   3.699  1.2529  1.4608  0.9804
 4209TIP3    H212592   3.220   6.779   3.841 -0.9374 -1.2848  0.8526
 4210TIP3   OH212593   1.477   3.107   3.279  0.2266  0.5754 -0.3932
 4210TIP3    H112594   1.410   3.062   3.227  0.2381 -0.9105  0.8087
 4210TIP3    H212595   1.445   3.101   3.369  1.9658 -0.2080  0.2173
 4211TIP3   OH212596   5.852   6.434   3.623  0.5058 -0.0641  0.1734
 4211TIP3    H112597   5.781   6.391   3.670  2.2610 -1.8913  1.3351
 4211TIP3    H212598   5.837   6.411   3.531 -0.7544  0.1882  0.2949
 4212TIP3   OH212599   7.170   5.042   4.838 -0.7578  0.0640  0.1369
 4212TIP3    H112600   7.183   5.135   4.816  0.8420 -0.1007  0.2373
 4212TIP3    H212601   7.243   5.021   4.896 -0.7066 -1.4377 -0.4224
 4213TIP3   OH212602   6.880   5.511   0.632 -0.5133  0.1966 -0.7607
 4213TIP3    H112603   6.884   5.596   0.675 -0.8412 -0.2081  0.0845
 4213TIP3    H212604   6.913   5.527   0.543  2.7556  0.5370  0.4098
 4214TIP3   OH212605   0.960   3.745   0.433  0.6306  0.2082  0.1246
 4214TIP3    H112606   0.906   3.787   0.499  0.6604 -0.6247  0.6931
 4214TIP3    H212607   1.043   3.792   0.436  0.4570  0.5074  0.3058
 4215TIP3   OH212608   0.767   5.262   4.432 -0.2970  0.0328  0.0142
 4215TIP3    H112609   0.696   5.202   4.457  1.1172 -1.1837  1.2648
 4215TIP3    H212610   0.803   5.292   4.516  0.4733  0.8611 -0.6018
 4216TIP3   OH212611   6.387   2.832   4.854  0.1130  0.2683 -0.1594
 4216TIP3    H112612   6.385   2.891   4.779 -0.2566 -0.1902 -0.5167
 4216TIP3    H212613   6.478   2.832   4.883 -0.0057  1.5257  0.2653
 4217TIP3   OH212614   0.537   1.848   0.157  0.8586 -0.5319  0.5068
 4217TIP3    H112615   0.449   1.885   0.146  0.2342 -2.3345 -0.9063
 4217TIP3    H212616   0.595   1.924   0.154 -0.6680  0.8340  2.5355
 4218TIP3   OH212617   2.409   1.101   0.239  0.2260  0.2957  0.3527
 4218TIP3    H112618   2.365   1.040   0.180  1.1103 -0.4072  0.4077
 4218TIP3    H212619   2.350   1.107   0.315 -0.0379 -0.1964  0.1905
 4219TIP3   OH212620   4.287   3.120   5.491 -0.2535  0.5165 -0.8072
 4219TIP3    H112621   4.318   3.210   5.503  1.1722  0.0589 -0.8969
 4219TIP3    H212622   4.193   3.130   5.472 -0.3443  1.9115  0.1758
 4220TIP3   OH212623   3.087   3.713   2.832 -0.0215 -0.0857  0.0331
 4220TIP3    H112624   3.111   3.662   2.909 -1.2237  0.0397  0.5114
 4220TIP3    H212625   3.083   3.649   2.761  0.6165 -0.2800  0.1629
 4221TIP3   OH212626   6.532   0.150   3.442 -0.3082 -0.4137 -0.2207
 4221TIP3    H112627   6.445   0.136   3.480  0.2191 -0.2538  1.0951
 4221TIP3    H212628   6.588   0.170   3.517  0.6599  0.4943 -1.1507
 4222TIP3   OH212629   1.465   5.442   2.211  0.1665 -0.2737 -0.1695
 4222TIP3    H112630   1.542   5.401   2.171  0.2128 -0.2998 -0.0533
 4222TIP3    H212631   1.421   5.370   2.257  0.0002 -0.2863 -0.3467
 4223TIP3   OH212632   1.626   0.346   2.029  0.4163 -0.3000 -0.0300
 4223TIP3    H112633   1.593   0.332   2.118 -1.8447 -0.5899 -0.8565
 4223TIP3    H212634   1.547   0.352   1.975  1.7255  0.3238 -1.9663
 4224TIP3   OH212635   6.707   4.887   3.117 -0.5739  0.1028 -0.1243
 4224TIP3    H112636   6.778   4.825   3.100 -0.6568 -0.0798  0.1899
 4224TIP3    H212637   6.701   4.890   3.213 -1.4607 -0.4141 -0.1593
 4225TIP3   OH212638   4.625   2.818   5.907 -0.0502 -0.3769  0.1484
 4225TIP3    H112639   4.701   2.876   5.906 -0.3044  0.0146  1.3232
 4225TIP3    H212640   4.631   2.768   5.826  1.1014  0.1050 -0.0786
 4226TIP3   OH212641   5.964   6.233   2.593 -0.2156  0.1190  0.0515
 4226TIP3    H112642   5.925   6.187   2.518  1.3883 -0.1656 -0.6595
 4226TIP3    H212643   6.009   6.308   2.554 -0.2236  0.5453  0.8560
 4227TIP3   OH212644   3.202   5.292   3.927  0.0381  0.2874  0.1641
 4227TIP3    H112645   3.281   5.279   3.979  0.7848  0.3876 -0.9031
 4227TIP3    H212646   3.154   5.210   3.936 -0.5369  0.7875  2.0913
 4228TIP3   OH212647   5.483   6.766   5.484  0.2592  0.2581 -0.2410
 4228TIP3    H112648   5.425   6.822   5.431  1.7518  1.8439 -0.2804
 4228TIP3    H212649   5.562   6.756   5.431  1.5453  1.3731  1.3610
 4229TIP3   OH212650   2.335   1.055   5.362 -0.2426  0.0523 -0.1695
 4229TIP3    H112651   2.419   1.052   5.408 -0.3887  0.3053  0.1206
 4229TIP3    H212652   2.303   1.144   5.377  0.2904  0.5515 -1.8374
 4230TIP3   OH212653   1.354   5.903   3.862  0.0107 -0.0750  0.0584
 4230TIP3    H112654   1.443   5.888   3.831  0.4209  0.8726  0.7596
 4230TIP3    H212655   1.339   5.997   3.850  0.1760  0.3528  2.6419
 4231TIP3   OH212656   1.956   3.753   4.263 -0.0892  0.1376 -0.3578
 4231TIP3    H112657   1.965   3.814   4.190 -1.2430  0.3736 -0.3168
 4231TIP3    H212658   1.867   3.767   4.295 -0.2735 -1.3567 -0.1608
 4232TIP3   OH212659   3.621   2.015   1.428  0.0134  0.1480 -0.1162
 4232TIP3    H112660   3.617   1.923   1.455  0.0413 -0.5998 -2.4544
 4232TIP3    H212661   3.699   2.049   1.472 -0.9181 -0.4338  2.1260
 4233TIP3   OH212662   6.627   0.644   3.451 -0.1001  0.9702 -0.9167
 4233TIP3    H112663   6.618   0.714   3.516 -0.9739  0.5900 -0.6033
 4233TIP3    H212664   6.549   0.652   3.396  0.4751  1.0867 -1.7267
 4234TIP3   OH212665   3.145   3.524   2.620 -0.2867 -0.1401 -0.0228
 4234TIP3    H112666   3.125   3.432   2.602  0.3629 -0.1921 -0.5350
 4234TIP3    H212667   3.240   3.527   2.625 -0.3158  0.4680  0.2234
 4235TIP3   OH212668   6.529   6.804   4.540 -0.5221 -0.4647 -0.0625
 4235TIP3    H112669   6.589   6.794   4.614 -0.6714  0.5445  0.2096
 4235TIP3    H212670   6.447   6.765   4.569 -0.4213 -0.5518  0.1047
 4236TIP3   OH212671   3.651   4.065   4.250  0.0285 -0.4481  0.4520
 4236TIP3    H112672   3.743   4.047   4.265 -0.0197 -2.3256 -1.0937
 4236TIP3    H212673   3.648   4.108   4.164 -0.5808 -1.0185  0.1768
 4237TIP3   OH212674   1.131   2.566   3.458 -0.2731  0.7439  0.0922
 4237TIP3    H112675   1.134   2.594   3.366 -2.6949 -2.4941 -1.1931
 4237TIP3    H212676   1.047   2.599   3.490  0.8340  2.3825  1.4133
 4238TIP3   OH212677   4.392   3.276   1.699 -0.4967 -0.0901 -0.0651
 4238TIP3    H112678   4.448   3.333   1.645 -1.3474 -1.2493 -2.3068
 4238TIP3    H212679   4.307   3.279   1.657 -0.3674 -3.6789 -0.9101
 4239TIP3   OH212680   6.468   2.102   5.315  0.1831 -0.4094  0.3314
 4239TIP3    H112681   6.386   2.066   5.282  1.3505 -2.0873 -0.9230
 4239TIP3    H212682   6.512   2.027   5.356  1.1878  0.3859  0.7552
 4240TIP3   OH212683   4.743   3.189   0.889 -0.0453 -0.1133 -0.2503
 4240TIP3    H112684   4.711   3.199   0.799 -0.8996 -0.2493  0.0323
 4240TIP3    H212685   4.754   3.279   0.920 -0.0752 -0.0661 -0.3740
 4241TIP3   OH212686   3.396   5.883   0.689 -0.4457 -0.2699  0.1619
 4241TIP3    H112687   3.381   5.864   0.782 -0.4734 -0.0058  0.2116
 4241TIP3    H212688   3.336   5.825   0.643 -1.4105  0.5550  0.3465
 4242TIP3   OH212689   6.246   1.658   3.973 -0.0693 -0.3811  0.0006
 4242TIP3    H112690   6.193   1.595   3.924  0.5392 -0.4789 -0.5462
 4242TIP3    H212691   6.327   1.610   3.993 -0.3631 -0.3914  1.2367
 4243TIP3   OH212692   2.737   0.385   0.169 -0.3749  0.2140  0.2589
 4243TIP3    H112693   2.723   0.392   0.264  1.2984 -2.4034  0.7939
 4243TIP3    H212694   2.653   0.410   0.131 -1.5575 -0.0442  2.5081
 4244TIP3   OH212695   3.773   0.507   1.956 -0.2364 -0.3176  0.1769
 4244TIP3    H112696   3.681   0.482   1.952 -1.3316  3.0862  0.2049
 4244TIP3    H212697   3.809   0.456   2.029 -2.2176 -1.3676  0.4765
 4245TIP3   OH212698   4.449   4.019   0.392 -0.4167  0.0397  0.6812
 4245TIP3    H112699   4.389   3.959   0.348 -0.4410  1.1846 -0.9492
 4245TIP3    H212700   4.523   3.964   0.418 -1.9896 -1.3527  2.5296
 4246TIP3   OH212701   5.388   3.077   5.750 -0.5805 -0.9366 -0.6852
 4246TIP3    H112702   5.376   3.120   5.835  1.6692  0.1816 -0.8691
 4246TIP3    H212703   5.317   3.111   5.696 -1.8953 -1.4682  0.6172
 4247TIP3   OH212704   0.142   0.671   2.126  0.2207 -0.7233  0.4910
 4247TIP3    H112705   0.126   0.765   2.123  0.6930 -0.5268  2.6562
 4247TIP3    H212706   0.060   0.632   2.095  0.2019  0.3605 -0.9478
 4248TIP3   OH212707   6.143   1.066   2.047 -0.1217 -0.0668 -0.9594
 4248TIP3    H112708   6.186   1.138   2.092  0.2966 -0.7147 -0.2899
 4248TIP3    H212709   6.188   1.061   1.962  0.0484  0.2655 -0.8903
 4249TIP3   OH212710   6.053   0.811   1.942 -0.2339  0.6975 -0.8611
 4249TIP3    H112711   6.144   0.819   1.971 -0.5280  1.8522 -0.2105
 4249TIP3    H212712   6.016   0.897   1.957 -1.6784  0.0120 -0.3590
 4250TIP3   OH212713   1.584   5.107   2.532 -0.2892 -0.1840 -0.1990
 4250TIP3    H112714   1.604   5.198   2.510  0.4972 -0.3290 -0.1108
 4250TIP3    H212715   1.495   5.093   2.499 -0.6030  0.7519  0.2055
 4251TIP3   OH212716   6.064   4.671   2.128  0.2830 -0.3626  0.3564
 4251TIP3    H112717   5.975   4.701   2.107  0.5833  0.6382  0.4501
 4251TIP3    H212718   6.059   4.647   2.221 -1.2451 -5.5520 -0.7519
 4252TIP3   OH212719   0.286   0.606   0.219  0.3692  0.1200 -0.0028
 4252TIP3    H112720   0.195   0.607   0.247  0.5671  0.6144  0.6555
 4252TIP3    H212721   0.332   0.656   0.286  1.1633 -0.3296 -0.1967
 4253TIP3   OH212722   6.537   3.516   0.914  0.3813 -0.6122  0.6408
 4253TIP3    H112723   6.630   3.506   0.935  0.6711 -0.9481 -0.6803
 4253TIP3    H212724   6.499   3.430   0.932  0.3612 -0.5184  1.0404
 4254TIP3   OH212725   2.276   5.324   2.454 -0.5443 -0.2772  0.1904
 4254TIP3    H112726   2.349   5.345   2.396 -1.2988  0.1511 -0.6322
 4254TIP3    H212727   2.299   5.366   2.537  1.2070 -2.0609  0.6832
 4255TIP3   OH212728   6.952   5.285   0.205  0.1266 -0.0351 -0.0957
 4255TIP3    H112729   6.893   5.229   0.156  0.7460 -1.0135  0.2618
 4255TIP3    H212730   6.899   5.362   0.227 -0.8021 -0.5798 -0.3845
 4256TIP3   OH212731   5.143   6.730   2.367  0.4106  0.3242  0.2232
 4256TIP3    H112732   5.222   6.749   2.316  0.5350 -1.6628 -0.4047
 4256TIP3    H212733   5.086   6.806   2.351  1.8196  1.3833 -0.0230
 4257TIP3   OH212734   2.795   0.643   3.239  0.1804  0.6432 -0.0267
 4257TIP3    H112735   2.726   0.601   3.291 -0.0257 -2.3988 -2.4871
 4257TIP3    H212736   2.866   0.658   3.302 -1.8245  1.8210  2.1179
 4258TIP3   OH212737   5.637   0.326   1.817 -0.4641  0.4680  0.2779
 4258TIP3    H112738   5.664   0.278   1.739  0.2449  0.7090  0.3656
 4258TIP3    H212739   5.719   0.360   1.853 -0.8309  0.7104  0.8924
 4259TIP3   OH212740   5.590   1.565   0.303 -0.9821  0.2994  0.2268
 4259TIP3    H112741   5.566   1.479   0.337  0.1702 -0.3030 -0.4078
 4259TIP3    H212742   5.592   1.622   0.379 -2.2688 -0.1055  0.5837
 4260TIP3   OH212743   4.219   6.483   1.259  0.6802  0.5888  0.4335
 4260TIP3    H112744   4.153   6.506   1.324 -0.9829  1.7255 -1.5485
 4260TIP3    H212745   4.270   6.563   1.248  0.4338  0.6488 -0.2573
 4261TIP3   OH212746   0.150   4.199   2.933  0.4365  0.4283 -0.0549
 4261TIP3    H112747   0.238   4.213   2.969 -0.0584  0.4985  1.1682
 4261TIP3    H212748   0.093   4.197   3.009 -0.5739 -0.0953 -0.8040
 4262TIP3   OH212749   2.014   0.842   1.781  0.0675  0.2365 -0.2565
 4262TIP3    H112750   2.013   0.775   1.713 -0.5983  0.2558 -0.2779
 4262TIP3    H212751   2.083   0.815   1.842  0.2083 -0.1417 -0.5843
 4263TIP3   OH212752   5.747   2.191   2.301  0.2076 -0.1982 -0.4761
 4263TIP3    H112753   5.767   2.263   2.241 -2.3593  1.4756  0.4798
 4263TIP3    H212754   5.664   2.156   2.269  1.1791 -2.5591 -0.6572
 4264TIP3   OH212755   1.889   3.110   1.272  0.2076 -0.2227 -0.2860
 4264TIP3    H112756   1.800   3.130   1.245  0.7823  0.4767 -1.7365
 4264TIP3    H212757   1.888   3.123   1.367 -1.3639 -0.8063 -0.1892
 4265TIP3   OH212758   3.671   3.002   3.383  0.0888  0.4401  0.2029
 4265TIP3    H112759   3.744   3.014   3.444 -0.7313  1.7868  0.9725
 4265TIP3    H212760   3.604   2.957   3.436 -0.4891  1.2902  0.2160
 4266TIP3   OH212761   6.027   1.536   2.070 -0.3753  0.0181  0.6345
 4266TIP3    H112762   6.094   1.566   2.009  0.4646 -1.5560  0.7421
 4266TIP3    H212763   6.036   1.592   2.146 -0.8914  1.4730 -0.3295
 4267TIP3   OH212764   3.648   0.750   0.813  0.2253  0.0771  0.1018
 4267TIP3    H112765   3.740   0.768   0.793  0.2787  0.3516  0.5920
 4267TIP3    H212766   3.617   0.828   0.860 -0.1478 -0.1758  0.2846
 4268TIP3   OH212767   5.108   5.677   3.182 -0.1940  0.1089  0.2147
 4268TIP3    H112768   5.114   5.639   3.270 -0.4168  1.7040  0.9578
 4268TIP3    H212769   5.108   5.601   3.123  0.3345 -0.9847  1.5561
 4269TIP3   OH212770   1.762   3.145   3.281  0.0093  0.1074  0.1416
 4269TIP3    H112771   1.667   3.156   3.275 -0.1191  1.3761  2.8194
 4269TIP3    H212772   1.798   3.229   3.253  0.3241 -0.1980 -0.3804
 4270TIP3   OH212773   0.297   3.409   1.466 -0.3185  0.1376  0.3314
 4270TIP3    H112774   0.385   3.378   1.490 -1.3055 -2.0673  1.3717
 4270TIP3    H212775   0.267   3.347   1.399 -1.4248  0.3486  0.6132
 4271TIP3   OH212776   4.607   0.665   0.121  0.1991 -0.4860  0.0664
 4271TIP3    H112777   4.631   0.624   0.204 -1.2427 -0.4623  0.5298
 4271TIP3    H212778   4.511   0.670   0.124  0.0391 -1.3650 -2.0195
 4272TIP3   OH212779   2.871   5.678   2.742 -0.3844 -0.0718  0.1383
 4272TIP3    H112780   2.947   5.640   2.700  1.3069  3.1068  0.0088
 4272TIP3    H212781   2.823   5.721   2.671 -1.1803 -0.2968  0.5262
 4273TIP3   OH212782   2.989   5.804   0.740  1.1390 -0.1333  0.3686
 4273TIP3    H112783   2.906   5.832   0.778  0.5639  1.4976 -1.8793
 4273TIP3    H212784   3.024   5.742   0.803 -1.2371 -0.0252  1.9369
 4274TIP3   OH212785   0.852   1.929   3.848  0.2127  0.6625  0.0869
 4274TIP3    H112786   0.829   1.858   3.788  1.6888  0.1721  0.0509
 4274TIP3    H212787   0.824   2.009   3.803  0.2144  0.2258 -0.7106
 4275TIP3   OH212788   5.706   0.156   1.575 -0.4194 -0.3443  0.2249
 4275TIP3    H112789   5.727   0.109   1.656 -0.5006 -0.3951  0.2167
 4275TIP3    H212790   5.643   0.099   1.531  0.9109 -1.1619 -0.6973
 4276TIP3   OH212791   5.009   1.344   1.706  0.0928  0.2285 -0.0958
 4276TIP3    H112792   5.067   1.393   1.764 -0.0274 -1.4398  1.5706
 4276TIP3    H212793   5.029   1.252   1.725  0.5348 -0.4564 -3.2734
 4277TIP3   OH212794   1.822   3.465   1.461 -0.2726  0.4916 -0.3881
 4277TIP3    H112795   1.881   3.527   1.503  0.0115  0.0626 -0.1406
 4277TIP3    H212796   1.807   3.397   1.527 -0.5951  0.3083 -0.6429
 4278TIP3   OH212797   6.748   1.534   1.745 -0.1663 -0.3579 -0.3126
 4278TIP3    H112798   6.776   1.625   1.755 -4.0944  0.8194  2.7095
 4278TIP3    H212799   6.692   1.535   1.668 -1.4419  0.2628  0.5809
 4279TIP3   OH212800   5.433   1.173   4.213 -0.4281 -0.0840  0.3674
 4279TIP3    H112801   5.476   1.175   4.128 -0.1383 -0.4543  0.5038
 4279TIP3    H212802   5.419   1.080   4.231  0.3463 -0.0676  1.1374
 4280TIP3   OH212803   2.345   4.872   2.044  0.1071 -0.4323 -0.0356
 4280TIP3    H112804   2.423   4.819   2.030 -0.2027 -0.6663 -0.9605
 4280TIP3    H212805   2.303   4.876   1.958 -0.2689  0.6887  0.1816
 4281TIP3   OH212806   0.045   6.126   0.695 -0.4526 -0.0492 -0.1911
 4281TIP3    H112807   0.076   6.196   0.637 -1.3271  0.3183 -0.2311
 4281TIP3    H212808   0.120   6.105   0.750 -0.4361  1.5577  0.4469
 4282TIP3   OH212809   1.799   0.551   3.740 -0.0539 -0.3149 -0.1850
 4282TIP3    H112810   1.841   0.483   3.792 -1.2486  0.0291  1.2974
 4282TIP3    H212811   1.846   0.631   3.762  0.3629 -0.4016 -0.7485
 4283TIP3   OH212812   4.881   6.256   2.977 -0.1974  0.1412  0.1088
 4283TIP3    H112813   4.853   6.182   2.923  0.3871 -1.6071  2.0759
 4283TIP3    H212814   4.799   6.294   3.010 -0.5130  0.5865 -1.1555
 4284TIP3   OH212815   2.242   4.900   1.794 -0.1874 -0.4381 -0.1754
 4284TIP3    H112816   2.197   4.962   1.737  2.0547  1.2486 -0.2415
 4284TIP3    H212817   2.335   4.907   1.769  0.4366 -2.0857  1.4457
 4285TIP3   OH212818   6.971   0.464   2.228  0.0242  0.2665 -0.4264
 4285TIP3    H112819   6.920   0.499   2.300  0.2670  2.2090 -1.1248
 4285TIP3    H212820   7.054   0.438   2.267 -0.2434  0.2807  0.1544
 4286TIP3   OH212821   4.819   1.612   4.519 -0.6723 -0.5149  0.3591
 4286TIP3    H112822   4.733   1.636   4.555 -0.6336 -1.5525  1.2015
 4286TIP3    H212823   4.810   1.519   4.497  0.2834 -0.6794  0.6169
 4287TIP3   OH212824   6.617   3.332   4.210  0.2056  0.0701  0.1379
 4287TIP3    H112825   6.666   3.308   4.288 -0.6301  2.1027  1.3751
 4287TIP3    H212826   6.530   3.294   4.225  0.1787  0.0669 -0.0316
 4288TIP3   OH212827   3.143   0.240   0.593 -0.8433  0.1510  0.4121
 4288TIP3    H112828   3.100   0.270   0.513 -1.1684  0.8994  0.8575
 4288TIP3    H212829   3.224   0.291   0.597 -0.8530  0.1530  0.5822
 4289TIP3   OH212830   1.877   5.483   5.281 -0.3387 -0.5762 -0.5560
 4289TIP3    H112831   1.964   5.523   5.269 -0.0415 -1.2563 -0.7475
 4289TIP3    H212832   1.825   5.519   5.209  0.1413 -1.1084 -1.1817
 4290TIP3   OH212833   5.113   4.172   5.450  0.4418 -0.9493 -1.0631
 4290TIP3    H112834   5.163   4.104   5.405  2.2333 -0.7109  0.4371
 4290TIP3    H212835   5.022   4.144   5.443  0.9100 -2.2326 -2.5493
 4291TIP3   OH212836   3.263   3.114   3.784  0.0211  0.1795  0.2506
 4291TIP3    H112837   3.280   3.161   3.702 -0.2591  0.3139  0.2700
 4291TIP3    H212838   3.204   3.043   3.760  1.3671 -0.8968  0.0011
 4292TIP3   OH212839   3.005   0.267   5.562  0.2321  0.4113 -0.1939
 4292TIP3    H112840   3.035   0.179   5.542  1.4550  0.2984  1.8765
 4292TIP3    H212841   3.057   0.294   5.638 -0.5341  2.6816 -0.3955
 4293TIP3   OH212842   5.214   4.813   0.620 -0.1616 -0.3887  0.3890
 4293TIP3    H112843   5.122   4.789   0.612 -0.3617  0.3467  0.4360
 4293TIP3    H212844   5.228   4.825   0.714  0.1807 -1.2482  0.4541
 4294TIP3   OH212845   0.774   0.350   4.126 -0.4574  0.1885 -0.3699
 4294TIP3    H112846   0.847   0.386   4.177 -1.1240  1.0484  0.0194
 4294TIP3    H212847   0.758   0.264   4.163  0.7993 -0.2979 -0.9184
 4295TIP3   OH212848   2.744   5.526   2.958  0.0819  0.7227  0.6461
 4295TIP3    H112849   2.815   5.569   2.910  0.1731 -0.7192 -0.5586
 4295TIP3    H212850   2.664   5.558   2.917  0.1076  0.6221  0.5189
 4296TIP3   OH212851   4.370   5.249   0.292 -0.3928 -0.4093 -0.0228
 4296TIP3    H112852   4.337   5.207   0.371  0.9915 -1.4433  0.0615
 4296TIP3    H212853   4.433   5.186   0.256 -2.4715 -0.9556 -3.1369
 4297TIP3   OH212854   2.537   1.509   2.812 -0.4715 -0.2171  0.2782
 4297TIP3    H112855   2.469   1.528   2.876 -1.1067  0.0985 -0.4692
 4297TIP3    H212856   2.590   1.588   2.807 -1.1714  0.2153 -0.4807
 4298TIP3   OH212857   5.959   6.797   5.370 -0.1894  0.2705 -0.0413
 4298TIP3    H112858   5.879   6.804   5.421  0.0159 -1.3085  0.5417
 4298TIP3    H212859   6.019   6.748   5.426  0.1669 -1.2208 -1.6479
 4299TIP3   OH212860   1.576   6.570   4.450 -0.4220  0.2451  0.3990
 4299TIP3    H112861   1.634   6.494   4.445 -0.4885  0.1812  0.5954
 4299TIP3    H212862   1.630   6.643   4.418 -0.6381 -0.0371 -0.6395
 4300TIP3   OH212863   0.184   4.735   5.481  0.0480 -0.1878  0.5150
 4300TIP3    H112864   0.242   4.802   5.519 -0.2950  0.8229 -0.7011
 4300TIP3    H212865   0.242   4.662   5.461  1.2472  1.3180 -1.9701
 4301TIP3   OH212866   5.834   1.620   1.009  0.1315  0.1519  0.5359
 4301TIP3    H112867   5.883   1.550   1.053 -0.5250 -0.6599  0.0133
 4301TIP3    H212868   5.742   1.595   1.021 -0.0780  0.2740 -0.6976
 4302TIP3   OH212869   1.884   1.542   1.370  0.3860 -0.3837  0.4503
 4302TIP3    H112870   1.830   1.613   1.336  2.1974  0.2117 -1.3490
 4302TIP3    H212871   1.949   1.584   1.425  0.3768 -0.8537  0.8314
 4303TIP3   OH212872   4.220   3.710   1.639  0.0175  0.2403 -0.1680
 4303TIP3    H112873   4.159   3.777   1.670 -1.5350 -1.1894  0.0030
 4303TIP3    H212874   4.172   3.628   1.648  0.9744 -0.6771 -2.5728
 4304TIP3   OH212875   6.636   4.652   3.774  0.4486 -0.3745  0.0381
 4304TIP3    H112876   6.569   4.715   3.748  2.0845  1.0874 -0.8257
 4304TIP3    H212877   6.664   4.611   3.692  1.6421  0.1302  0.1630
 4305TIP3   OH212878   3.692   5.383   3.192  0.2887  0.2266  0.1036
 4305TIP3    H112879   3.745   5.462   3.181  0.0075  0.3550 -0.3502
 4305TIP3    H212880   3.659   5.365   3.104  0.9885 -0.8515  0.0448
 4306TIP3   OH212881   1.601   0.150   4.343 -0.1087  0.2736 -0.6400
 4306TIP3    H112882   1.634   0.095   4.413 -2.7925  0.6313  1.0633
 4306TIP3    H212883   1.545   0.092   4.291  0.0680  0.5364 -1.1317
 4307TIP3   OH212884   3.788   4.512   3.496  0.6090  0.3196  0.1637
 4307TIP3    H112885   3.786   4.582   3.562  0.5751 -0.1624  0.6838
 4307TIP3    H212886   3.698   4.478   3.496  0.4346  0.7723 -0.6301
 4308TIP3   OH212887   1.461   5.758   2.933  0.3647  0.2743 -0.1122
 4308TIP3    H112888   1.549   5.763   2.895 -0.0439  0.8027 -1.0224
 4308TIP3    H212889   1.464   5.818   3.008  0.5426  0.9697 -0.6600
 4309TIP3   OH212890   5.866   6.308   2.204  0.0508 -0.1395  0.4443
 4309TIP3    H112891   5.877   6.219   2.170  0.8195  0.2899 -0.4664
 4309TIP3    H212892   5.777   6.309   2.240 -0.7089 -0.7124 -1.3034
 4310TIP3   OH212893   5.229   0.211   3.098  0.2691 -0.2859 -0.0221
 4310TIP3    H112894   5.286   0.233   3.172  1.4143  0.4964 -1.0939
 4310TIP3    H212895   5.173   0.141   3.131  0.1761  0.5954  1.8339
 4311TIP3   OH212896   5.036   2.250   0.913  0.1395  0.1684  0.2408
 4311TIP3    H112897   5.041   2.235   0.819  1.1704 -0.9387  0.4509
 4311TIP3    H212898   5.067   2.339   0.925  1.7012 -0.2632 -0.3271
 4312TIP3   OH212899   4.797   3.866   3.899 -0.7677  0.0770  0.2710
 4312TIP3    H112900   4.784   3.771   3.900 -0.3867  0.0162  1.8909
 4312TIP3    H212901   4.878   3.879   3.849 -1.0100 -0.4103 -0.2608
 4313TIP3   OH212902   0.194   4.009   5.595 -0.3401  0.0444  0.2374
 4313TIP3    H112903   0.202   3.932   5.539 -1.1619 -0.5812  0.9435
 4313TIP3    H212904   0.284   4.030   5.619 -0.1123 -0.8360  0.1989
 4314TIP3   OH212905   5.608   4.685   0.410  0.3629 -0.3306  0.0440
 4314TIP3    H112906   5.551   4.651   0.480 -1.6458  1.1354 -0.7939
 4314TIP3    H212907   5.554   4.680   0.331  1.0905  1.8810 -0.6486
 4315TIP3   OH212908   3.687   3.872   2.534 -0.6982  0.3977 -0.0035
 4315TIP3    H112909   3.686   3.881   2.629  0.5575 -1.6117  0.2584
 4315TIP3    H212910   3.632   3.944   2.502 -1.0249  1.1951  2.2129
 4316TIP3   OH212911   4.838   3.226   1.320  0.3174 -0.3609  0.1848
 4316TIP3    H112912   4.839   3.225   1.416 -0.6233  0.8638  0.2346
 4316TIP3    H212913   4.864   3.315   1.296 -0.3540 -0.3765 -0.6580
 4317TIP3   OH212914   4.851   2.683   0.967  0.2609  0.0784 -0.0067
 4317TIP3    H112915   4.858   2.776   0.950  0.2200  0.0431 -0.2234
 4317TIP3    H212916   4.831   2.644   0.881  1.0389 -0.2162 -0.0624
 4318TIP3   OH212917   0.288   3.123   0.607  0.1828  0.1185  0.0825
 4318TIP3    H112918   0.374   3.116   0.566  0.4873  2.6617  0.1808
 4318TIP3    H212919   0.228   3.083   0.543  1.0986  0.7446 -1.2046
 4319TIP3   OH212920   0.384   1.840   5.102 -0.5809  0.3031  0.0899
 4319TIP3    H112921   0.423   1.792   5.175 -0.9126  0.9813  0.7322
 4319TIP3    H212922   0.349   1.773   5.044 -1.1907 -0.2250  1.0542
 4320TIP3   OH212923   1.802   2.679   3.515 -0.1133  0.0590 -0.5720
 4320TIP3    H112924   1.834   2.615   3.451  1.0719  0.4211 -0.3739
 4320TIP3    H212925   1.850   2.659   3.595  0.1885  1.1040 -0.4758
 4321TIP3   OH212926   2.262   3.524   2.633 -0.4750 -0.3760  0.2774
 4321TIP3    H112927   2.272   3.432   2.608 -0.3500 -0.0899 -0.8023
 4321TIP3    H212928   2.169   3.535   2.648 -0.6347 -0.4435 -0.6173
 4322TIP3   OH212929   2.468   1.590   5.025 -0.3987  0.2617  0.0048
 4322TIP3    H112930   2.382   1.630   5.032 -0.5735  0.0422 -0.7843
 4322TIP3    H212931   2.460   1.527   4.954  0.0884 -0.6286  0.7114
 4323TIP3   OH212932   1.384   1.884   2.641  0.8207  0.7373  0.9734
 4323TIP3    H112933   1.349   1.972   2.655 -1.5535  0.3263 -1.5017
 4323TIP3    H212934   1.361   1.837   2.721 -1.5786  1.3795  0.7560
 4324TIP3   OH212935   5.804   6.507   1.375 -0.1968  0.2332 -0.0374
 4324TIP3    H112936   5.876   6.484   1.316  0.2646 -0.6520  0.8298
 4324TIP3    H212937   5.847   6.545   1.452 -0.8325  2.1061 -0.5477
 4325TIP3   OH212938   6.836   6.474   4.465 -0.3994 -0.0438  0.4336
 4325TIP3    H112939   6.800   6.554   4.429  0.1729  0.4800  1.0082
 4325TIP3    H212940   6.902   6.503   4.527  1.2765 -0.9590 -0.8279
 4326TIP3   OH212941   0.611   5.799   2.104 -0.1936  0.2918  0.1543
 4326TIP3    H112942   0.699   5.776   2.133  0.9758  3.2987 -0.6164
 4326TIP3    H212943   0.586   5.873   2.159 -2.0594 -0.1722 -0.0074
 4327TIP3   OH212944   2.536   4.967   4.432  0.2893  0.0454  0.0301
 4327TIP3    H112945   2.457   4.958   4.378  0.3445 -0.9015  0.1010
 4327TIP3    H212946   2.576   4.880   4.431  0.6372  0.1843  1.0562
 4328TIP3   OH212947   5.931   4.173   1.615  0.5582 -0.9576 -0.5940
 4328TIP3    H112948   5.910   4.098   1.560  0.8885 -1.1519 -0.4607
 4328TIP3    H212949   5.948   4.135   1.702 -0.8826 -0.5645 -0.1127
 4329TIP3   OH212950   3.689   1.724   1.473  0.0156  0.2132 -0.0165
 4329TIP3    H112951   3.686   1.643   1.423 -0.7902  0.3982 -0.2761
 4329TIP3    H212952   3.758   1.710   1.538 -0.6344 -0.9581  0.4332
 4330TIP3   OH212953   5.972   6.039   1.477 -0.6733 -0.5633 -0.5994
 4330TIP3    H112954   5.985   6.104   1.408  1.3017 -0.6933 -0.4238
 4330TIP3    H212955   5.955   5.957   1.431 -2.3719 -0.1120 -0.8364
 4331TIP3   OH212956   0.672   2.974   4.395  0.1599 -0.3686  0.7112
 4331TIP3    H112957   0.761   3.005   4.405 -0.7930  2.5474  1.1347
 4331TIP3    H212958   0.643   2.954   4.484 -0.1976  0.6244  0.8330
 4332TIP3   OH212959   2.117   6.747   3.812  0.0706 -1.0110 -0.0895
 4332TIP3    H112960   2.068   6.783   3.885  0.9736  2.8873 -1.1870
 4332TIP3    H212961   2.051   6.702   3.758 -1.0826 -1.3624  1.5588
 4333TIP3   OH212962   6.357   2.577   3.674  0.0842  0.4508 -0.0373
 4333TIP3    H112963   6.452   2.563   3.681  0.0305 -0.8406 -1.4598
 4333TIP3    H212964   6.319   2.511   3.732  0.0297  0.8939  0.4432
 4334TIP3   OH212965   6.391   3.287   5.755 -0.1480 -0.0093 -0.2313
 4334TIP3    H112966   6.440   3.349   5.809  1.0082 -0.9113 -0.2063
 4334TIP3    H212967   6.302   3.289   5.790  0.3095  0.2795  0.9627
 4335TIP3   OH212968   5.786   1.665   4.282  0.2870 -0.0349  0.1213
 4335TIP3    H112969   5.823   1.676   4.194  0.3977  1.2386  0.3083
 4335TIP3    H212970   5.840   1.597   4.322  1.2416  0.4675 -0.2682
 4336TIP3   OH212971   5.545   6.107   1.520 -0.6089 -0.1240 -0.0026
 4336TIP3    H112972   5.562   6.163   1.596 -1.0467 -0.4720  0.3536
 4336TIP3    H212973   5.536   6.168   1.446  1.1532  0.1528 -0.0365
 4337TIP3   OH212974   2.093   2.573   0.719 -0.7619 -0.0430 -0.4392
 4337TIP3    H112975   2.147   2.517   0.664 -3.4090 -2.4215 -0.8460
 4337TIP3    H212976   2.118   2.550   0.809  0.3624  0.5238 -0.5817
 4338TIP3   OH212977   3.511   3.346   5.332  0.9099  0.4159 -0.4142
 4338TIP3    H112978   3.457   3.408   5.284 -1.0766  0.8319  2.1582
 4338TIP3    H212979   3.470   3.261   5.317 -0.3121  0.6796  1.2326
 4339TIP3   OH212980   7.169   0.279   2.907 -0.1203  0.2315  0.0693
 4339TIP3    H112981   7.144   0.186   2.910 -1.3485  0.4607 -1.6747
 4339TIP3    H212982   7.263   0.279   2.889 -0.3821 -0.7022 -1.4572
 4340TIP3   OH212983   2.169   5.463   3.401  0.1621 -0.0478  0.1880
 4340TIP3    H112984   2.151   5.554   3.426  0.0425 -0.1872  0.6274
 4340TIP3    H212985   2.122   5.450   3.319  0.0163  0.2266  0.2274
 4341TIP3   OH212986   3.018   1.262   3.417  0.2666 -0.4339 -0.1070
 4341TIP3    H112987   2.998   1.169   3.406  1.8068 -0.8386  0.2358
 4341TIP3    H212988   2.957   1.291   3.485 -2.1264 -0.4585 -2.0915
 4342TIP3   OH212989   6.338   2.951   2.985  0.6314  0.4392 -0.0157
 4342TIP3    H112990   6.261   2.894   2.979  0.6505  0.4853 -0.7721
 4342TIP3    H212991   6.308   3.027   3.034  0.9206 -0.7359  2.0914
 4343TIP3   OH212992   3.933   1.555   2.078  0.2771  0.1232  0.0184
 4343TIP3    H112993   3.901   1.520   1.995  1.4429 -2.4951  0.5870
 4343TIP3    H212994   4.018   1.593   2.058 -0.6427  2.0524 -0.4467
 4344TIP3   OH212995   2.125   5.626   5.235 -0.3183  0.1285 -0.6475
 4344TIP3    H112996   2.197   5.579   5.192 -1.2751 -1.8676 -0.1485
 4344TIP3    H212997   2.169   5.676   5.304  0.7679  0.2659 -1.3970
 4345TIP3   OH212998   3.387   2.615   3.632 -0.4373  0.2295  0.0589
 4345TIP3    H112999   3.300   2.578   3.619 -1.3485  1.9974  0.7239
 4345TIP3    H213000   3.410   2.590   3.722 -0.9970  1.0969  0.4629
 4346TIP3   OH213001   6.969   2.417   3.243 -0.0017 -0.1432  0.4555
 4346TIP3    H113002   7.023   2.423   3.164 -0.0569 -1.3546  0.3142
 4346TIP3    H213003   6.929   2.330   3.239 -0.4192 -0.0217  1.5586
 4347TIP3   OH213004   2.988   3.871   4.353  0.1657 -0.2815 -0.3400
 4347TIP3    H113005   3.058   3.888   4.416 -0.1461  0.3528 -0.1613
 4347TIP3    H213006   2.935   3.802   4.394 -0.1409  0.2537  0.1843
 4348TIP3   OH213007   5.927   2.884   4.921 -0.7050 -0.1218 -0.1555
 4348TIP3    H113008   5.953   2.975   4.934  2.2869 -0.6777 -1.3235
 4348TIP3    H213009   5.895   2.855   5.006  1.9510  0.9923  1.3437
 4349TIP3   OH213010   7.221   1.564   5.872 -0.0658 -0.2597  0.3043
 4349TIP3    H113011   7.224   1.553   5.777 -0.1450 -0.8191  0.3662
 4349TIP3    H213012   7.161   1.496   5.903  0.5257 -0.5527  0.8255
 4350TIP3   OH213013   0.414   0.207   2.305  0.1369  0.0833  0.4660
 4350TIP3    H113014   0.488   0.266   2.322 -0.2998  0.9487 -0.5247
 4350TIP3    H213015   0.377   0.190   2.392  1.4743 -0.3472  0.9711
 4351TIP3   OH213016   6.240   4.954   0.394 -0.0383 -0.3786  0.0104
 4351TIP3    H113017   6.220   4.861   0.383  0.1960 -0.3119 -1.2399
 4351TIP3    H213018   6.155   4.998   0.385 -0.0683 -0.4409 -0.0122
 4352TIP3   OH213019   5.834   1.147   0.750 -0.5414 -0.5141  0.2956
 4352TIP3    H113020   5.889   1.131   0.673 -0.5784  0.7778 -0.0218
 4352TIP3    H213021   5.891   1.127   0.824  0.0726 -0.0824 -0.0494
 4353TIP3   OH213022   2.723   1.003   3.852 -0.2884  0.0919 -0.8349
 4353TIP3    H113023   2.745   0.946   3.778  2.2219 -0.2212  0.0650
 4353TIP3    H213024   2.803   1.053   3.868 -1.1842  1.0527  0.8893
 4354TIP3   OH213025   7.065   5.317   4.252 -0.1649  1.0264 -0.1673
 4354TIP3    H113026   7.142   5.286   4.300 -0.0943  3.0984  1.2118
 4354TIP3    H213027   6.995   5.255   4.275  0.4322  0.6920  0.7937
 4355TIP3   OH213028   1.126   4.625   3.267  0.0839  0.4908  0.1915
 4355TIP3    H113029   1.138   4.680   3.190 -1.9403 -0.3424 -0.7734
 4355TIP3    H213030   1.187   4.662   3.332  0.3036  2.5312 -1.0789
 4356TIP3   OH213031   7.160   1.373   5.222 -0.2686  0.3289  0.6535
 4356TIP3    H113032   7.066   1.361   5.209  0.3713 -1.6645 -5.3249
 4356TIP3    H213033   7.178   1.461   5.189  0.1043  0.1012  0.2356
 4357TIP3   OH213034   6.746   2.620   3.334 -0.0079  0.2009  0.0894
 4357TIP3    H113035   6.774   2.548   3.278 -1.9562 -0.1904 -0.4690
 4357TIP3    H213036   6.818   2.684   3.330  0.5946 -0.5283 -1.5528
 4358TIP3   OH213037   3.204   2.629   4.484 -0.2470  0.0741  0.0356
 4358TIP3    H113038   3.293   2.626   4.518 -0.2011 -4.0257  0.1030
 4358TIP3    H213039   3.212   2.604   4.392 -1.2438  0.1174 -0.0780
 4359TIP3   OH213040   4.983   0.157   1.342 -0.1291  0.1848 -0.2110
 4359TIP3    H113041   5.050   0.175   1.275 -0.8002  1.1773 -0.6405
 4359TIP3    H213042   5.023   0.188   1.424 -0.0552  0.7652 -0.4620
 4360TIP3   OH213043   4.378   3.405   0.346 -0.3104 -0.2293  0.1187
 4360TIP3    H113044   4.412   3.450   0.424 -1.3293 -0.9019  0.9771
 4360TIP3    H213045   4.428   3.442   0.274 -0.2036  1.3320  0.9481
 4361TIP3   OH213046   5.680   1.685   5.148 -0.0698 -0.1790 -0.1765
 4361TIP3    H113047   5.695   1.619   5.216  0.2641 -0.2061 -0.2765
 4361TIP3    H213048   5.618   1.747   5.188  0.6760  0.1973  0.4141
 4362TIP3   OH213049   4.077   4.398   0.918 -0.3342  0.5435 -0.2501
 4362TIP3    H113050   4.027   4.437   0.846 -0.1899 -0.9335 -1.1976
 4362TIP3    H213051   4.158   4.449   0.922  0.0638  0.0877 -1.7737
 4363TIP3   OH213052   5.388   2.548   2.531 -0.3691  0.5711 -0.6036
 4363TIP3    H113053   5.436   2.615   2.579 -1.5687 -0.1043  1.6950
 4363TIP3    H213054   5.296   2.570   2.547 -0.7775 -1.1434 -0.4703
 4364TIP3   OH213055   3.472   4.419   4.727  0.0238 -0.0135 -0.2915
 4364TIP3    H113056   3.501   4.341   4.773 -0.3899 -1.5069 -2.4446
 4364TIP3    H213057   3.411   4.461   4.788  0.3000 -1.3119  0.9365
 4365TIP3   OH213058   1.076   1.911   2.865 -0.6656 -0.4205 -0.3164
 4365TIP3    H113059   0.991   1.902   2.908 -1.0289 -0.8423 -1.1024
 4365TIP3    H213060   1.068   1.993   2.815  0.5627  1.3579  2.1661
 4366TIP3   OH213061   5.187   0.562   3.492  0.2786 -0.0288  0.0086
 4366TIP3    H113062   5.194   0.562   3.588  0.6221 -0.1832 -0.0138
 4366TIP3    H213063   5.099   0.527   3.475 -1.6982  4.1905  0.3549
 4367TIP3   OH213064   0.197   2.081   0.933 -0.1764 -0.0907 -0.0955
 4367TIP3    H113065   0.162   1.999   0.900  0.9082 -0.5124 -0.2514
 4367TIP3    H213066   0.290   2.063   0.948 -0.1441  0.7969  0.8856
 4368TIP3   OH213067   4.230   2.559   4.816 -0.0891  0.8037 -0.1274
 4368TIP3    H113068   4.246   2.489   4.879  0.5800 -0.5146 -1.7104
 4368TIP3    H213069   4.136   2.557   4.801  0.0730 -0.7631 -1.2115
 4369TIP3   OH213070   0.464   5.261   0.077  0.7617  0.0835  0.6839
 4369TIP3    H113071   0.393   5.305   0.124 -0.7590  0.5147 -1.8225
 4369TIP3    H213072   0.539   5.320   0.086 -0.2956  1.5575  0.2396
 4370TIP3   OH213073   6.796   1.210   1.215 -0.1160 -0.2318  0.1096
 4370TIP3    H113074   6.819   1.167   1.133 -1.8888 -0.1934 -0.4558
 4370TIP3    H213075   6.701   1.201   1.221 -0.2075  1.1688  1.3677
 4371TIP3   OH213076   2.270   6.490   1.953  0.3284  0.4780 -0.2425
 4371TIP3    H113077   2.274   6.546   1.876  3.0039 -1.5982 -1.8119
 4371TIP3    H213078   2.210   6.420   1.929  0.0529  0.5804  0.1380
 4372TIP3   OH213079   6.539   2.298   4.002  0.5239  0.3931 -0.3840
 4372TIP3    H113080   6.566   2.377   4.048 -0.7306  0.8501 -0.4194
 4372TIP3    H213081   6.450   2.316   3.972  0.7483 -0.4767 -1.6581
 4373TIP3   OH213082   5.256   1.581   1.484 -0.2049  0.0546 -0.4029
 4373TIP3    H113083   5.344   1.597   1.449 -0.0117 -2.6340 -1.3758
 4373TIP3    H213084   5.272   1.550   1.574 -0.4816  3.1820  0.8562
 4374TIP3   OH213085   1.323   0.362   0.508 -0.2178  0.3230 -0.5822
 4374TIP3    H113086   1.231   0.389   0.512 -0.0552  0.8545  2.4073
 4374TIP3    H213087   1.368   0.423   0.566  1.6548 -1.1969 -0.3250
 4375TIP3   OH213088   5.769   1.178   1.614 -0.5323 -0.2927 -0.5476
 4375TIP3    H113089   5.781   1.086   1.635 -0.3716 -0.4515 -1.3059
 4375TIP3    H213090   5.747   1.219   1.698 -1.4815 -1.1667 -0.3448
 4376TIP3   OH213091   6.411   6.803   0.253 -0.7980  0.1132 -0.1422
 4376TIP3    H113092   6.377   6.767   0.335 -1.0179 -1.6296 -0.9521
 4376TIP3    H213093   6.443   6.726   0.205  0.2846  1.2222 -1.2539
 4377TIP3   OH213094   4.250   2.298   1.032 -0.3659  0.1763  0.1533
 4377TIP3    H113095   4.232   2.243   1.108 -0.9793 -0.0117 -0.1226
 4377TIP3    H213096   4.336   2.269   1.001 -0.7289 -0.7121 -0.0565
 4378TIP3   OH213097   2.943   0.404   4.395 -0.1970  0.1718  0.2201
 4378TIP3    H113098   3.010   0.469   4.418 -1.6028  1.4668  0.8774
 4378TIP3    H213099   2.922   0.361   4.478  0.3572 -0.7897 -0.1259
 4379TIP3   OH213100   0.386   1.242   2.116  0.1236 -0.4329  0.0546
 4379TIP3    H113101   0.297   1.223   2.088  0.3451 -0.3496 -0.7451
 4379TIP3    H213102   0.387   1.223   2.210 -0.6999 -0.5426  0.0452
 4380TIP3   OH213103   0.486   0.147   5.312  0.2579  0.3270 -0.0218
 4380TIP3    H113104   0.447   0.093   5.243  1.4971 -1.9105  0.9399
 4380TIP3    H213105   0.477   0.237   5.279 -0.1513 -0.5564 -2.5870
 4381TIP3   OH213106   0.916   2.994   3.830 -0.4108 -0.6492 -0.2553
 4381TIP3    H113107   0.941   3.066   3.888  2.9126 -0.3081 -1.8556
 4381TIP3    H213108   0.913   2.917   3.887 -1.8183  0.3303  1.0869
 4382TIP3   OH213109   4.949   5.600   1.023  0.2566  0.0452 -0.6037
 4382TIP3    H113110   4.900   5.563   0.950 -0.3388 -0.2167 -0.0687
 4382TIP3    H213111   5.004   5.667   0.982 -0.7824  0.5794 -1.1655
 4383TIP3   OH213112   4.321   1.603   0.640 -0.8611 -1.1404 -0.0742
 4383TIP3    H113113   4.301   1.628   0.550 -0.6424 -0.0645  0.1603
 4383TIP3    H213114   4.372   1.676   0.674 -2.0361 -0.9329  1.3354
 4384TIP3   OH213115   3.882   4.799   0.597  0.2933 -0.5912 -0.0667
 4384TIP3    H113116   3.848   4.714   0.571  0.7759 -1.5570  2.2432
 4384TIP3    H213117   3.805   4.845   0.631  0.1650 -0.3340 -0.6812
 4385TIP3   OH213118   6.013   1.465   5.440 -0.4074  0.6661 -0.0021
 4385TIP3    H113119   6.044   1.374   5.447 -0.0098  0.7569 -0.4685
 4385TIP3    H213120   5.941   1.460   5.377  0.8155  0.9278 -1.4915
 4386TIP3   OH213121   7.140   3.364   0.814 -0.0983  0.3702  0.0376
 4386TIP3    H113122   7.131   3.342   0.906  6.1096  0.7929  1.1555
 4386TIP3    H213123   7.149   3.279   0.770 -1.5970  0.2160 -0.0161
 4387TIP3   OH213124   6.769   5.282   2.341  0.3190  0.7448  0.1998
 4387TIP3    H113125   6.767   5.348   2.411  1.3727  1.0162 -0.0007
 4387TIP3    H213126   6.689   5.231   2.354  0.7485  0.4319  1.9668
 4388TIP3   OH213127   1.029   5.845   5.153 -0.2734 -0.0158 -0.5389
 4388TIP3    H113128   1.029   5.931   5.111  1.4998  0.8994  1.2054
 4388TIP3    H213129   1.118   5.813   5.141 -0.6083 -1.1252 -0.1644
 4389TIP3   OH213130   5.794   4.475   4.214 -0.2294 -0.3424  0.9706
 4389TIP3    H113131   5.839   4.476   4.130 -0.1113  2.0941  1.0119
 4389TIP3    H213132   5.849   4.421   4.271 -0.2045 -1.8405 -0.4095
 4390TIP3   OH213133   6.081   1.763   2.649 -0.2727 -0.1825  0.1960
 4390TIP3    H113134   6.034   1.727   2.725 -0.8212 -0.1743 -0.1319
 4390TIP3    H213135   6.173   1.758   2.674 -0.4201 -0.5629  0.6990
 4391TIP3   OH213136   1.983   3.432   1.074 -0.0441 -0.2673  0.3909
 4391TIP3    H113137   1.891   3.460   1.076 -0.3024 -1.0003 -0.5019
 4391TIP3    H213138   2.020   3.467   1.155 -1.0236  0.3240  0.6078
 4392TIP3   OH213139   6.723   1.814   5.186  0.3932 -0.3075  0.3642
 4392TIP3    H113140   6.755   1.866   5.112 -0.2597  0.2887  0.4928
 4392TIP3    H213141   6.718   1.725   5.152  0.6699 -0.1404 -0.1305
 4393TIP3   OH213142   2.554   3.194   3.788 -0.0762  0.6540 -0.0173
 4393TIP3    H113143   2.621   3.241   3.738 -0.3984  1.1477  0.0162
 4393TIP3    H213144   2.594   3.178   3.873 -0.1691  1.3573  0.1586
 4394TIP3   OH213145   3.708   4.848   4.542 -0.1085  0.0609  0.0444
 4394TIP3    H113146   3.755   4.932   4.548 -0.0788 -0.0223  1.0573
 4394TIP3    H213147   3.616   4.871   4.555 -0.0296 -0.1377  1.0253
 4395TIP3   OH213148   4.691   1.170   5.461  0.3612  0.7660  0.0335
 4395TIP3    H113149   4.676   1.265   5.459 -1.8200  0.5184  1.0268
 4395TIP3    H213150   4.737   1.151   5.380  0.8217  2.6645 -0.2022
 4396TIP3   OH213151   3.568   5.163   0.511 -0.0255  0.0091 -0.4654
 4396TIP3    H113152   3.515   5.083   0.515 -0.7192  0.4790  0.1202
 4396TIP3    H213153   3.657   5.132   0.494 -0.4128 -0.8336 -1.0193
 4397TIP3   OH213154   2.504   2.474   2.190 -0.1022  0.5306 -0.4149
 4397TIP3    H113155   2.420   2.515   2.172 -0.6518 -0.8747 -1.2453
 4397TIP3    H213156   2.514   2.408   2.121  0.4756 -1.0753  1.1096
 4398TIP3   OH213157   5.272   4.358   4.530 -0.0578 -0.1248  0.2340
 4398TIP3    H113158   5.256   4.444   4.492 -1.3030 -0.0767  0.7999
 4398TIP3    H213159   5.193   4.308   4.509  0.1305 -0.7434  0.9534
 4399TIP3   OH213160   3.416   0.276   1.032  0.3971 -0.3489  0.3490
 4399TIP3    H113161   3.391   0.332   1.105  0.7086 -0.6104  0.6606
 4399TIP3    H213162   3.434   0.337   0.960 -1.9542 -0.1727 -0.1798
 4400TIP3   OH213163   3.993   4.848   5.341 -0.4090  0.1907 -0.5357
 4400TIP3    H113164   3.942   4.809   5.412 -0.3743  1.9129  0.4668
 4400TIP3    H213165   3.927   4.876   5.277 -0.4828 -0.6983 -0.8626
 4401TIP3   OH213166   2.093   2.922   5.062 -0.4598 -0.1280 -0.1079
 4401TIP3    H113167   2.188   2.922   5.054 -0.5780  1.1260 -2.1698
 4401TIP3    H213168   2.069   3.014   5.067 -1.6435 -0.3860 -0.6728
 4402TIP3   OH213169   5.801   3.637   3.596  0.5674  0.6384  0.7134
 4402TIP3    H113170   5.723   3.659   3.647  0.1748  2.0704 -0.4297
 4402TIP3    H213171   5.873   3.678   3.644  0.7892 -1.4358  2.2539
 4403TIP3   OH213172   2.698   5.208   4.857  0.1834 -0.6034 -0.1564
 4403TIP3    H113173   2.733   5.186   4.771 -0.0414 -1.4207 -0.0445
 4403TIP3    H213174   2.663   5.126   4.891  2.0513 -0.7749  1.5724
 4404TIP3   OH213175   5.525   4.923   4.439 -0.3287 -0.9630  0.1953
 4404TIP3    H113176   5.588   4.976   4.488 -0.5589 -1.9980  1.6933
 4404TIP3    H213177   5.579   4.866   4.384 -0.0835  1.6630 -2.5325
 4405TIP3   OH213178   3.411   4.224   0.297 -0.2357  0.3491 -0.3732
 4405TIP3    H113179   3.361   4.264   0.369  0.4637 -0.3590  0.5308
 4405TIP3    H213180   3.463   4.295   0.262  1.3894  0.1974  1.5510
 4406TIP3   OH213181   5.052   5.269   3.535 -0.4622  0.5397  0.0297
 4406TIP3    H113182   5.073   5.178   3.556  2.9566  0.5888 -2.3803
 4406TIP3    H213183   5.073   5.318   3.615  2.0788 -0.3648  0.0001
 4407TIP3   OH213184   3.003   1.170   0.440 -0.2309 -0.4461 -0.1493
 4407TIP3    H113185   2.979   1.078   0.452  1.8370 -1.2245 -1.4958
 4407TIP3    H213186   2.965   1.194   0.355  0.3581 -0.4767 -0.4253
 4408TIP3   OH213187   7.056   0.197   3.685 -0.3797 -0.1469  0.6239
 4408TIP3    H113188   7.065   0.173   3.593 -0.9670  2.5053 -0.2143
 4408TIP3    H213189   7.144   0.186   3.722 -0.1768 -1.3917 -0.1711
 4409TIP3   OH213190   0.177   1.357   1.479 -0.4630 -0.0989  0.0563
 4409TIP3    H113191   0.131   1.329   1.558 -0.1545 -1.8182 -0.3170
 4409TIP3    H213192   0.156   1.449   1.470 -1.4112 -0.1364  1.5250
 4410TIP3   OH213193   7.114   4.418   0.826 -0.5362  0.4128 -0.0811
 4410TIP3    H113194   7.130   4.329   0.858 -0.1482  0.8555  0.9896
 4410TIP3    H213195   7.088   4.406   0.734  1.2130 -0.6837 -0.4875
 4411TIP3   OH213196   0.043   5.677   0.812  0.0540  0.4372  0.0287
 4411TIP3    H113197   0.128   5.676   0.768  0.6004  0.5966  1.0537
 4411TIP3    H213198   0.058   5.727   0.892 -0.4381 -1.3428  1.3156
 4412TIP3   OH213199   6.999   3.350   5.235 -0.0221 -0.0257 -0.2649
 4412TIP3    H113200   7.081   3.327   5.280  0.1888  0.9035 -0.1526
 4412TIP3    H213201   6.931   3.327   5.298  0.2566  0.9543  0.4238
 4413TIP3   OH213202   2.596   5.159   4.147 -0.2434 -0.5802 -0.2367
 4413TIP3    H113203   2.673   5.157   4.204 -0.5446  0.0445  0.2073
 4413TIP3    H213204   2.522   5.145   4.206 -0.5959  0.4879 -0.3885
 4414TIP3   OH213205   4.909   6.033   1.585 -0.0078  0.4836  0.6095
 4414TIP3    H113206   4.922   6.032   1.679 -0.6150 -1.3114  0.7085
 4414TIP3    H213207   4.884   5.943   1.563 -2.7808  1.4670 -0.8203
 4415TIP3   OH213208   0.254   2.772   5.124  0.2604 -0.1269  0.5867
 4415TIP3    H113209   0.219   2.727   5.201 -0.1659 -1.3487 -0.2894
 4415TIP3    H213210   0.222   2.862   5.132 -0.9477 -0.5840  1.1353
 4416TIP3   OH213211   5.828   2.732   2.595 -0.0398  0.2703  0.4115
 4416TIP3    H113212   5.849   2.776   2.677  1.3223 -0.5422  0.5239
 4416TIP3    H213213   5.801   2.644   2.621 -2.2673  0.8242  0.1561
 4417TIP3   OH213214   2.307   3.816   2.195 -0.2219  0.2019 -0.3824
 4417TIP3    H113215   2.313   3.846   2.286  0.8402  0.2629 -0.4557
 4417TIP3    H213216   2.221   3.776   2.188 -0.7381  1.1393  0.3660
 4418TIP3   OH213217   3.039   6.251   1.978 -0.1410 -0.2446  0.2230
 4418TIP3    H113218   3.047   6.300   1.896  0.4066 -1.1589 -0.2851
 4418TIP3    H213219   2.948   6.263   2.004 -0.3571 -0.0404 -0.5865
 4419TIP3   OH213220   6.755   1.929   0.086  0.3511  0.1041 -0.0738
 4419TIP3    H113221   6.705   1.935   0.005  2.3141 -0.6002 -1.4120
 4419TIP3    H213222   6.732   2.009   0.135 -2.1246 -0.2708 -0.5199
 4420TIP3   OH213223   6.036   2.632   5.140  0.1074 -0.6352  0.2603
 4420TIP3    H113224   6.005   2.590   5.060  0.2141 -0.1388 -0.0485
 4420TIP3    H213225   6.123   2.665   5.118  0.3766 -0.9892  0.7600
 4421TIP3   OH213226   5.809   0.123   2.407  0.6876 -0.5614  0.0879
 4421TIP3    H113227   5.740   0.181   2.377  0.5587 -0.2951  0.8697
 4421TIP3    H213228   5.820   0.144   2.500  1.7949 -0.6246 -0.0140
 4422TIP3   OH213229   4.388   4.960   2.155  0.3560 -0.1890  0.2501
 4422TIP3    H113230   4.334   4.926   2.227 -1.5835  0.7286 -0.6988
 4422TIP3    H213231   4.423   4.881   2.113 -2.0065 -0.9950 -0.3739
 4423TIP3   OH213232   1.698   1.494   1.914 -0.6147  0.1619  0.3059
 4423TIP3    H113233   1.615   1.535   1.892 -0.2212  0.6390 -0.3446
 4423TIP3    H213234   1.705   1.420   1.853 -2.5126 -2.5783  3.1024
 4424TIP3   OH213235   5.772   4.762   3.137 -0.6678 -0.2408 -0.6408
 4424TIP3    H113236   5.806   4.847   3.108  1.1077 -0.8238 -0.3947
 4424TIP3    H213237   5.753   4.773   3.230  0.9841 -0.4662 -0.2321
 4425TIP3   OH213238   1.255   3.646   2.274  0.4571 -0.1366 -0.1354
 4425TIP3    H113239   1.193   3.663   2.203 -0.2113 -0.4187  0.3652
 4425TIP3    H213240   1.224   3.702   2.346  2.0791  1.3834 -0.5649
 4426TIP3   OH213241   4.858   4.331   5.242 -0.3013 -0.4184 -0.5762
 4426TIP3    H113242   4.827   4.253   5.288  0.7312 -1.4799 -1.6169
 4426TIP3    H213243   4.789   4.396   5.256 -0.8369 -1.2634  0.9461
 4427TIP3   OH213244   7.073   4.698   2.839 -0.6549 -0.0496 -0.6300
 4427TIP3    H113245   7.126   4.682   2.917  1.8023  0.3885 -2.1242
 4427TIP3    H213246   7.032   4.613   2.820 -0.2029 -0.4973  0.3351
 4428TIP3   OH213247   6.452   0.179   0.510  0.8147 -0.3849  0.3149
 4428TIP3    H113248   6.438   0.259   0.560 -1.1427 -1.2630  1.2871
 4428TIP3    H213249   6.455   0.207   0.419 -0.0135  0.7764  0.6303
 4429TIP3   OH213250   0.801   2.791   0.040 -0.1419 -0.2104  0.2797
 4429TIP3    H113251   0.750   2.867   0.011 -0.8013 -1.0825 -0.9363
 4429TIP3    H213252   0.747   2.753   0.110  0.3194  0.5633  1.0821
 4430TIP3   OH213253   1.756   0.732   4.465 -0.4405 -0.1547  0.2481
 4430TIP3    H113254   1.737   0.662   4.402 -1.6664 -0.1508  0.5714
 4430TIP3    H213255   1.690   0.719   4.534  0.3349  0.3583  1.1029
 4431TIP3   OH213256   0.510   5.476   2.532 -0.0198 -0.3175  0.5352
 4431TIP3    H113257   0.560   5.556   2.516 -0.7495 -0.4435 -3.2309
 4431TIP3    H213258   0.476   5.486   2.620  0.6408  3.1067  0.5234
 4432TIP3   OH213259   4.592   6.559   5.150  0.1680 -0.3275  0.5115
 4432TIP3    H113260   4.593   6.526   5.060  2.7795  0.4826  0.1677
 4432TIP3    H213261   4.682   6.547   5.181  0.1485  2.3322  1.8918
 4433TIP3   OH213262   2.074   2.083   4.250  0.8848 -0.0686  0.0113
 4433TIP3    H113263   1.980   2.093   4.262  0.6294 -2.3494  0.4248
 4433TIP3    H213264   2.082   2.024   4.175  2.0205  0.4854 -0.3215
 4434TIP3   OH213265   4.051   3.456   4.369 -0.1686  0.3041 -0.1466
 4434TIP3    H113266   4.123   3.459   4.306 -0.5367  0.6149 -0.5631
 4434TIP3    H213267   3.974   3.482   4.318 -0.3069  1.5477  0.6641
 4435TIP3   OH213268   7.076   3.059   1.849 -0.6215 -0.6105 -0.0911
 4435TIP3    H113269   6.989   3.076   1.812 -0.3893  1.7930  0.2815
 4435TIP3    H213270   7.085   3.124   1.919  1.6255 -0.5655 -0.3510
 4436TIP3   OH213271   1.604   2.619   1.277  0.3904 -0.1891  0.1089
 4436TIP3    H113272   1.593   2.525   1.287  0.6041 -0.2062  0.1969
 4436TIP3    H213273   1.697   2.630   1.259  0.2780 -0.0341 -0.3875
 4437TIP3   OH213274   6.437   4.684   0.791 -0.0164  0.1436  0.3452
 4437TIP3    H113275   6.525   4.687   0.828 -0.8856 -0.1252  2.6073
 4437TIP3    H213276   6.439   4.611   0.730  1.0615 -0.5436  1.1744
 4438TIP3   OH213277   0.141   5.084   3.862 -0.6949  0.3432 -0.1285
 4438TIP3    H113278   0.099   5.112   3.944  0.1210  2.0294 -0.2567
 4438TIP3    H213279   0.192   5.159   3.834  1.0343 -1.0501 -0.9053
 4439TIP3   OH213280   7.081   5.603   3.250  0.3931  0.2486  0.7564
 4439TIP3    H113281   6.991   5.628   3.270  0.2183  0.3763 -0.1506
 4439TIP3    H213282   7.073   5.534   3.184  0.9578  0.3498  0.5762
 4440TIP3   OH213283   0.139   4.431   4.730  0.4783 -0.0560 -0.0879
 4440TIP3    H113284   0.126   4.470   4.816  0.9766  0.9519 -0.4498
 4440TIP3    H213285   0.116   4.339   4.741 -0.4639  0.2804  0.8647
 4441TIP3   OH213286   1.156   3.090   1.439  0.0638 -0.2861  0.1103
 4441TIP3    H113287   1.085   3.110   1.501 -0.5369  4.5565 -1.7616
 4441TIP3    H213288   1.116   3.030   1.376 -1.8006  0.7397  0.2303
 4442TIP3   OH213289   1.140   2.457   1.002 -0.0589  0.0153  0.1031
 4442TIP3    H113290   1.057   2.435   0.959 -0.9392 -3.1144  2.9276
 4442TIP3    H213291   1.200   2.389   0.975  0.1210 -0.4975  1.6908
 4443TIP3   OH213292   3.331   3.831   2.599 -0.4712  0.6033  0.1167
 4443TIP3    H113293   3.331   3.737   2.620  0.9085  0.4487 -0.4580
 4443TIP3    H213294   3.312   3.874   2.682 -2.1165 -0.1959  0.1923
 4444TIP3   OH213295   4.738   6.113   2.057  0.6029 -0.6483 -0.6043
 4444TIP3    H113296   4.721   6.019   2.065 -1.1778 -0.3562 -0.6731
 4444TIP3    H213297   4.658   6.155   2.089  2.2936  0.9209  2.0092
 4445TIP3   OH213298   2.569   2.537   0.790  1.1752 -0.0355  0.7144
 4445TIP3    H113299   2.491   2.587   0.764  0.1813 -2.1395 -0.6230
 4445TIP3    H213300   2.549   2.505   0.877  0.7195 -0.1916  0.5564
 4446TIP3   OH213301   4.922   1.387   1.252  0.2132  0.2430 -0.1596
 4446TIP3    H113302   4.987   1.361   1.317 -1.1066 -0.1965  1.0201
 4446TIP3    H213303   4.890   1.304   1.216  0.4676  0.4663 -0.9296
 4447TIP3   OH213304   2.360   2.958   3.606  0.0326  0.1718 -0.0837
 4447TIP3    H113305   2.392   3.034   3.653  0.4856 -0.7279  1.1194
 4447TIP3    H213306   2.387   2.972   3.516  0.4032  1.2713  0.1837
 4448TIP3   OH213307   1.752   5.275   3.157 -0.6325  0.1484 -0.3522
 4448TIP3    H113308   1.694   5.302   3.228 -0.2825 -0.4096  0.1522
 4448TIP3    H213309   1.742   5.180   3.152 -0.3151  0.1343 -0.7494
 4449TIP3   OH213310   2.919   3.146   2.488 -0.1182 -0.0339 -0.2625
 4449TIP3    H113311   2.894   3.212   2.553 -0.1336 -1.0820  0.8418
 4449TIP3    H213312   2.912   3.191   2.404 -0.9571  1.1189  0.3888
 4450TIP3   OH213313   3.523   1.290   3.510 -0.4527  0.0633 -0.3026
 4450TIP3    H113314   3.600   1.318   3.559 -0.3035  0.6743 -0.8710
 4450TIP3    H213315   3.452   1.346   3.541  0.0757  1.9660 -2.2363
 4451TIP3   OH213316   2.246   4.170   4.906 -0.1161 -0.6475 -0.6041
 4451TIP3    H113317   2.176   4.206   4.961 -0.5115 -1.4599 -0.5556
 4451TIP3    H213318   2.277   4.093   4.953  2.5355  1.0098  0.6045
 4452TIP3   OH213319   1.248   1.356   3.425 -0.0309  0.9720 -0.1076
 4452TIP3    H113320   1.220   1.282   3.479  2.8834  1.5185  2.3967
 4452TIP3    H213321   1.172   1.414   3.424 -0.7974  0.0960  1.9251
 4453TIP3   OH213322   3.341   0.094   5.414  0.0042 -0.2302 -0.1192
 4453TIP3    H113323   3.294   0.148   5.350  0.8971 -0.2190 -0.7893
 4453TIP3    H213324   3.302   0.007   5.405  0.1533 -0.2414 -0.7305
 4454TIP3   OH213325   0.944   5.604   0.139 -0.0110  0.7283 -0.6095
 4454TIP3    H113326   1.007   5.650   0.195 -0.0820 -0.6909  0.6946
 4454TIP3    H213327   0.987   5.521   0.117 -0.9376  0.2514 -0.6914
 4455TIP3   OH213328   6.802   2.351   5.395  0.2336 -0.3187  0.0266
 4455TIP3    H113329   6.839   2.291   5.461  1.0078  1.0759  0.9135
 4455TIP3    H213330   6.711   2.363   5.422  0.7605  0.9098  1.4068
 4456TIP3   OH213331   6.010   5.623   0.336 -0.3671 -0.3422  0.1839
 4456TIP3    H113332   6.051   5.564   0.272 -0.2640  0.1367 -0.2014
 4456TIP3    H213333   5.929   5.651   0.293 -0.7530 -0.7296  0.6469
 4457TIP3   OH213334   0.674   2.180   4.493  0.0866  0.3523 -0.1759
 4457TIP3    H113335   0.595   2.126   4.496  1.1168 -1.1633  1.0328
 4457TIP3    H213336   0.643   2.269   4.512 -1.1592 -0.4129  1.5961
 4458TIP3   OH213337   1.003   4.580   1.433  0.3181 -0.2268  0.1202
 4458TIP3    H113338   1.067   4.648   1.411  0.1796  0.3737  1.4978
 4458TIP3    H213339   0.992   4.587   1.528 -0.7956 -1.2147  0.0816
 4459TIP3   OH213340   5.900   4.240   2.107 -0.7345 -0.0874 -0.5659
 4459TIP3    H113341   5.977   4.287   2.139 -0.2423 -0.3363 -1.3414
 4459TIP3    H213342   5.889   4.271   2.017 -0.5380 -1.2661 -1.0169
 4460TIP3   OH213343   4.990   5.024   5.771 -0.0765 -0.5550  0.3326
 4460TIP3    H113344   4.951   5.020   5.684  0.3355  0.1252  0.1096
 4460TIP3    H213345   4.916   5.020   5.831 -0.4487  0.1682 -0.0671
 4461TIP3   OH213346   3.919   6.653   2.852 -0.0911 -0.0290  0.5192
 4461TIP3    H113347   3.901   6.564   2.883 -0.6645  0.1455  0.7046
 4461TIP3    H213348   3.978   6.690   2.918 -0.9261  0.1791  1.1721
 4462TIP3   OH213349   6.938   0.617   1.118  0.2663  0.2407  0.3786
 4462TIP3    H113350   6.974   0.529   1.118  1.0013  0.4902 -1.5487
 4462TIP3    H213351   7.011   0.673   1.090 -0.5317  1.2864  0.3057
 4463TIP3   OH213352   4.007   4.876   4.095 -0.2721  0.3659 -0.5705
 4463TIP3    H113353   3.919   4.845   4.074  0.5689 -1.2218 -1.9860
 4463TIP3    H213354   4.024   4.945   4.032 -0.1379 -0.0238 -0.9669
 4464TIP3   OH213355   7.134   2.172   4.552  0.3897  0.1942 -0.1514
 4464TIP3    H113356   7.199   2.140   4.615  1.1973  0.5446 -0.7970
 4464TIP3    H213357   7.100   2.093   4.510 -0.8665 -0.1281  1.3791
 4465TIP3   OH213358   1.207   1.253   0.943 -0.3557 -0.5117  0.5940
 4465TIP3    H113359   1.246   1.258   1.031 -0.0894 -1.4231  0.5403
 4465TIP3    H213360   1.274   1.287   0.885  0.4864 -2.2766  0.4785
 4466TIP3   OH213361   2.119   4.676   3.389  0.0449 -0.5196  0.1457
 4466TIP3    H113362   2.025   4.657   3.387 -0.2583  0.8535 -0.1181
 4466TIP3    H213363   2.137   4.697   3.481 -0.5330  1.8603 -0.2118
 4467TIP3   OH213364   5.684   0.323   5.192 -0.0400  0.0545 -0.1483
 4467TIP3    H113365   5.693   0.347   5.100 -0.2048  0.8956  0.0513
 4467TIP3    H213366   5.666   0.229   5.191 -2.1506  0.4173 -1.1004
 4468TIP3   OH213367   5.025   2.801   5.653  0.3157 -0.1972 -0.7777
 4468TIP3    H113368   5.114   2.768   5.646 -0.3839 -2.3601 -0.1980
 4468TIP3    H213369   4.970   2.729   5.623 -1.3648  0.0822  1.3560
 4469TIP3   OH213370   1.812   1.433   0.388 -0.8089  0.4221 -0.1811
 4469TIP3    H113371   1.843   1.461   0.475 -1.9420 -0.7042  0.6246
 4469TIP3    H213372   1.891   1.414   0.339 -0.1208 -1.8398  1.6294
 4470TIP3   OH213373   0.625   4.296   0.218  0.2792  0.2574 -0.0482
 4470TIP3    H113374   0.627   4.375   0.272  0.1140  0.3278 -0.1459
 4470TIP3    H213375   0.712   4.293   0.177 -0.1682  1.1358 -1.1232
 4471TIP3   OH213376   3.174   5.579   4.678 -0.2552  0.6301  0.8141
 4471TIP3    H113377   3.236   5.597   4.749  0.7357  0.6448 -0.0295
 4471TIP3    H213378   3.133   5.496   4.703  2.4047 -1.0725 -0.0979
 4472TIP3   OH213379   3.336   3.254   4.752  0.2333 -0.5781  0.0777
 4472TIP3    H113380   3.252   3.299   4.742  1.1198  0.8670 -1.4066
 4472TIP3    H213381   3.313   3.165   4.779 -1.7471 -0.1242  0.0267
 4473TIP3   OH213382   7.063   0.704   2.061 -0.4897 -0.2754 -0.1715
 4473TIP3    H113383   6.995   0.645   2.093  0.1356 -1.3047 -0.6883
 4473TIP3    H213384   7.024   0.747   1.985 -0.7851 -0.3807 -0.0811
 4474TIP3   OH213385   3.997   3.241   5.004 -0.0024  0.3831 -0.3045
 4474TIP3    H113386   3.925   3.229   4.943  1.0752  1.4980 -1.8769
 4474TIP3    H213387   4.035   3.154   5.014 -0.4518  0.1150 -0.8943
 4475TIP3   OH213388   5.098   5.346   0.484 -0.4611 -0.3926  0.8204
 4475TIP3    H113389   5.073   5.420   0.429  1.0616 -1.2319 -1.1234
 4475TIP3    H213390   5.148   5.386   0.556  1.4366  0.4761 -0.8630
 4476TIP3   OH213391   2.574   1.122   3.431 -0.5342 -0.6407  0.4403
 4476TIP3    H113392   2.479   1.122   3.433 -0.5772 -1.8342 -0.5115
 4476TIP3    H213393   2.599   1.197   3.485 -2.0405  1.2651 -1.3433
 4477TIP3   OH213394   3.711   6.615   4.659  0.2458  0.1958 -0.0167
 4477TIP3    H113395   3.686   6.543   4.717 -0.7437  0.0618 -0.5852
 4477TIP3    H213396   3.727   6.689   4.717  1.6115 -0.5458  0.6076
 4478TIP3   OH213397   5.377   0.440   5.172  0.1007  0.2198  0.0540
 4478TIP3    H113398   5.394   0.514   5.230  0.4516  0.8119 -0.7875
 4478TIP3    H213399   5.391   0.363   5.227  0.4786  0.7688  0.7436
 4479TIP3   OH213400   4.616   4.628   3.402 -1.1285 -0.1795 -0.2330
 4479TIP3    H113401   4.701   4.599   3.369 -1.0660  1.4272 -1.6531
 4479TIP3    H213402   4.637   4.686   3.475 -0.9180  1.0272 -1.2267
 4480TIP3   OH213403   5.221   6.352   2.274 -0.7926 -0.3290  0.2533
 4480TIP3    H113404   5.157   6.293   2.233 -0.6192 -0.3790  0.0529
 4480TIP3    H213405   5.187   6.366   2.362 -0.5183 -1.2215  0.5138
 4481TIP3   OH213406   4.882   2.914   5.255  0.7936 -0.7401  0.1223
 4481TIP3    H113407   4.918   2.851   5.318  1.4377 -1.2873 -0.7591
 4481TIP3    H213408   4.925   2.997   5.276  0.9008 -0.8871  0.4891
 4482TIP3   OH213409   5.395   4.504   3.895 -0.4695 -0.2276  0.5060
 4482TIP3    H113410   5.357   4.559   3.827  1.1865 -0.0407 -0.3094
 4482TIP3    H213411   5.356   4.418   3.881 -2.4687  0.4856  1.2973
 4483TIP3   OH213412   5.532   6.540   1.682 -0.7863  0.2784  0.2207
 4483TIP3    H113413   5.530   6.561   1.589  0.6782 -0.6048 -0.0379
 4483TIP3    H213414   5.508   6.447   1.686 -1.9540  0.5891  0.8488
 4484TIP3   OH213415   2.476   0.436   0.111 -0.4110  0.3844  0.1372
 4484TIP3    H113416   2.445   0.522   0.080 -0.4915  0.7287  1.1261
 4484TIP3    H213417   2.412   0.410   0.176 -0.4182 -0.4728 -0.2005
 4485TIP3   OH213418   1.967   6.576   3.390 -0.1936 -0.3278 -0.5636
 4485TIP3    H113419   1.939   6.529   3.311 -2.3513 -0.5968  0.3100
 4485TIP3    H213420   1.967   6.668   3.364  0.9713 -0.5279 -1.3787
 4486TIP3   OH213421   4.512   0.048   1.144 -0.1494  0.2597 -0.5513
 4486TIP3    H113422   4.464   0.129   1.163  0.7662  0.5517  0.6612
 4486TIP3    H213423   4.446  -0.011   1.106 -1.0449  1.2526 -0.5699
 4487TIP3   OH213424   6.665   3.975   5.698  0.3843 -0.4821  0.1231
 4487TIP3    H113425   6.741   3.971   5.756 -0.1242  2.2045  1.1197
 4487TIP3    H213426   6.689   4.039   5.631 -0.7674 -0.0339  0.1152
 4488TIP3   OH213427   4.494   3.103   5.758 -0.4967  0.2428 -0.3181
 4488TIP3    H113428   4.428   3.047   5.799 -1.7202  0.2004 -2.2528
 4488TIP3    H213429   4.530   3.049   5.687  0.4013  0.8939 -0.3766
 4489TIP3   OH213430   2.525   3.895   0.725  0.1221  0.3107  0.0815
 4489TIP3    H113431   2.505   3.970   0.669  0.7335 -1.7112 -3.1111
 4489TIP3    H213432   2.447   3.839   0.721  1.0395 -0.9711 -0.7672
 4490TIP3   OH213433   3.837   2.473   5.147 -0.3085 -0.0086 -0.1071
 4490TIP3    H113434   3.770   2.455   5.213 -2.3764 -1.4185 -2.4249
 4490TIP3    H213435   3.819   2.562   5.117  0.6157  0.6236  1.1015
 4491TIP3   OH213436   0.974   2.089   2.652  0.2204  0.4514  0.0318
 4491TIP3    H113437   0.896   2.032   2.655  0.8659 -0.4858 -0.4264
 4491TIP3    H213438   0.962   2.149   2.725 -1.1804  0.6479 -0.3204
 4492TIP3   OH213439   4.445   2.693   1.679 -0.4697  0.0617 -0.6186
 4492TIP3    H113440   4.493   2.644   1.613 -1.4032  0.5556 -1.7062
 4492TIP3    H213441   4.488   2.779   1.683  0.3232 -0.3553  0.3073
 4493TIP3   OH213442   1.985   0.026   1.013 -0.2430  0.0465 -0.1884
 4493TIP3    H113443   1.996   0.103   0.958  0.9411 -0.3440 -0.5175
 4493TIP3    H213444   2.063  -0.027   0.997 -2.1675 -2.4951 -1.9732
 4494TIP3   OH213445   4.940   4.134   3.528 -0.1649 -0.0535  0.1932
 4494TIP3    H113446   4.850   4.163   3.543 -1.4204 -1.8550 -2.8613
 4494TIP3    H213447   4.946   4.050   3.574 -0.6904 -0.7770 -1.0112
 4495TIP3   OH213448   1.054   0.362   0.536  0.1808  0.0440  0.2597
 4495TIP3    H113449   1.038   0.398   0.449 -1.6859  1.0729  0.9528
 4495TIP3    H213450   0.981   0.302   0.551  0.6956 -0.4290  0.9753
 4496TIP3   OH213451   6.710   4.942   3.397 -0.0316  0.7107 -0.0477
 4496TIP3    H113452   6.697   4.926   3.491 -0.3721  1.3545  0.0213
 4496TIP3    H213453   6.763   5.021   3.393  1.4261 -0.2565 -0.3894
 4497TIP3   OH213454   7.041   4.077   1.876  0.2566 -0.1600 -0.1497
 4497TIP3    H113455   7.029   4.117   1.962 -0.9339 -1.4658  0.3076
 4497TIP3    H213456   7.014   4.145   1.815 -0.0766  0.3452  0.5452
 4498TIP3   OH213457   3.395   0.263   5.908 -0.4596 -0.1198 -0.1125
 4498TIP3    H113458   3.378   0.168   5.906 -1.4093 -0.0029  1.2268
 4498TIP3    H213459   3.446   0.279   5.828 -0.6716 -1.6781 -0.6107
 4499TIP3   OH213460   5.380   0.221   2.618  0.5906  0.2990  0.2371
 4499TIP3    H113461   5.339   0.223   2.704  2.0235  0.0963  0.9419
 4499TIP3    H213462   5.311   0.251   2.558 -0.3825  0.5586  1.4557
 4500TIP3   OH213463   2.247   4.317   3.774  0.7304  0.3437 -0.7778
 4500TIP3    H113464   2.258   4.249   3.841 -1.1730  1.0496  0.3255
 4500TIP3    H213465   2.308   4.292   3.704  0.2649 -2.3559 -0.3127
 4501TIP3   OH213466   7.104   3.266   2.040  0.3549  0.0156 -0.1343
 4501TIP3    H113467   7.141   3.234   2.122 -0.2141  0.3189  0.2513
 4501TIP3    H213468   7.026   3.316   2.066  0.3761  0.4363 -0.8291
 4502TIP3   OH213469   2.594   0.341   4.964 -0.0919 -0.0480  0.1061
 4502TIP3    H113470   2.584   0.434   4.948 -1.7224 -0.2254 -0.0956
 4502TIP3    H213471   2.682   0.332   5.001  0.3623  1.4609 -0.5320
 4503TIP3   OH213472   3.398   0.025   1.677  0.4009 -0.6324  0.5326
 4503TIP3    H113473   3.469   0.084   1.702  0.8959 -1.3434  0.8391
 4503TIP3    H213474   3.417  -0.057   1.723 -1.8688 -0.1605  2.5754
 4504TIP3   OH213475   2.438   6.159   1.812 -0.1183  0.4523 -0.3076
 4504TIP3    H113476   2.361   6.215   1.797 -0.6669  0.2545  1.4874
 4504TIP3    H213477   2.444   6.152   1.908  2.1418  0.4379 -0.4007
 4505TIP3   OH213478   3.204   3.376   0.985 -0.1682 -0.1997 -0.1512
 4505TIP3    H113479   3.211   3.286   1.016  1.0642  0.1551  0.6754
 4505TIP3    H213480   3.267   3.381   0.914  2.5482  0.9214  2.1624
 4506TIP3   OH213481   2.574   3.390   2.142  0.7410  0.3288 -0.2220
 4506TIP3    H113482   2.643   3.455   2.129  0.5875  0.7076  0.7965
 4506TIP3    H213483   2.507   3.435   2.192  1.3272 -1.0129  1.9230
 4507TIP3   OH213484   0.805   6.020   2.680  0.1698 -0.5144  0.3963
 4507TIP3    H113485   0.781   5.975   2.599 -0.5772  0.8553 -0.1631
 4507TIP3    H213486   0.875   6.080   2.655  0.8994 -1.0711  1.0582
 4508TIP3   OH213487   1.049   3.148   2.515 -0.2163 -0.2690  0.9204
 4508TIP3    H113488   0.980   3.196   2.562  0.3666 -0.2514  1.7578
 4508TIP3    H213489   1.050   3.061   2.555 -0.7431 -0.7510 -0.0817
 4509TIP3   OH213490   2.332   5.264   4.812 -0.1845  0.2170 -0.1932
 4509TIP3    H113491   2.349   5.358   4.812 -0.8663  0.3695  0.8902
 4509TIP3    H213492   2.317   5.242   4.721  0.6323  1.0294 -0.5413
 4510TIP3   OH213493   4.468   0.807   2.143  0.1735  0.5136  0.1753
 4510TIP3    H113494   4.556   0.844   2.153 -0.0719  0.8205  1.4309
 4510TIP3    H213495   4.484   0.715   2.119  0.8064  0.9009 -0.9221
 4511TIP3   OH213496   5.860   5.058   2.479  0.5400  0.1137  0.0080
 4511TIP3    H113497   5.814   4.983   2.514 -0.9513  1.0464  0.1149
 4511TIP3    H213498   5.805   5.090   2.408  0.5377  1.7854  0.6993
 4512TIP3   OH213499   4.408   0.947   0.899 -0.8932 -0.5720  0.1282
 4512TIP3    H113500   4.499   0.921   0.913 -0.9330 -0.3626  0.7987
 4512TIP3    H213501   4.357   0.869   0.918 -1.0225 -0.0340  2.2604
 4513TIP3   OH213502   2.221   2.789   3.794  0.3387 -0.1712 -0.4507
 4513TIP3    H113503   2.266   2.843   3.729  0.7514 -0.7652 -0.6639
 4513TIP3    H213504   2.174   2.852   3.849  0.5723  0.3833 -0.8768
 4514TIP3   OH213505   2.436   2.325   1.963  0.5508  0.2391  0.1204
 4514TIP3    H113506   2.351   2.319   2.005  0.2099  0.9099 -0.4461
 4514TIP3    H213507   2.465   2.234   1.953 -0.9088 -0.1200 -1.2779
 4515TIP3   OH213508   2.202   5.019   5.470 -0.0925  0.5710  0.3061
 4515TIP3    H113509   2.208   5.074   5.548 -1.0134  0.6418  0.3336
 4515TIP3    H213510   2.112   4.987   5.470  0.0422  0.1753 -0.4649
 4516TIP3   OH213511   5.082   4.972   1.660 -0.5017 -0.2443 -0.1023
 4516TIP3    H113512   5.131   4.893   1.637  1.4079  0.2699  1.8648
 4516TIP3    H213513   5.149   5.039   1.672 -1.5303  0.3600  3.2897
 4517TIP3   OH213514   3.330   0.707   1.025 -0.4630  0.1328  0.4312
 4517TIP3    H113515   3.256   0.750   0.982 -0.9124 -1.2458 -0.2390
 4517TIP3    H213516   3.290   0.639   1.079  0.2671  0.0244  0.8478
 4518TIP3   OH213517   1.406   0.920   5.297 -0.0517  0.0384 -0.0420
 4518TIP3    H113518   1.315   0.914   5.326 -1.2168  1.1717 -3.0861
 4518TIP3    H213519   1.448   0.976   5.363 -1.2950 -1.1281  1.8404
 4519TIP3   OH213520   3.794   6.194   4.923  0.1610  0.2090 -0.2928
 4519TIP3    H113521   3.794   6.218   5.015 -0.0539 -3.5824  0.8396
 4519TIP3    H213522   3.728   6.251   4.883 -1.1752  0.6057  2.3095
 4520TIP3   OH213523   1.005   3.270   0.690  0.3074 -0.1843  0.9732
 4520TIP3    H113524   1.052   3.331   0.746  1.8915  2.0368 -2.4343
 4520TIP3    H213525   0.915   3.303   0.689  0.1709 -0.4794  2.4259
 4521TIP3   OH213526   6.878   0.318   3.843 -0.5079  0.5498 -0.1334
 4521TIP3    H113527   6.839   0.265   3.913 -1.2316  2.2277  0.8021
 4521TIP3    H213528   6.942   0.260   3.802 -1.2043 -1.0079  0.8798
 4522TIP3   OH213529   4.018   6.155   1.071 -0.4947  0.1930 -0.2570
 4522TIP3    H113530   4.031   6.083   1.133  1.5449  1.5635  1.0127
 4522TIP3    H213531   3.958   6.214   1.115 -2.2166 -0.6813 -1.3256
 4523TIP3   OH213532   5.471   3.316   1.991 -0.1400  0.1984  0.4696
 4523TIP3    H113533   5.515   3.263   2.058 -0.0846 -0.0955  0.1977
 4523TIP3    H213534   5.378   3.301   2.005 -0.1018 -0.8668 -0.3372
 4524TIP3   OH213535   5.559   0.177   2.850 -0.8828 -0.0672  0.6619
 4524TIP3    H113536   5.614   0.125   2.908 -0.1814 -0.5320 -0.3754
 4524TIP3    H213537   5.476   0.131   2.846 -1.0983  0.2252  1.6498
 4525TIP3   OH213538   0.390   4.653   2.224  0.1799  0.0835 -0.0572
 4525TIP3    H113539   0.358   4.682   2.310 -1.5706 -1.2040 -0.2143
 4525TIP3    H213540   0.348   4.712   2.161  0.7987  0.5040 -0.0765
 4526TIP3   OH213541   1.955   2.985   2.530  0.0313  0.0641  0.4389
 4526TIP3    H113542   1.889   2.988   2.460 -1.3105  1.4962  1.6806
 4526TIP3    H213543   2.035   2.959   2.486 -0.5221  1.8429 -1.8482
 4527TIP3   OH213544   3.357   4.769   5.843  0.5609 -0.3755  0.2517
 4527TIP3    H113545   3.357   4.815   5.759  0.0528  1.8861  1.4121
 4527TIP3    H213546   3.441   4.724   5.845 -0.4884 -2.8163 -2.5913
 4528TIP3   OH213547   3.839   5.723   1.551 -0.6472 -0.3073  0.5471
 4528TIP3    H113548   3.909   5.787   1.536 -0.5051 -0.6950 -0.5680
 4528TIP3    H213549   3.850   5.696   1.642  0.7102 -0.3963  0.3789
 4529TIP3   OH213550   5.689   5.505   0.430 -0.2978 -0.0576  0.2380
 4529TIP3    H113551   5.665   5.569   0.363 -0.1277  0.3877  0.5974
 4529TIP3    H213552   5.784   5.501   0.427 -0.2745  0.1608  0.6326
 4530TIP3   OH213553   3.478   0.679   5.394 -0.3323 -0.3527  0.3878
 4530TIP3    H113554   3.429   0.761   5.401 -0.3308 -0.3104 -0.0627
 4530TIP3    H213555   3.447   0.627   5.468 -1.5131 -0.5648 -0.2355
 4531TIP3   OH213556   5.149   5.924   4.122 -0.5174  0.0985  0.0359
 4531TIP3    H113557   5.156   5.854   4.188 -0.2839 -1.4965 -1.6005
 4531TIP3    H213558   5.239   5.945   4.100 -0.5979 -0.1082 -0.5005
 4532TIP3   OH213559   2.711   4.172   5.118 -0.3146 -0.1323 -0.1104
 4532TIP3    H113560   2.668   4.148   5.037 -0.4736  0.2504 -0.1393
 4532TIP3    H213561   2.804   4.176   5.095 -0.3626  0.0095 -0.2782
 4533TIP3   OH213562   1.707   3.700   3.642 -0.2748  0.2421 -0.1423
 4533TIP3    H113563   1.736   3.683   3.553 -0.8721  0.1961 -0.3297
 4533TIP3    H213564   1.628   3.753   3.633  0.1453  0.9874  0.3799
 4534TIP3   OH213565   2.212   6.723   3.366 -0.3476 -0.8050  0.4721
 4534TIP3    H113566   2.148   6.776   3.319  1.3843  0.8752 -0.1250
 4534TIP3    H213567   2.163   6.646   3.395 -2.3101 -0.1862 -0.9983
 4535TIP3   OH213568   0.456   1.414   5.559  0.2993  0.1809 -0.3217
 4535TIP3    H113569   0.453   1.406   5.464  2.3636 -1.9283 -0.2832
 4535TIP3    H213570   0.464   1.325   5.591 -1.8314  0.6990  1.9837
 4536TIP3   OH213571   7.146   4.172   0.964  0.4564  0.1779 -0.0098
 4536TIP3    H113572   7.186   4.233   1.026  2.3081 -1.0080  0.0589
 4536TIP3    H213573   7.120   4.097   1.019 -0.2730  0.1970 -0.3215
 4537TIP3   OH213574   1.799   4.255   0.949 -0.3841  0.0284  0.4410
 4537TIP3    H113575   1.735   4.316   0.985 -1.0151  0.1175 -0.7554
 4537TIP3    H213576   1.787   4.175   1.000 -2.8582 -0.6072 -0.9461
 4538TIP3   OH213577   2.662   1.348   0.999 -0.1710 -1.2223  0.4590
 4538TIP3    H113578   2.730   1.300   0.954 -1.0578 -1.1228 -1.0500
 4538TIP3    H213579   2.632   1.289   1.068  0.8716 -1.5751  0.6250
 4539TIP3   OH213580   2.906   2.414   1.993  0.1173  0.5963 -0.0365
 4539TIP3    H113581   2.891   2.493   2.044  0.3755 -0.0018  0.9809
 4539TIP3    H213582   2.989   2.379   2.025 -0.1309 -0.2473 -0.2703
 4540TIP3   OH213583   1.633   1.468   5.337  0.5132 -0.5418  0.2782
 4540TIP3    H113584   1.561   1.510   5.289  1.3214 -0.7864 -1.1914
 4540TIP3    H213585   1.661   1.534   5.399 -0.9849 -0.4474  0.9040
 4541TIP3   OH213586   7.096   4.397   3.122 -0.7446  1.0566  0.6428
 4541TIP3    H113587   7.149   4.392   3.202  0.5816  0.8827 -0.2180
 4541TIP3    H213588   7.134   4.469   3.072  0.9797 -1.2187 -1.5530
 4542TIP3   OH213589   1.679   3.581   5.176  0.2272  0.2947  0.3342
 4542TIP3    H113590   1.607   3.538   5.131 -0.2620  0.5662  0.8415
 4542TIP3    H213591   1.722   3.634   5.109 -1.0271  1.3959  0.3391
 4543TIP3   OH213592   5.071   4.185   2.376 -0.0482 -0.3762  0.4000
 4543TIP3    H113593   5.047   4.262   2.428  1.4593  1.2062 -1.0943
 4543TIP3    H213594   4.988   4.149   2.346 -0.8722  3.0756 -2.1316
 4544TIP3   OH213595   3.372   6.401   4.596  0.1650 -0.5875 -0.2931
 4544TIP3    H113596   3.417   6.380   4.677 -1.0173  0.0700  0.5643
 4544TIP3    H213597   3.408   6.486   4.570  0.6563 -0.8708 -0.5592
 4545TIP3   OH213598   2.711   2.816   1.698 -0.2719  0.1417 -0.3745
 4545TIP3    H113599   2.616   2.826   1.700 -0.2657  0.4800 -1.3556
 4545TIP3    H213600   2.728   2.738   1.751 -0.8763  1.4587  1.9323
 4546TIP3   OH213601   2.673   2.236   3.534  0.3699 -0.0869  0.4976
 4546TIP3    H113602   2.666   2.186   3.453 -1.1319 -0.1358  0.6370
 4546TIP3    H213603   2.623   2.316   3.518  2.5698  1.3654  0.3486
 4547TIP3   OH213604   1.158   2.789   5.117 -0.3814  0.9846 -0.3726
 4547TIP3    H113605   1.249   2.776   5.087 -0.9182 -0.1837 -1.6411
 4547TIP3    H213606   1.163   2.781   5.212  0.6045 -1.0409 -0.5231
 4548TIP3   OH213607   0.966   2.963   1.014 -0.3356  0.1342 -0.7659
 4548TIP3    H113608   0.912   3.034   1.047  0.6408 -0.2141  1.8473
 4548TIP3    H213609   1.032   3.006   0.960 -0.6528  1.0319 -0.4580
 4549TIP3   OH213610   3.749   0.519   3.796  0.9126  0.0993  0.5353
 4549TIP3    H113611   3.750   0.562   3.711  3.2222 -0.0336  0.4293
 4549TIP3    H213612   3.806   0.443   3.785  1.8037  0.4531  2.3424
 4550TIP3   OH213613   5.349   2.376   0.658  0.3629 -0.4079 -0.1983
 4550TIP3    H113614   5.370   2.285   0.639  1.1651 -0.4847  0.9589
 4550TIP3    H213615   5.415   2.426   0.611  0.8381 -0.5002  0.3530
 4551TIP3   OH213616   0.586   4.825   0.297 -0.1652 -0.1822 -0.1756
 4551TIP3    H113617   0.520   4.807   0.230 -0.2780 -0.5069  0.0160
 4551TIP3    H213618   0.663   4.854   0.249 -0.7546  1.1924 -0.3526
 4552TIP3   OH213619   2.616   0.728   1.113 -0.3328  0.1203  0.4152
 4552TIP3    H113620   2.661   0.751   1.194  0.7401 -1.3003  0.2674
 4552TIP3    H213621   2.572   0.809   1.085  2.7182  1.8454  0.2017
 4553TIP3   OH213622   6.484   3.479   2.284 -0.0525  0.2182 -0.5355
 4553TIP3    H113623   6.393   3.476   2.255 -0.6649  2.0680  0.9608
 4553TIP3    H213624   6.512   3.388   2.288 -1.6746 -0.3567 -1.4674
 4554TIP3   OH213625   3.887   4.554   4.128  0.3623 -0.5447 -0.2123
 4554TIP3    H113626   3.873   4.626   4.190  0.4427  0.4752 -1.3522
 4554TIP3    H213627   3.842   4.479   4.168 -1.1300  0.5401  0.2247
 4555TIP3   OH213628   4.531   1.309   2.667  0.0755  0.0863 -0.1280
 4555TIP3    H113629   4.620   1.344   2.678 -0.2104  1.5661 -2.1149
 4555TIP3    H213630   4.476   1.386   2.655 -1.5485 -0.7988  1.1844
 4556TIP3   OH213631   5.886   5.487   3.031 -0.6019 -0.2224  0.0038
 4556TIP3    H113632   5.866   5.408   3.082  0.4805  0.0195  0.8234
 4556TIP3    H213633   5.854   5.559   3.085 -1.6152 -0.0774 -0.7580
 4557TIP3   OH213634   6.706   0.141   0.379  0.2080  0.3500  0.0230
 4557TIP3    H113635   6.627   0.183   0.346  1.0653  0.7806 -1.5766
 4557TIP3    H213636   6.775   0.165   0.316  1.9775  1.2893  2.1828
 4558TIP3   OH213637   3.849   4.827   0.995  0.4779  0.4921  0.2494
 4558TIP3    H113638   3.849   4.859   0.905 -1.8119  0.7250  0.2734
 4558TIP3    H213639   3.760   4.844   1.026  1.2472  0.5303  2.6056
 4559TIP3   OH213640   4.063   4.200   1.622  0.8280  0.3473  0.1758
 4559TIP3    H113641   4.098   4.251   1.694 -2.1489  2.4454  0.3248
 4559TIP3    H213642   4.030   4.120   1.663 -1.2231  1.7025  1.3697
 4560TIP3   OH213643   7.017   3.471   2.301 -1.0397  0.0388  0.8702
 4560TIP3    H113644   6.934   3.513   2.280 -0.2851  0.4085 -1.7913
 4560TIP3    H213645   7.084   3.534   2.272  0.1678 -0.7265  1.8627
 4561TIP3   OH213646   1.100   0.138   4.680 -0.0331  0.0727 -0.4525
 4561TIP3    H113647   1.173   0.200   4.686 -0.5349  0.6622 -0.2852
 4561TIP3    H213648   1.108   0.101   4.592 -0.7859  1.7471 -1.2687
 4562TIP3   OH213649   0.471   1.027   0.513 -0.1387 -0.0051 -0.0447
 4562TIP3    H113650   0.485   1.010   0.420 -0.6570 -2.7212  0.3117
 4562TIP3    H213651   0.376   1.033   0.522 -0.3622 -3.2272  0.7474
 4563TIP3   OH213652   5.175   5.906   3.795 -0.2403  0.1807  0.5156
 4563TIP3    H113653   5.161   5.932   3.887  0.4664 -1.9189  1.2777
 4563TIP3    H213654   5.102   5.848   3.776 -0.5260  0.8144 -0.3677
 4564TIP3   OH213655   2.958   2.756   0.467 -0.2248 -0.0234 -0.0966
 4564TIP3    H113656   2.895   2.708   0.413 -0.6783  0.0350  0.3679
 4564TIP3    H213657   2.996   2.822   0.408 -2.5423  1.7369  0.2318
 4565TIP3   OH213658   3.302   3.457   2.295 -0.1732  0.9020 -0.1670
 4565TIP3    H113659   3.242   3.529   2.279 -0.2703  0.7316 -0.5911
 4565TIP3    H213660   3.247   3.379   2.295  0.0816  0.7115 -0.8736
 4566TIP3   OH213661   6.669   1.241   0.305 -0.2741 -0.2941 -0.3245
 4566TIP3    H113662   6.720   1.321   0.293 -0.3187 -0.2250 -0.0467
 4566TIP3    H213663   6.709   1.198   0.380 -0.5671 -0.2861 -0.1649
 4567TIP3   OH213664   3.246   2.547   0.122 -0.3257 -0.4593  0.5817
 4567TIP3    H113665   3.285   2.635   0.128 -0.4732 -0.4257  1.0735
 4567TIP3    H213666   3.181   2.554   0.051  0.9689 -0.6787 -0.6696
 4568TIP3   OH213667   1.786   3.780   4.697 -0.4108  0.0722 -0.8677
 4568TIP3    H113668   1.807   3.732   4.777 -2.3541 -0.4503 -0.6215
 4568TIP3    H213669   1.837   3.736   4.629  0.6931  0.0491 -0.0570
 4569TIP3   OH213670   3.260   3.475   1.243 -0.6154  0.4623 -0.0808
 4569TIP3    H113671   3.193   3.445   1.182  0.4094  1.0624 -1.5413
 4569TIP3    H213672   3.302   3.550   1.199  1.9009 -0.6954  0.1632
 4570TIP3   OH213673   0.300   6.154   5.315  0.1072 -0.1735 -0.1037
 4570TIP3    H113674   0.328   6.242   5.291 -0.0859 -0.1244 -0.1472
 4570TIP3    H213675   0.309   6.103   5.234  1.5424 -0.5231  0.2542
 4571TIP3   OH213676   4.961   6.498   1.955 -0.2912 -0.2083 -0.7198
 4571TIP3    H113677   4.887   6.558   1.944  0.6843  1.5284  1.5055
 4571TIP3    H213678   4.921   6.411   1.953 -2.5633  0.6682  1.1364
 4572TIP3   OH213679   6.735   5.398   3.135  0.2982 -0.0611 -0.2679
 4572TIP3    H113680   6.647   5.369   3.162  0.7541 -0.5430  0.7719
 4572TIP3    H213681   6.765   5.452   3.208  0.7007  0.4601 -0.8164
 4573TIP3   OH213682   2.943   4.655   0.869 -0.3371  0.4379  0.3010
 4573TIP3    H113683   3.002   4.591   0.909  0.9284  1.2650 -0.1927
 4573TIP3    H213684   2.969   4.739   0.908 -0.0926  1.0415 -1.1154
 4574TIP3   OH213685   2.276   5.065   2.561  0.3086 -0.2583  0.0766
 4574TIP3    H113686   2.265   5.155   2.530 -0.4538 -0.0562  0.9111
 4574TIP3    H213687   2.346   5.030   2.505  0.5451  0.8055 -0.3348
 4575TIP3   OH213688   1.337   6.671   0.357  0.3194  0.4059 -0.0554
 4575TIP3    H113689   1.351   6.639   0.268 -0.6698  0.6101 -0.2902
 4575TIP3    H213690   1.329   6.766   0.347 -0.8868  0.3342  0.0990
 4576TIP3   OH213691   0.661   3.811   3.298  0.1882  0.3330  0.6215
 4576TIP3    H113692   0.697   3.728   3.267 -1.1787 -0.4375  1.0437
 4576TIP3    H213693   0.698   3.822   3.385 -0.2715 -0.2476  0.8940
 4577TIP3   OH213694   5.803   3.069   1.435 -0.0846 -0.0643  0.5179
 4577TIP3    H113695   5.764   3.152   1.407  1.4550  0.1757 -1.0422
 4577TIP3    H213696   5.729   3.019   1.472 -1.8070  0.5016 -1.9368
 4578TIP3   OH213697   5.223   1.424   3.787 -0.3861 -0.2940  0.8214
 4578TIP3    H113698   5.282   1.361   3.746 -0.5311  0.6621 -0.9920
 4578TIP3    H213699   5.139   1.378   3.793 -0.5750 -0.2308 -0.7836
 4579TIP3   OH213700   2.003   1.153   4.512 -0.0957 -0.0844  0.0300
 4579TIP3    H113701   2.070   1.115   4.568  0.6583  1.9242  0.5656
 4579TIP3    H213702   2.050   1.214   4.455 -1.2657  0.2586 -0.6130
 4580TIP3   OH213703   2.947   3.465   0.511 -0.1047  0.2007 -0.0177
 4580TIP3    H113704   2.886   3.482   0.583 -1.0390  2.5559 -1.2702
 4580TIP3    H213705   2.994   3.385   0.537 -1.2427  0.3117  2.6077
 4581TIP3   OH213706   2.206   2.639   0.438 -0.9461  0.0770  0.3682
 4581TIP3    H113707   2.196   2.630   0.343  0.9334  2.3991 -0.1383
 4581TIP3    H213708   2.212   2.549   0.470 -1.3128 -0.7547 -1.7250
 4582TIP3   OH213709   1.673   5.168   5.040 -0.3186  0.0665  0.0280
 4582TIP3    H113710   1.668   5.174   5.135  0.6991 -1.2349  0.1993
 4582TIP3    H213711   1.671   5.259   5.010  0.7594  0.5714  1.3804
 4583TIP3   OH213712   1.135   6.215   0.444  0.0949 -0.5353 -0.0891
 4583TIP3    H113713   1.172   6.167   0.369 -0.5993 -0.2130 -0.6543
 4583TIP3    H213714   1.211   6.246   0.492  0.6297 -3.2974  1.0573
 4584TIP3   OH213715   6.294   0.817   1.667  0.6335 -0.2604 -0.7070
 4584TIP3    H113716   6.305   0.864   1.584  3.0396  0.3514 -0.1142
 4584TIP3    H213717   6.217   0.856   1.707 -0.5349 -0.5109 -2.5923
 4585TIP3   OH213718   4.464   1.976   4.008  0.3057  0.3347  0.4582
 4585TIP3    H113719   4.507   2.034   3.945 -1.4959  0.7146 -0.4778
 4585TIP3    H213720   4.417   2.036   4.066 -0.8565 -0.1366  0.0192
 4586TIP3   OH213721   0.042   2.810   0.723  0.9666 -0.0390  0.4686
 4586TIP3    H113722   0.036   2.791   0.816  1.5411  2.3475  1.0511
 4586TIP3    H213723   0.135   2.826   0.707  1.0008 -1.2359 -0.7282
 4587TIP3   OH213724   0.337   1.223   5.756  0.0055 -0.3573 -0.3351
 4587TIP3    H113725   0.354   1.130   5.765  0.2508 -0.3400 -0.5940
 4587TIP3    H213726   0.399   1.265   5.816 -1.0589 -0.4181  0.8395
 4588TIP3   OH213727   3.574   6.706   2.348 -0.3180 -0.5810 -0.2546
 4588TIP3    H113728   3.611   6.664   2.425 -1.3549 -0.5239  0.2869
 4588TIP3    H213729   3.517   6.775   2.382  0.4151  0.4979 -1.1051
 4589TIP3   OH213730   1.240   6.730   3.405 -0.1839  0.6605  0.2970
 4589TIP3    H113731   1.237   6.692   3.318 -1.7359  0.7381  0.2913
 4589TIP3    H213732   1.214   6.821   3.392  0.1473  0.8286  0.7705
 4590TIP3   OH213733   0.555   5.280   1.232 -0.1889  0.0540  0.0960
 4590TIP3    H113734   0.527   5.190   1.218  1.0945 -0.2563 -0.6687
 4590TIP3    H213735   0.610   5.300   1.156 -1.9447  2.1373 -0.7044
 4591TIP3   OH213736   1.517   1.680   4.678 -0.3115  0.3714 -0.1413
 4591TIP3    H113737   1.521   1.595   4.635 -0.5234  0.9511 -1.3443
 4591TIP3    H213738   1.430   1.682   4.719  0.3525 -0.6753  1.4356
 4592TIP3   OH213739   6.207   1.706   4.484  0.5783 -0.1850  0.8556
 4592TIP3    H113740   6.277   1.670   4.538 -0.3631 -0.3715  1.9952
 4592TIP3    H213741   6.131   1.709   4.543  0.0967  1.7447  0.2140
 4593TIP3   OH213742   2.744   1.480   3.841  0.1526 -0.1266  0.6913
 4593TIP3    H113743   2.736   1.576   3.836  1.5917 -0.0447 -1.3912
 4593TIP3    H213744   2.656   1.448   3.822 -0.0036  0.7816 -0.1811
 4594TIP3   OH213745   1.043   2.894   1.694  0.1854  0.6277 -0.2578
 4594TIP3    H113746   1.104   2.863   1.760  1.6105  0.6222 -1.5323
 4594TIP3    H213747   1.062   2.988   1.687  0.1003  0.6101 -0.7183
 4595TIP3   OH213748   3.865   2.892   4.872  0.8054  1.2172  0.3612
 4595TIP3    H113749   3.828   2.971   4.912  0.8439  0.6319  1.6143
 4595TIP3    H213750   3.829   2.820   4.924  2.4036  0.5408  0.6005
 4596TIP3   OH213751   5.604   1.699   3.309  0.4346  0.9399 -0.5804
 4596TIP3    H113752   5.587   1.793   3.318  0.1676  0.6882  2.5019
 4596TIP3    H213753   5.546   1.657   3.372 -0.4321 -1.4874 -2.8212
 4597TIP3   OH213754   4.661   3.093   0.088 -0.3289 -0.1496  0.1423
 4597TIP3    H113755   4.642   3.168   0.032 -1.7486 -0.0632  0.7004
 4597TIP3    H213756   4.742   3.117   0.134  0.1361  0.3217 -0.8901
 4598TIP3   OH213757   2.142   6.182   0.249 -0.4549  0.0395 -0.2059
 4598TIP3    H113758   2.126   6.166   0.156  0.1000 -0.0597 -0.2883
 4598TIP3    H213759   2.177   6.271   0.253 -2.5867  0.9170  0.1508
 4599TIP3   OH213760  -0.003   3.789   1.289  0.2745 -0.1801 -0.5022
 4599TIP3    H113761   0.010   3.716   1.350 -0.8667  0.5768  0.7000
 4599TIP3    H213762   0.045   3.861   1.329 -1.0270  0.5041 -0.1083
 4600TIP3   OH213763   6.923   3.908   2.661  0.2672  0.0461  0.1277
 4600TIP3    H113764   6.955   3.972   2.597  0.9233 -1.1496 -0.7926
 4600TIP3    H213765   6.943   3.823   2.621  1.0198 -0.7571  2.1074
 4601TIP3   OH213766   0.503   2.489   3.851  0.3020  0.4000  0.2694
 4601TIP3    H113767   0.428   2.547   3.836  1.4888  1.8987 -0.1388
 4601TIP3    H213768   0.465   2.401   3.856 -1.6823  1.2640  1.8432
 4602TIP3   OH213769   5.615   6.617   2.788 -0.3280 -0.3538 -0.6324
 4602TIP3    H113770   5.551   6.560   2.830 -0.2993 -0.4362 -0.6992
 4602TIP3    H213771   5.682   6.632   2.855  0.2526 -1.3309 -0.9678
 4603TIP3   OH213772   1.447   5.110   2.237 -0.1365  0.2167 -0.0863
 4603TIP3    H113773   1.384   5.073   2.299 -0.1286 -0.8682 -0.6887
 4603TIP3    H213774   1.498   5.034   2.207 -2.2212  0.0594 -3.8390
 4604TIP3   OH213775   4.194   0.978   3.708  0.2516 -0.0440 -0.1632
 4604TIP3    H113776   4.143   0.931   3.773 -0.2128  0.2415 -0.3159
 4604TIP3    H213777   4.201   1.067   3.742 -2.0013  0.7557 -1.5615
 4605TIP3   OH213778   1.261   1.790   5.302  0.1573  0.2436 -0.2592
 4605TIP3    H113779   1.216   1.871   5.278 -0.4197  0.6262  1.9052
 4605TIP3    H213780   1.197   1.741   5.353  0.7212 -1.3202 -1.0011
 4606TIP3   OH213781   5.734   5.880   2.095  0.4165  0.4912 -0.2131
 4606TIP3    H113782   5.770   5.832   2.170  0.8751 -0.4177 -0.9768
 4606TIP3    H213783   5.669   5.821   2.058  2.7565 -0.8024 -2.6915
 4607TIP3   OH213784   3.612   1.290   2.308  0.4980 -0.0256 -0.5096
 4607TIP3    H113785   3.629   1.378   2.342 -0.1746 -0.0373 -0.1151
 4607TIP3    H213786   3.532   1.300   2.255  1.4695 -0.0270 -2.0394
 4608TIP3   OH213787   5.334   2.591   5.850 -0.2627 -0.5092  0.5432
 4608TIP3    H113788   5.391   2.617   5.922  0.1832 -1.0574  0.3989
 4608TIP3    H213789   5.258   2.551   5.893  0.0174 -0.8666  0.7160
 4609TIP3   OH213790   6.694   1.208   3.481 -0.3808 -0.0711  0.0226
 4609TIP3    H113791   6.618   1.165   3.440 -0.7869  1.7291 -1.2132
 4609TIP3    H213792   6.656   1.280   3.531  0.5546  1.9157 -1.9881
 4610TIP3   OH213793   0.525   3.195   4.818  0.1775  0.0459  0.4964
 4610TIP3    H113794   0.568   3.123   4.770 -0.7700  0.3017 -0.7676
 4610TIP3    H213795   0.466   3.151   4.879 -2.7418 -0.3759 -2.3689
 4611TIP3   OH213796  -0.008   2.601   4.922  0.6020 -0.4823  0.5104
 4611TIP3    H113797  -0.002   2.608   4.826 -1.0705 -0.9653  0.3435
 4611TIP3    H213798   0.083   2.606   4.951  1.0998  0.5801 -1.0299
 4612TIP3   OH213799   3.910   3.058   3.965 -0.0023  0.7931 -0.3780
 4612TIP3    H113800   3.972   2.987   3.978  0.1091  1.1918  1.6560
 4612TIP3    H213801   3.830   3.015   3.936  0.6581  0.0800 -1.1988
 4613TIP3   OH213802   5.488   2.462   5.635 -0.8512 -0.0848  0.0332
 4613TIP3    H113803   5.580   2.436   5.639 -0.3872  1.3034 -1.0031
 4613TIP3    H213804   5.471   2.503   5.720  0.1915  1.7555 -0.5869
 4614TIP3   OH213805   1.724   1.916   2.131  0.0610  0.0791  0.1284
 4614TIP3    H113806   1.742   1.863   2.053  0.4760  1.8252 -1.0334
 4614TIP3    H213807   1.792   1.891   2.194 -0.2402 -1.3152 -0.0749
 4615TIP3   OH213808   1.366   2.060   5.702  0.0686  0.5812  0.2128
 4615TIP3    H113809   1.299   2.043   5.636  0.1192 -0.5489  0.4412
 4615TIP3    H213810   1.352   1.993   5.769  1.7260  0.0202  0.0332
 4616TIP3   OH213811   5.338   3.834   1.011  0.0908  0.1724 -0.5659
 4616TIP3    H113812   5.405   3.886   1.056  0.1206  0.5648 -1.0481
 4616TIP3    H213813   5.381   3.805   0.931  0.4742 -1.6339  0.2571
 4617TIP3   OH213814   1.371   6.216   3.820  0.7684  0.0104 -0.3292
 4617TIP3    H113815   1.329   6.199   3.736  1.4457  1.1959 -0.9343
 4617TIP3    H213816   1.460   6.244   3.797  1.0673  0.0599  0.8055
 4618TIP3   OH213817   2.002   6.501   4.411  0.1446 -0.7027 -0.1625
 4618TIP3    H113818   2.073   6.528   4.352 -0.0103 -1.5417 -0.7583
 4618TIP3    H213819   2.028   6.413   4.440  0.0267 -0.4487  0.7223
 4619TIP3   OH213820   3.298   1.184   3.308 -0.3587 -0.2305  0.0931
 4619TIP3    H113821   3.340   1.263   3.340 -0.4438  0.0173 -0.3897
 4619TIP3    H213822   3.209   1.188   3.342 -0.8959  0.7707 -1.3412
 4620TIP3   OH213823   0.514   1.100   0.949 -0.5183 -0.5387 -0.1229
 4620TIP3    H113824   0.552   1.071   1.032 -2.0850 -0.4965  0.6440
 4620TIP3    H213825   0.440   1.155   0.975 -0.7103 -0.0906 -1.5659
 4621TIP3   OH213826   4.540   0.992   3.400  0.3122  0.3975  0.0251
 4621TIP3    H113827   4.537   1.081   3.436  0.2126  1.2438 -1.9663
 4621TIP3    H213828   4.452   0.957   3.416 -0.2079  1.3204 -0.7372
 4622TIP3   OH213829   1.125   2.452   4.561  0.4856 -0.1595 -0.6316
 4622TIP3    H113830   1.149   2.545   4.569 -2.7520  0.8252 -0.9508
 4622TIP3    H213831   1.074   2.447   4.481 -0.0330 -2.0897 -0.2361
 4623TIP3   OH213832   5.468   6.425   4.698 -0.1860 -0.0308  0.2334
 4623TIP3    H113833   5.499   6.411   4.609 -1.9963  1.3072 -0.6700
 4623TIP3    H213834   5.541   6.396   4.754  1.6145  0.5738 -1.6877
 4624TIP3   OH213835   3.238   6.577   0.555  0.3179 -0.2669 -0.0630
 4624TIP3    H113836   3.248   6.485   0.579 -1.5702 -0.1994  1.1890
 4624TIP3    H213837   3.167   6.610   0.611  0.5517  1.8074 -0.8677
 4625TIP3   OH213838   6.428   0.369   3.762  0.0477  0.6144  0.0449
 4625TIP3    H113839   6.355   0.355   3.702 -0.0089  0.4466  0.1506
 4625TIP3    H213840   6.394   0.343   3.847  0.9309 -1.7398 -0.2392
 4626TIP3   OH213841   0.788   3.847   0.646 -0.5780  0.3513  0.2083
 4626TIP3    H113842   0.709   3.797   0.665  0.4701 -1.8644 -0.8260
 4626TIP3    H213843   0.851   3.818   0.711  0.0240  0.4501 -0.3248
 4627TIP3   OH213844   4.167   3.397   5.776  0.3347 -0.1376  0.1195
 4627TIP3    H113845   4.244   3.395   5.719  1.5461  0.0318  1.6806
 4627TIP3    H213846   4.168   3.312   5.820  0.1904  0.2332  0.8580
 4628TIP3   OH213847   3.530   1.827   2.081 -0.1386  0.2340 -0.0791
 4628TIP3    H113848   3.440   1.856   2.070 -0.6861 -0.9176  1.0536
 4628TIP3    H213849   3.569   1.835   1.994 -1.1322  1.3800 -0.4370
 4629TIP3   OH213850   2.397   1.347   0.526 -0.4095 -0.3767 -0.0255
 4629TIP3    H113851   2.363   1.425   0.572  0.5498 -0.4599  0.8466
 4629TIP3    H213852   2.318   1.299   0.500 -1.0149  0.8269 -0.4858
 4630TIP3   OH213853   5.831   5.207   0.475 -0.0692  0.5725 -0.8103
 4630TIP3    H113854   5.759   5.185   0.533  0.0188  0.5395 -0.7133
 4630TIP3    H213855   5.893   5.254   0.531 -0.7680  2.0997 -1.2589
 4631TIP3   OH213856   4.197   0.393   5.139 -0.4208  0.0234  0.1945
 4631TIP3    H113857   4.249   0.314   5.127 -0.6016 -0.2351  1.0417
 4631TIP3    H213858   4.234   0.456   5.077  0.2442 -0.4732  0.0806
 4632TIP3   OH213859   3.258   4.395   3.287 -0.3274 -0.2835 -0.7222
 4632TIP3    H113860   3.274   4.414   3.380  1.6423 -2.3629 -0.5515
 4632TIP3    H213861   3.292   4.472   3.241  1.7221 -0.5888  0.1769
 4633TIP3   OH213862   2.109   5.025   5.803  0.0185  0.1947  0.2644
 4633TIP3    H113863   2.016   5.038   5.821  0.2571  2.9981  0.0095
 4633TIP3    H213864   2.139   5.110   5.770  2.4654 -0.9159 -0.6553
 4634TIP3   OH213865   1.536   5.294   0.641 -0.1361 -0.4082 -0.5167
 4634TIP3    H113866   1.563   5.229   0.706  2.1964  0.5332 -0.4595
 4634TIP3    H213867   1.516   5.243   0.563 -0.3304 -1.3468  0.1279
 4635TIP3   OH213868   0.161   3.693   1.646  0.7447 -0.2798 -0.5128
 4635TIP3    H113869   0.196   3.675   1.559 -0.3466 -0.9236 -0.8432
 4635TIP3    H213870   0.105   3.770   1.634 -0.1459 -0.9200 -0.6027
 4636TIP3   OH213871   0.685   1.606   0.159  0.2088  0.1931  0.3434
 4636TIP3    H113872   0.657   1.698   0.152 -0.2617 -0.0612 -1.7385
 4636TIP3    H213873   0.615   1.557   0.116  1.1275 -1.0116  0.1903
 4637TIP3   OH213874   0.220   1.312   3.466 -0.6390 -0.4118  0.4491
 4637TIP3    H113875   0.182   1.268   3.543  0.7946 -1.8910  0.3710
 4637TIP3    H213876   0.239   1.240   3.405 -1.1991  0.6758 -1.0710
 4638TIP3   OH213877   2.377   2.334   4.522 -0.1473  0.0688 -0.2687
 4638TIP3    H113878   2.438   2.330   4.448  0.8384  2.4204  0.3473
 4638TIP3    H213879   2.311   2.397   4.496 -0.5992 -0.1550  0.3064
 4639TIP3   OH213880   2.265   1.106   4.572  0.2017  0.1075  0.1493
 4639TIP3    H113881   2.316   1.047   4.516 -0.1965  0.3139 -0.4410
 4639TIP3    H213882   2.284   1.077   4.661  1.0420 -0.0652 -0.0827
 4640TIP3   OH213883   5.557   3.018   4.103 -0.6800 -0.4312 -0.1470
 4640TIP3    H113884   5.528   2.960   4.174  1.3185 -0.6534  0.5561
 4640TIP3    H213885   5.554   3.106   4.140  1.9903 -0.6804  0.9274
 4641TIP3   OH213886   5.440   5.808   4.756  0.2835  0.0815 -0.4408
 4641TIP3    H113887   5.514   5.781   4.811  0.4251  1.3918  0.0493
 4641TIP3    H213888   5.479   5.868   4.692  0.0979 -1.3320 -1.9230
 4642TIP3   OH213889   0.671   2.669   2.072 -0.1986  0.5281 -0.3326
 4642TIP3    H113890   0.586   2.682   2.030  0.3116 -0.0897 -1.5782
 4642TIP3    H213891   0.733   2.719   2.018  0.3263  0.4960  0.2290
 4643TIP3   OH213892   6.060   0.582   1.779  0.4450  0.3346 -0.4131
 4643TIP3    H113893   6.062   0.653   1.844  0.9325 -0.7024  0.7423
 4643TIP3    H213894   5.966   0.564   1.767  0.3543 -0.2550  0.9310
 4644TIP3   OH213895   3.015   4.017   3.338  0.0873 -0.2398 -0.4086
 4644TIP3    H113896   2.937   4.060   3.302 -0.3184 -1.2925 -0.8320
 4644TIP3    H213897   3.001   3.924   3.321  1.8607 -0.3724 -1.2876
 4645TIP3   OH213898   1.724   4.178   4.143  0.0241 -0.0531  0.0388
 4645TIP3    H113899   1.762   4.097   4.111 -0.4807 -0.2573 -0.0468
 4645TIP3    H213900   1.721   4.168   4.238  1.0899  0.3649  0.1309
 4646TIP3   OH213901   7.164   4.109   0.376 -0.3317 -0.7860  0.1022
 4646TIP3    H113902   7.172   4.120   0.281 -1.3956  1.7189  0.2384
 4646TIP3    H213903   7.153   4.014   0.388  1.6011 -1.3645 -2.0805
 4647TIP3   OH213904   1.499   0.693   2.431  0.0656  0.1752  0.2256
 4647TIP3    H113905   1.540   0.696   2.344 -0.9501  1.4392 -0.2473
 4647TIP3    H213906   1.528   0.611   2.469 -0.4764 -1.0300 -1.8326
 4648TIP3   OH213907   6.233   5.429   3.451  0.0800 -0.1180  0.2832
 4648TIP3    H113908   6.186   5.376   3.387  0.6973 -0.6289  0.2460
 4648TIP3    H213909   6.322   5.395   3.450  0.3641  0.5973  0.6222
 4649TIP3   OH213910   2.685   6.244   0.771  0.1742  0.7232 -0.1683
 4649TIP3    H113911   2.695   6.200   0.855 -0.9458 -0.7323 -0.7537
 4649TIP3    H213912   2.764   6.222   0.722  0.6962  1.3393  0.3843
 4650TIP3   OH213913   2.920   3.688   1.767 -0.4940 -0.0043 -0.4290
 4650TIP3    H113914   2.844   3.747   1.774 -0.8117 -0.5439  0.9217
 4650TIP3    H213915   2.994   3.742   1.796 -1.1228 -0.8558  3.2075
 4651TIP3   OH213916   6.955   6.045   3.647 -0.4574  0.4568  0.2780
 4651TIP3    H113917   7.043   6.008   3.653 -0.0174  1.5081  0.5143
 4651TIP3    H213918   6.934   6.075   3.735 -0.6641  1.0611  0.0345
 4652TIP3   OH213919   3.642   3.582   1.146 -0.4458 -0.1860  0.3181
 4652TIP3    H113920   3.591   3.626   1.215 -0.3127  1.7388 -0.7469
 4652TIP3    H213921   3.733   3.592   1.174 -0.4223  0.1677  0.1288
 4653TIP3   OH213922   7.204   0.518   4.484  0.9971 -0.1665  0.2280
 4653TIP3    H113923   7.123   0.474   4.513  0.4059 -1.2186 -2.6663
 4653TIP3    H213924   7.210   0.596   4.539 -0.6539 -1.3280  2.1892
 4654TIP3   OH213925   4.984   3.877   3.629 -0.2986  0.6644 -0.2989
 4654TIP3    H113926   4.986   3.798   3.683 -0.2977  0.9044  0.0514
 4654TIP3    H213927   5.070   3.878   3.585 -0.7012 -0.1140 -1.1569
 4655TIP3   OH213928   0.788   1.412   0.875  0.1338  0.2292 -0.1610
 4655TIP3    H113929   0.748   1.432   0.791  2.3419  0.6890 -1.1914
 4655TIP3    H213930   0.876   1.380   0.853 -0.2155 -2.4520  1.8681
 4656TIP3   OH213931   6.599   0.416   2.659  0.1980 -0.1137 -0.7828
 4656TIP3    H113932   6.623   0.363   2.583  2.3507 -1.7420  0.9223
 4656TIP3    H213933   6.503   0.409   2.663  0.0797 -0.5605 -2.8780
 4657TIP3   OH213934   2.129   2.287   2.716 -0.3192  0.1520  0.0877
 4657TIP3    H113935   2.116   2.370   2.762 -1.2691 -0.5675  1.1975
 4657TIP3    H213936   2.071   2.225   2.762  0.6383 -1.2079 -0.4562
 4658TIP3   OH213937   0.420   1.160   2.380  1.0584 -0.1302  0.2849
 4658TIP3    H113938   0.357   1.208   2.434 -0.3447  0.3993 -1.7116
 4658TIP3    H213939   0.381   1.073   2.371  0.7566  0.0959 -0.6789
 4659TIP3   OH213940   0.630   0.849   5.516 -0.2708 -0.6454  0.0684
 4659TIP3    H113941   0.624   0.924   5.576 -0.0702 -0.5895  0.0193
 4659TIP3    H213942   0.718   0.814   5.530  0.5887  0.6496 -1.6964
 4660TIP3   OH213943   2.838   1.255   2.093  0.5293 -0.2242  0.4019
 4660TIP3    H113944   2.925   1.224   2.118  0.6798  1.4997  2.3402
 4660TIP3    H213945   2.853   1.345   2.062 -0.0487 -1.3668 -3.7050
 4661TIP3   OH213946   4.202   6.088   2.273 -0.0883 -0.2770  0.1214
 4661TIP3    H113947   4.270   6.137   2.226  1.4535 -1.1955  1.2847
 4661TIP3    H213948   4.201   6.003   2.230 -0.3926 -0.3215  0.2206
 4662TIP3   OH213949   4.094   5.699   0.200  0.0886  0.3363  0.2454
 4662TIP3    H113950   4.091   5.707   0.105 -0.6304  1.2044  0.3295
 4662TIP3    H213951   4.173   5.746   0.226  1.3717 -1.5446 -0.0473
 4663TIP3   OH213952   3.572   1.411   3.111 -0.5416 -0.3025  0.7203
 4663TIP3    H113953   3.588   1.459   3.029 -0.6811  0.7797  1.3188
 4663TIP3    H213954   3.621   1.459   3.177 -0.7090 -0.9760  1.3411
 4664TIP3   OH213955   6.214   3.277   4.458  0.4037 -0.7437  0.3091
 4664TIP3    H113956   6.142   3.218   4.482  2.6335 -4.0057 -0.2520
 4664TIP3    H213957   6.268   3.282   4.537  1.1507 -0.9558 -0.1724
 4665TIP3   OH213958   6.164   0.885   2.570  0.1407 -0.4093 -0.2945
 4665TIP3    H113959   6.195   0.922   2.488  0.1373 -1.4634 -0.7925
 4665TIP3    H213960   6.069   0.891   2.566  0.1745  0.6218  0.1692
 4666TIP3   OH213961   0.747   6.474   4.904 -0.2765 -0.1085  0.5912
 4666TIP3    H113962   0.809   6.494   4.834 -0.6424 -0.7155  0.0903
 4666TIP3    H213963   0.705   6.393   4.877  0.0096 -0.6793  1.8113
 4667TIP3   OH213964   2.176   6.473   3.760 -0.5001  0.3320 -1.0645
 4667TIP3    H113965   2.241   6.531   3.720 -0.5292  1.6884  0.7202
 4667TIP3    H213966   2.094   6.521   3.752 -0.8836 -0.3467 -1.2627
 4668TIP3   OH213967   2.144   3.490   3.111  0.3736 -0.4040 -0.1855
 4668TIP3    H113968   2.163   3.584   3.107 -3.7712  0.6178 -0.9880
 4668TIP3    H213969   2.145   3.462   3.019 -0.1693 -0.6690 -0.1150
 4669TIP3   OH213970   6.464   4.475   2.708  0.2043  0.3605  0.2378
 4669TIP3    H113971   6.461   4.554   2.763 -0.1301 -0.2006  1.0355
 4669TIP3    H213972   6.432   4.405   2.764  2.3214 -0.7211  0.1950
 4670TIP3   OH213973   0.734   3.589   3.588 -0.0770  0.6993 -0.3576
 4670TIP3    H113974   0.794   3.663   3.585 -0.4092  0.9489 -1.5410
 4670TIP3    H213975   0.663   3.618   3.645  0.1351  1.0256 -0.2573
 4671TIP3   OH213976   2.144   4.631   1.901  0.0731 -0.0778 -0.9102
 4671TIP3    H113977   2.149   4.699   1.833 -0.0002 -1.0203 -1.8746
 4671TIP3    H213978   2.223   4.579   1.888 -0.3249 -0.7249 -0.7646
 4672TIP3   OH213979   1.545   6.322   5.695  0.0389 -0.0942 -0.0631
 4672TIP3    H113980   1.471   6.289   5.645 -1.1117  1.3648  0.5850
 4672TIP3    H213981   1.609   6.251   5.693 -1.6937 -1.7495  0.0655
 4673TIP3   OH213982   0.360   4.179   1.904 -0.0493 -0.0514 -0.4510
 4673TIP3    H113983   0.423   4.109   1.885  0.1962  0.6343 -2.3452
 4673TIP3    H213984   0.409   4.243   1.955  0.1006 -0.6209  0.1311
 4674TIP3   OH213985   1.815   2.464   0.691  0.2302  0.4430 -0.3957
 4674TIP3    H113986   1.791   2.373   0.711  0.4323  0.3292 -0.6645
 4674TIP3    H213987   1.909   2.468   0.710  0.2432  0.5672 -0.4869
 4675TIP3   OH213988   6.459   1.123   4.673  0.3354  0.1345  0.1560
 4675TIP3    H113989   6.467   1.058   4.603 -0.3107 -0.3348  0.5006
 4675TIP3    H213990   6.547   1.157   4.685  0.8193 -1.1757  0.4215
 4676TIP3   OH213991   0.315   0.099   1.666  0.0214  0.6168  0.2287
 4676TIP3    H113992   0.234   0.110   1.717  0.2467 -1.7880  1.2361
 4676TIP3    H213993   0.291   0.038   1.596  0.0970  2.7710 -1.7898
 4677TIP3   OH213994   6.380   6.650   5.360 -0.0182  0.3431 -0.1885
 4677TIP3    H113995   6.417   6.710   5.424 -1.0866  0.2636  0.5194
 4677TIP3    H213996   6.447   6.582   5.350  0.6829  1.0054 -0.0979
 4678TIP3   OH213997   1.971   5.372   1.286 -0.0189 -0.2437  0.5045
 4678TIP3    H113998   1.977   5.318   1.365  1.2699 -2.3039 -0.9106
 4678TIP3    H213999   1.997   5.314   1.215 -2.5102  1.1127 -1.6913
 4679TIP3   OH214000   4.548   0.534   0.401 -0.1923  0.2569 -0.1885
 4679TIP3    H114001   4.539   0.594   0.475 -0.7014 -2.6412  2.3160
 4679TIP3    H214002   4.458   0.513   0.375 -0.1371 -1.4376  0.8346
 4680TIP3   OH214003   2.324   5.206   0.658 -0.2525 -0.2177  0.2831
 4680TIP3    H114004   2.275   5.137   0.702  0.0581 -0.7102 -0.1243
 4680TIP3    H214005   2.288   5.288   0.692 -2.0985 -0.5366 -0.7999
 4681TIP3   OH214006   2.636   3.811   5.506 -0.7434  0.0851 -0.0518
 4681TIP3    H114007   2.599   3.888   5.551 -0.7640 -0.4235  0.8349
 4681TIP3    H214008   2.683   3.848   5.431 -0.3230  1.0216  0.6379
 4682TIP3   OH214009   4.724   1.169   5.064  0.2191  0.3532 -0.2294
 4682TIP3    H114010   4.734   1.095   5.005 -1.1661  0.8392 -1.1074
 4682TIP3    H214011   4.635   1.200   5.050  0.4372  1.5725  0.8482
 4683TIP3   OH214012   3.528   4.699   2.619  0.5850 -0.1492 -0.0071
 4683TIP3    H114013   3.564   4.649   2.692 -1.7986 -0.6875  0.8842
 4683TIP3    H214014   3.481   4.772   2.660  0.8059  0.6457 -1.1087
 4684TIP3   OH214015   1.572   4.598   2.335 -0.2229 -0.1134  0.6746
 4684TIP3    H114016   1.660   4.615   2.369 -0.2202  0.0155  0.6047
 4684TIP3    H214017   1.514   4.637   2.401 -0.2277 -0.1950  0.7188
 4685TIP3   OH214018   4.359   6.698   2.431 -0.3847  0.4471 -0.2546
 4685TIP3    H114019   4.289   6.748   2.388 -0.8868  2.0961  2.2818
 4685TIP3    H214020   4.336   6.698   2.523  1.7413 -1.1040  0.3626
 4686TIP3   OH214021   5.806   3.690   1.997 -0.0293  0.6119 -0.2225
 4686TIP3    H114022   5.752   3.614   2.017 -0.9118  0.8283 -1.6578
 4686TIP3    H214023   5.745   3.755   1.962  1.1102  0.8485 -1.9092
 4687TIP3   OH214024   0.004   1.810   5.518  0.1846 -0.1026 -0.2843
 4687TIP3    H114025  -0.047   1.835   5.441 -0.3560  1.6007  0.5789
 4687TIP3    H214026   0.095   1.823   5.492 -0.0187  1.0039 -0.4812
 4688TIP3   OH214027   4.358   3.902   3.643 -0.2296  0.0618  0.2957
 4688TIP3    H114028   4.336   3.992   3.618  0.7904 -0.0182 -1.0124
 4688TIP3    H214029   4.451   3.894   3.622 -0.2893 -1.2733  0.4805
 4689TIP3   OH214030   0.587   4.295   0.519  0.2675  0.4913  0.1617
 4689TIP3    H114031   0.549   4.333   0.598  0.0054  0.9862 -0.1974
 4689TIP3    H214032   0.593   4.368   0.458  0.0689  0.0247 -0.4241
 4690TIP3   OH214033   6.746   3.533   5.317 -0.5502  0.7278 -0.8478
 4690TIP3    H114034   6.666   3.484   5.337 -0.6244  0.7952 -0.9733
 4690TIP3    H214035   6.738   3.554   5.224 -0.8701  1.6017 -0.6323
 4691TIP3   OH214036   3.444   1.950   5.361  0.1547 -0.3418 -0.4235
 4691TIP3    H114037   3.536   1.979   5.356  0.4813 -1.1523  0.5701
 4691TIP3    H214038   3.445   1.861   5.327 -0.1913 -0.5008 -0.0223
 4692TIP3   OH214039   3.305   5.257   5.659 -0.6153 -0.4406  0.0264
 4692TIP3    H114040   3.283   5.326   5.722 -0.4549 -0.4747  0.1205
 4692TIP3    H214041   3.399   5.265   5.647 -0.4987 -1.0189  0.4927
 4693TIP3   OH214042   4.539   4.209   0.586  0.5702 -0.5044 -0.0670
 4693TIP3    H114043   4.507   4.148   0.520  0.9631 -0.2879 -0.4678
 4693TIP3    H214044   4.468   4.216   0.650 -0.1527 -0.0842 -0.8946
 4694TIP3   OH214045   3.924   2.076   5.332  0.3473  0.4343  0.0533
 4694TIP3    H114046   3.962   2.125   5.260 -0.8641 -1.4545 -1.9831
 4694TIP3    H214047   3.942   1.984   5.311 -2.1458 -0.3233  0.8315
 4695TIP3   OH214048   3.018   2.808   1.117  0.5238  0.3725 -0.3521
 4695TIP3    H114049   2.992   2.882   1.173  1.3704  0.4950 -0.1040
 4695TIP3    H214050   2.959   2.814   1.041  1.2146  1.9095 -0.8190
 4696TIP3   OH214051   6.392   3.919   2.622  0.4792 -0.3939  0.4944
 4696TIP3    H114052   6.453   3.869   2.677 -1.5022 -2.3209  1.0291
 4696TIP3    H214053   6.331   3.958   2.685  0.8247  1.1527 -0.0776
 4697TIP3   OH214054   4.000   3.759   4.199 -0.0003  0.4359 -0.1777
 4697TIP3    H114055   4.034   3.696   4.134  2.2187  0.6039  0.7303
 4697TIP3    H214056   3.972   3.834   4.146 -1.3131 -0.6925 -1.1632
 4698TIP3   OH214057   0.247   0.586   4.478  0.0930  0.0285  0.4413
 4698TIP3    H114058   0.205   0.647   4.538 -1.4991  0.2242 -0.7995
 4698TIP3    H214059   0.183   0.516   4.464 -0.1958  0.6746 -2.0278
 4699TIP3   OH214060   4.991   6.412   0.342  0.0244 -0.3683 -0.1305
 4699TIP3    H114061   5.004   6.487   0.401  0.2461  0.1952 -0.8793
 4699TIP3    H214062   4.940   6.350   0.394  1.6590 -0.6314  1.2531
 4700TIP3   OH214063   6.744   4.517   0.780  0.3918 -0.1906  0.3484
 4700TIP3    H114064   6.659   4.478   0.761  0.0033 -0.1016  1.7824
 4700TIP3    H214065   6.767   4.564   0.700 -2.3698  2.3688  0.8726
 4701TIP3   OH214066   4.123   5.633   1.910 -0.5421  0.0129  0.3437
 4701TIP3    H114067   4.037   5.635   1.867 -0.2519 -0.6732 -0.2971
 4701TIP3    H214068   4.183   5.670   1.846  0.0600 -1.9336 -0.2887
 4702TIP3   OH214069   5.654   6.561   3.978 -0.4376 -0.3876  0.3814
 4702TIP3    H114070   5.569   6.581   4.018 -1.3211  1.2039 -2.0148
 4702TIP3    H214071   5.635   6.494   3.913  0.6162 -1.6060  1.2694
 4703TIP3   OH214072   6.724   0.169   2.898 -0.0771  0.8925 -0.5948
 4703TIP3    H114073   6.648   0.182   2.955 -0.5011 -0.4579 -0.8260
 4703TIP3    H214074   6.777   0.248   2.911 -1.1594  1.5307  0.1133
 4704TIP3   OH214075   1.924   1.812   0.915 -0.4966 -0.1694 -0.0680
 4704TIP3    H114076   1.940   1.731   0.964  1.4835  0.3996  0.3300
 4704TIP3    H214077   1.891   1.873   0.981  0.5509  0.0909  0.2489
 4705TIP3   OH214078   3.960   0.272   3.327 -0.3214 -0.0982 -0.5348
 4705TIP3    H114079   3.878   0.316   3.303  0.0340  1.5381  0.9717
 4705TIP3    H214080   3.960   0.272   3.423  1.0628 -0.8229 -0.5075
 4706TIP3   OH214081   1.220   0.164   2.800  0.5112 -0.2949 -0.5685
 4706TIP3    H114082   1.182   0.251   2.790 -2.8327 -1.3813  1.2521
 4706TIP3    H214083   1.198   0.118   2.720  2.5049  0.4972 -1.6450
 4707TIP3   OH214084   3.414   3.591   2.678  0.0337  0.0244 -0.2178
 4707TIP3    H114085   3.471   3.571   2.753  0.4156 -0.3875 -0.6167
 4707TIP3    H214086   3.474   3.610   2.606 -0.3334 -0.3711 -0.6311
 4708TIP3   OH214087   1.704  -0.007   2.053 -0.2014 -0.1009 -0.8601
 4708TIP3    H114088   1.697   0.074   2.003 -1.0936  0.9018  0.7923
 4708TIP3    H214089   1.638   0.001   2.121  0.7974 -1.5067  0.3444
 4709TIP3   OH214090   5.792   2.797   3.558  0.5545 -0.0200  0.1431
 4709TIP3    H114091   5.734   2.730   3.522 -1.2691  2.4282 -1.7503
 4709TIP3    H214092   5.772   2.799   3.651 -0.3232 -1.1549 -0.0052
 4710TIP3   OH214093   6.510   5.617   5.504  0.1100 -0.4438 -0.3524
 4710TIP3    H114094   6.487   5.619   5.411  3.4185  1.2109 -1.3159
 4710TIP3    H214095   6.599   5.581   5.505  0.1515 -0.4336  2.1892
 4711TIP3   OH214096   4.094   6.355   4.022 -0.5223  0.0672  0.1605
 4711TIP3    H114097   4.035   6.284   4.046 -1.3551 -0.3835 -2.8532
 4711TIP3    H214098   4.040   6.415   3.970  0.9197  1.3154  0.0166
 4712TIP3   OH214099   5.351   6.075   4.372 -0.1503  0.6013  0.2919
 4712TIP3    H114100   5.267   6.033   4.387 -0.1412  0.8681  1.1827
 4712TIP3    H214101   5.340   6.124   4.291 -0.8693  0.6687  0.4251
 4713TIP3   OH214102   5.842   0.601   5.000  0.4014  0.0059 -0.0062
 4713TIP3    H114103   5.877   0.607   5.089 -0.3716  1.9299  0.2121
 4713TIP3    H214104   5.750   0.579   5.011  0.1930  0.7096 -0.2996
 4714TIP3   OH214105   2.204   0.644   5.086 -0.4019  0.1760 -0.2392
 4714TIP3    H114106   2.234   0.688   5.165  1.3175  0.2504 -0.8824
 4714TIP3    H214107   2.190   0.553   5.113 -0.0936  0.2566  0.2042
 4715TIP3   OH214108   3.455   5.209   3.996 -0.4270 -0.0942  0.0088
 4715TIP3    H114109   3.537   5.229   4.042 -0.4805  2.7208 -0.8997
 4715TIP3    H214110   3.482   5.164   3.916  0.3472  1.2305 -0.5155
 4716TIP3   OH214111   5.681   0.805   5.369  0.7677 -0.3776  0.0939
 4716TIP3    H114112   5.659   0.711   5.364  0.8835 -0.4501  0.7939
 4716TIP3    H214113   5.606   0.849   5.329 -0.5627 -0.6465  2.0973
 4717TIP3   OH214114   4.906   1.100   0.169 -0.0093 -0.7579  0.1615
 4717TIP3    H114115   4.834   1.039   0.182 -0.4422 -0.3755 -0.4029
 4717TIP3    H214116   4.926   1.095   0.076 -0.2966  0.2141  0.0338
 4718TIP3   OH214117   2.637   0.186   1.450  0.3865  0.1359 -0.7623
 4718TIP3    H114118   2.615   0.257   1.390  1.0424  0.0564 -1.1024
 4718TIP3    H214119   2.726   0.204   1.478  0.3430 -0.2217 -0.3737
 4719TIP3   OH214120   6.317   6.276   0.929 -0.9684 -0.4047 -0.6754
 4719TIP3    H114121   6.265   6.225   0.990  0.3550 -2.7172 -1.3774
 4719TIP3    H214122   6.358   6.344   0.984 -0.2442 -2.0680  0.9415
 4720TIP3   OH214123   4.653   6.589   4.200  0.3521  0.2762  0.0181
 4720TIP3    H114124   4.608   6.562   4.120  0.1851  1.0749 -0.1691
 4720TIP3    H214125   4.584   6.591   4.267  0.3960  0.0964  0.0705
 4721TIP3   OH214126   6.885   2.889   4.051  0.3329 -0.6196  0.3069
 4721TIP3    H114127   6.977   2.903   4.027 -0.2100  0.9550 -1.1167
 4721TIP3    H214128   6.836   2.921   3.975 -1.4105 -0.6333  1.3754
 4722TIP3   OH214129   3.796   6.357   4.313  0.1547  0.3689 -0.5420
 4722TIP3    H114130   3.848   6.347   4.234 -0.8259  2.3404 -1.5132
 4722TIP3    H214131   3.769   6.449   4.312 -1.0303  0.0970  1.3729
 4723TIP3   OH214132   3.900   1.800   3.079  0.2060 -0.1480 -0.1382
 4723TIP3    H114133   3.926   1.840   2.996  0.5550 -0.1861 -0.0492
 4723TIP3    H214134   3.876   1.875   3.135  1.3305 -0.0135  0.1910
 4724TIP3   OH214135   0.153   2.195   5.067  0.3135 -0.2695  0.1779
 4724TIP3    H114136   0.085   2.157   5.122  1.7135  0.2145  2.3922
 4724TIP3    H214137   0.140   2.290   5.076 -1.6546 -0.0166 -3.3573
 4725TIP3   OH214138   4.557   2.436   2.114  0.2957  0.0271 -0.1844
 4725TIP3    H114139   4.646   2.473   2.120  0.1269  0.5608 -0.7842
 4725TIP3    H214140   4.539   2.434   2.020  0.6117 -2.4106 -0.2411
 4726TIP3   OH214141   6.003   4.757   0.578 -0.7431 -0.0875 -0.0221
 4726TIP3    H114142   5.918   4.800   0.584 -1.3454 -1.1998 -0.2764
 4726TIP3    H214143   6.043   4.769   0.664 -1.6541 -0.5482  0.4784
 4727TIP3   OH214144   2.606   1.470   4.175 -0.2556 -0.1876  0.1972
 4727TIP3    H114145   2.654   1.457   4.257  1.1018  1.3270 -0.3109
 4727TIP3    H214146   2.632   1.397   4.119  2.8675  1.4379 -0.6606
 4728TIP3   OH214147   4.796   5.291   1.917 -0.1234  0.0438  0.3947
 4728TIP3    H114148   4.825   5.232   1.847  0.4953  0.6922  0.0927
 4728TIP3    H214149   4.858   5.275   1.988 -0.5581 -0.3815  0.6844
 4729TIP3   OH214150   1.447   4.439   2.746  0.0059 -0.1619  1.2743
 4729TIP3    H114151   1.427   4.359   2.697  0.8654  0.0305  0.5824
 4729TIP3    H214152   1.541   4.451   2.735 -0.3259  1.7907  0.0390
 4730TIP3   OH214153   3.749   2.347   4.172 -0.4962 -0.0213  0.2184
 4730TIP3    H114154   3.656   2.336   4.190 -0.6973 -0.4776 -1.0139
 4730TIP3    H214155   3.752   2.411   4.100  0.0462 -1.0760 -0.7296
 4731TIP3   OH214156   5.122   2.598   2.512 -0.3145  0.1930  0.0461
 4731TIP3    H114157   5.088   2.672   2.461  0.1848  1.1676  1.0859
 4731TIP3    H214158   5.081   2.521   2.473 -0.9140  1.0263 -1.0115
 4732TIP3   OH214159   5.983   5.709   2.705 -0.2854  0.5223 -0.3197
 4732TIP3    H114160   5.911   5.740   2.760 -0.4987 -0.2314 -0.1712
 4732TIP3    H214161   5.951   5.627   2.667  0.0259  0.8031 -1.2227
 4733TIP3   OH214162   6.245   2.053   5.634  0.2653  0.3331  0.0138
 4733TIP3    H114163   6.169   2.094   5.675  0.7849 -0.1663  1.5600
 4733TIP3    H214164   6.317   2.114   5.650  0.9980 -0.9906  2.1319
 4734TIP3   OH214165   0.659   6.512   1.903 -1.0365 -0.2113  0.2635
 4734TIP3    H114166   0.679   6.591   1.954 -0.7018 -0.2771  0.2392
 4734TIP3    H214167   0.605   6.460   1.961 -1.2563  0.0353  0.2815
 4735TIP3   OH214168   5.563   3.590   0.220  0.3414 -0.5119  0.2902
 4735TIP3    H114169   5.616   3.613   0.144  3.1665 -3.5584  1.1134
 4735TIP3    H214170   5.620   3.607   0.295 -1.5315  0.2181  1.6572
 4736TIP3   OH214171   3.977   0.271   2.977 -0.1539  0.5105 -0.3574
 4736TIP3    H114172   3.946   0.310   3.059  1.0900 -1.7781  1.3046
 4736TIP3    H214173   3.902   0.220   2.945  0.2523 -1.0560  1.0501
 4737TIP3   OH214174   5.930   1.098   4.687 -0.3216  0.1351 -0.1287
 4737TIP3    H114175   5.979   1.033   4.637 -0.1275 -0.2466  0.5545
 4737TIP3    H214176   5.900   1.161   4.621 -0.2407 -0.4696 -0.7522
 4738TIP3   OH214177   3.430   1.226   5.451 -0.1240 -0.6786  0.2643
 4738TIP3    H114178   3.417   1.148   5.505 -0.0850 -0.5066  0.5252
 4738TIP3    H214179   3.351   1.232   5.398  0.4876 -1.7203 -0.8169
 4739TIP3   OH214180   4.454   1.704   0.228  0.4141 -0.0366  0.3929
 4739TIP3    H114181   4.538   1.702   0.274  1.0761  0.0249 -0.7747
 4739TIP3    H214182   4.474   1.748   0.145 -0.5317 -0.9999 -0.3629
 4740TIP3   OH214183   0.622   2.582   1.602 -0.0848  0.0321 -0.1007
 4740TIP3    H114184   0.696   2.537   1.561 -0.2104 -0.0659 -0.2202
 4740TIP3    H214185   0.621   2.669   1.561  1.0552  0.6789  1.1740
 4741TIP3   OH214186   1.634   1.017   3.025 -0.5578 -0.0225  0.6996
 4741TIP3    H114187   1.716   1.000   3.072 -0.2356 -0.4563 -0.0094
 4741TIP3    H214188   1.635   0.955   2.952 -0.8882  0.8775 -0.0844
 4742TIP3   OH214189   0.118   0.477   2.643 -0.6869 -0.0431  0.2570
 4742TIP3    H114190   0.145   0.540   2.576 -1.4176 -1.3954 -1.3893
 4742TIP3    H214191   0.070   0.530   2.707  3.8595  2.1106  2.3022
 4743TIP3   OH214192   6.183   5.716   1.567 -0.4435 -0.0335  0.0045
 4743TIP3    H114193   6.206   5.642   1.511 -1.8700 -2.1590  2.0114
 4743TIP3    H214194   6.263   5.737   1.614 -0.2466 -1.0381  0.1434
 4744TIP3   OH214195   3.619   3.536   3.834 -0.2753  0.5702  0.3352
 4744TIP3    H114196   3.566   3.504   3.761 -0.6430  2.6227 -0.3764
 4744TIP3    H214197   3.556   3.548   3.905  0.4145 -3.6517  1.9448
 4745TIP3   OH214198   6.176   6.308   1.833  0.1302 -0.8657  0.2186
 4745TIP3    H114199   6.105   6.293   1.770  0.0841  0.3389 -0.0367
 4745TIP3    H214200   6.249   6.340   1.781 -0.0088  0.4586  0.7796
 4746TIP3   OH214201   4.513   6.479   2.635 -0.6429  0.0109 -0.3675
 4746TIP3    H114202   4.466   6.455   2.555  0.7455  1.6487 -1.7384
 4746TIP3    H214203   4.446   6.476   2.704 -1.7146 -2.1253 -1.4084
 4747TIP3   OH214204   2.359   4.899   0.922  0.1776  0.3233  0.2108
 4747TIP3    H114205   2.296   4.850   0.974  0.0791 -2.1028 -1.9913
 4747TIP3    H214206   2.310   4.927   0.845  0.9561  1.4730  0.1104
 4748TIP3   OH214207   4.265   0.063   1.579  0.1059 -0.1928  0.0803
 4748TIP3    H114208   4.217   0.119   1.640  1.5343  1.7653 -0.4736
 4748TIP3    H214209   4.347   0.044   1.625  0.7829  0.4833 -0.8228
 4749TIP3   OH214210   2.292   5.079   4.256  0.2409 -0.3591 -0.0578
 4749TIP3    H114211   2.224   5.012   4.264  0.2182 -0.3791 -0.3846
 4749TIP3    H214212   2.274   5.121   4.171  0.1791  0.1454  0.2029
 4750TIP3   OH214213   4.728   2.470   3.164 -0.3206 -1.1108 -0.0544
 4750TIP3    H114214   4.670   2.410   3.117 -0.8385 -0.4324 -0.2869
 4750TIP3    H214215   4.796   2.413   3.202 -1.0234 -1.8848  0.0598
 4751TIP3   OH214216   5.505   2.120   0.660  0.3064 -0.3334 -0.2402
 4751TIP3    H114217   5.589   2.117   0.615  0.2756  0.0157 -0.3239
 4751TIP3    H214218   5.521   2.078   0.744  1.1706  1.7735  0.7241
 4752TIP3   OH214219   2.495   4.561   1.175 -0.0229  0.5542  0.0126
 4752TIP3    H114220   2.562   4.535   1.238  0.1857  1.9843  0.4225
 4752TIP3    H214221   2.485   4.655   1.188  0.2598  0.9705 -2.3025
 4753TIP3   OH214222   0.673   1.050   4.398 -0.4981 -0.7404 -0.4794
 4753TIP3    H114223   0.629   1.000   4.467 -2.1466 -0.3881 -1.2311
 4753TIP3    H214224   0.764   1.020   4.401 -0.8629 -1.8170  0.8477
 4754TIP3   OH214225   6.807   6.137   3.885  0.6511  0.3367  0.8208
 4754TIP3    H114226   6.841   6.225   3.870 -0.9191  0.8038 -0.1798
 4754TIP3    H214227   6.722   6.136   3.842 -0.1645 -1.1162  2.3469
 4755TIP3   OH214228   1.700   0.659   2.844  0.0474  0.2447 -0.3935
 4755TIP3    H114229   1.741   0.575   2.821 -0.8275 -0.5699  0.8875
 4755TIP3    H214230   1.729   0.676   2.933 -1.1997  0.4003 -0.0073
 4756TIP3   OH214231   3.890   0.533   4.022  0.0826  0.2147 -0.2465
 4756TIP3    H114232   3.979   0.500   4.032  1.4146  3.7944  1.6656
 4756TIP3    H214233   3.881   0.554   3.929  2.1361  1.8366 -0.1371
 4757TIP3   OH214234   6.325   4.570   0.015 -0.0303 -0.3870  0.1966
 4757TIP3    H114235   6.375   4.488   0.012 -0.9295 -0.9724  0.5871
 4757TIP3    H214236   6.239   4.543   0.047 -0.2469  0.7618  0.6031
 4758TIP3   OH214237   6.953   5.652   1.941  0.6242 -0.7978 -0.0078
 4758TIP3    H114238   6.911   5.624   2.022  1.2218 -0.6448  0.3595
 4758TIP3    H214239   6.975   5.570   1.896  1.4672 -0.9132  0.5988
 4759TIP3   OH214240   2.601   4.933   2.698 -0.2702 -0.6255  0.4930
 4759TIP3    H114241   2.536   4.978   2.752  2.0965  0.8643  2.2484
 4759TIP3    H214242   2.564   4.936   2.610 -3.0199 -0.7523  1.5433
 4760TIP3   OH214243   5.577   6.601   4.340  0.4827 -0.4108 -0.0082
 4760TIP3    H114244   5.551   6.514   4.369 -0.5144 -0.6110 -1.3764
 4760TIP3    H214245   5.660   6.618   4.384  0.3983 -1.7942  0.7395
 4761TIP3   OH214246   4.301   0.585   4.515 -0.2062  0.2095  0.2539
 4761TIP3    H114247   4.321   0.503   4.561 -0.6911 -0.7644 -1.2192
 4761TIP3    H214248   4.387   0.619   4.490 -0.0328 -0.1895  0.2977
 4762TIP3   OH214249   0.251   1.687   1.174 -0.0536 -0.2295  0.0350
 4762TIP3    H114250   0.174   1.643   1.210 -1.0411  0.4360 -1.1561
 4762TIP3    H214251   0.303   1.616   1.135 -0.4121 -0.6031  0.2282
 4763TIP3   OH214252   3.572   0.793   4.216 -0.1388 -0.4073 -0.8104
 4763TIP3    H114253   3.655   0.772   4.260 -0.3524 -0.0101 -0.1981
 4763TIP3    H214254   3.596   0.804   4.124  0.7084  0.8370 -0.4801
 4764TIP3   OH214255   6.428   1.637   4.247  0.7827 -0.2937 -0.1091
 4764TIP3    H114256   6.371   1.711   4.228  1.0430  0.2116  1.0167
 4764TIP3    H214257   6.512   1.661   4.208  0.1393 -1.2737 -2.2430
 4765TIP3   OH214258   5.689   6.725   4.915 -0.0426  0.2887  0.3427
 4765TIP3    H114259   5.680   6.642   4.961 -1.4463  0.2709  0.0974
 4765TIP3    H214260   5.735   6.702   4.834  1.2631  0.0991  1.1110
 4766TIP3   OH214261   6.507   2.093   1.231 -0.4128  0.2139  0.1143
 4766TIP3    H114262   6.592   2.058   1.205 -0.5447  0.1135 -0.1890
 4766TIP3    H214263   6.518   2.188   1.224 -0.3891  0.1941 -0.1347
 4767TIP3   OH214264   2.251   0.877   0.841 -0.7572 -0.8327 -0.2527
 4767TIP3    H114265   2.174   0.929   0.863 -0.7797 -0.6730 -0.6986
 4767TIP3    H214266   2.293   0.924   0.770  1.7064  1.0126  2.1918
 4768TIP3   OH214267   6.021   4.575   1.316  0.1199 -0.2368  0.1097
 4768TIP3    H114268   5.927   4.572   1.331 -0.4114  0.9251 -2.4585
 4768TIP3    H214269   6.053   4.489   1.342 -1.4544 -0.3070  1.9869
 4769TIP3   OH214270   3.280   4.825   5.515  0.1054  0.1727  0.2920
 4769TIP3    H114271   3.246   4.899   5.565 -0.8217  0.4751 -0.7486
 4769TIP3    H214272   3.209   4.801   5.456  0.9478 -0.5655 -0.4524
 4770TIP3   OH214273   0.711   1.400   0.628  0.1103 -0.0397 -0.2228
 4770TIP3    H114274   0.670   1.318   0.653 -0.5928  0.1467 -0.7145
 4770TIP3    H214275   0.643   1.447   0.579  0.3112  1.0661  0.5092
 4771TIP3   OH214276   3.860   2.174   1.111  0.1103 -0.7028 -0.1393
 4771TIP3    H114277   3.921   2.185   1.037  0.8105 -1.7393  0.2699
 4771TIP3    H214278   3.890   2.096   1.156 -0.7243 -0.4655  0.8707
 4772TIP3   OH214279   3.783   2.518   4.381  0.3006  0.5185  0.2011
 4772TIP3    H114280   3.867   2.549   4.415  0.4259 -0.0414  0.4006
 4772TIP3    H214281   3.806   2.449   4.319  0.0880  1.5926 -1.1549
 4773TIP3   OH214282   4.205   4.280   3.112 -0.1511 -0.2449 -0.2924
 4773TIP3    H114283   4.225   4.217   3.042  0.0137 -0.4206 -0.0859
 4773TIP3    H214284   4.205   4.365   3.068 -0.7179 -0.4175 -0.6443
 4774TIP3   OH214285   2.196   5.821   0.131 -0.2957 -0.3828  0.1757
 4774TIP3    H114286   2.112   5.775   0.128  0.1994 -1.2448 -1.0610
 4774TIP3    H214287   2.214   5.832   0.225 -0.5990 -2.4158  0.5220
 4775TIP3   OH214288   5.326   4.259   2.945  0.0582  0.0144  0.0142
 4775TIP3    H114289   5.373   4.291   2.867  1.4704 -1.1799  0.3309
 4775TIP3    H214290   5.396   4.232   3.005 -1.0207  0.2505  1.4267
 4776TIP3   OH214291   1.270   1.939   0.650 -0.7118 -0.7547  0.3098
 4776TIP3    H114292   1.223   2.015   0.686 -2.0352 -0.8976 -0.9870
 4776TIP3    H214293   1.203   1.891   0.601  0.1619 -2.6400  0.8822
 4777TIP3   OH214294   6.938   4.576   5.122  0.3926  0.2680 -0.0798
 4777TIP3    H114295   6.997   4.564   5.196  2.0615 -2.7435 -1.6903
 4777TIP3    H214296   6.978   4.647   5.071 -0.9036  2.5360  1.8485
 4778TIP3   OH214297   1.051   4.273   1.776  0.2797  0.1626  0.4551
 4778TIP3    H114298   1.022   4.189   1.741  0.1580  0.2100  0.4430
 4778TIP3    H214299   1.119   4.302   1.714  1.7829 -0.8782  1.5270
 4779TIP3   OH214300   5.887   6.178   3.869 -0.0319 -0.1878 -0.0661
 4779TIP3    H114301   5.883   6.250   3.932  0.9842  2.1641 -2.4780
 4779TIP3    H214302   5.796   6.151   3.857 -0.5568  1.3638  0.2340
 4780TIP3   OH214303   7.007   4.605   2.170  0.2941  0.0078 -0.6413
 4780TIP3    H114304   6.970   4.683   2.211  0.6300  0.2814 -0.8451
 4780TIP3    H214305   7.062   4.640   2.100 -0.0071 -0.4346 -1.1062
 4781TIP3   OH214306   7.136   4.744   2.558 -0.2619  0.1362  0.5645
 4781TIP3    H114307   7.119   4.733   2.652  0.1556  0.4212  0.6758
 4781TIP3    H214308   7.173   4.832   2.551  0.1563 -0.0675  0.1964
 4782TIP3   OH214309   2.226   2.592   2.098  0.1803  0.8481  0.5703
 4782TIP3    H114310   2.140   2.612   2.133  0.2661  0.1251  1.2145
 4782TIP3    H214311   2.212   2.585   2.003 -0.3308  1.3836  0.6008
 4783TIP3   OH214312   4.497   1.635   4.892 -0.1447 -0.2323  0.1669
 4783TIP3    H114313   4.502   1.561   4.831 -0.8370  0.3918 -0.6802
 4783TIP3    H214314   4.524   1.599   4.976  0.5097 -1.2036 -0.4373
 4784TIP3   OH214315   3.157   6.168   4.880  0.3859 -0.0568 -0.7350
 4784TIP3    H114316   3.221   6.217   4.932 -0.8849 -1.2613  2.1800
 4784TIP3    H214317   3.136   6.092   4.934 -1.5379 -1.0896 -2.7910
 4785TIP3   OH214318   6.537   0.935   4.477  0.0474 -0.3480  0.3550
 4785TIP3    H114319   6.575   1.010   4.431 -0.1865  0.1760  0.9935
 4785TIP3    H214320   6.595   0.862   4.456  0.1552 -0.0410 -0.4592
 4786TIP3   OH214321   3.884   5.125   3.538 -0.1362 -0.2568  0.3893
 4786TIP3    H114322   3.823   5.076   3.593 -2.5856  0.8513 -1.1361
 4786TIP3    H214323   3.837   5.137   3.456  2.1409  0.8190 -0.8464
 4787TIP3   OH214324   6.992   2.192   5.245  0.8581 -0.2475 -0.1155
 4787TIP3    H114325   7.065   2.253   5.248  0.6441  0.0065  0.0433
 4787TIP3    H214326   6.917   2.244   5.275  0.5933 -0.4726 -0.3838
 4788TIP3   OH214327   5.091   3.972   4.581 -0.0711 -0.3398 -0.4005
 4788TIP3    H114328   5.134   4.050   4.615 -0.4804 -0.9845  1.7557
 4788TIP3    H214329   5.102   3.906   4.650 -1.0917 -1.7141 -1.4811
 4789TIP3   OH214330   2.090   4.704   2.166 -0.6716 -0.2802 -0.0894
 4789TIP3    H114331   2.128   4.714   2.079 -2.1271 -1.2101 -0.8585
 4789TIP3    H214332   2.154   4.745   2.225  0.6437 -0.2203 -1.5121
 4790TIP3   OH214333   5.009   3.069   3.286 -0.2468 -0.1391  0.4977
 4790TIP3    H114334   5.047   3.028   3.209  1.3247 -0.3547  1.3635
 4790TIP3    H214335   5.040   3.017   3.360 -1.1918  0.4537  1.3463
 4791TIP3   OH214336   6.707   2.502   1.878  0.4481 -0.0515 -0.3284
 4791TIP3    H114337   6.656   2.579   1.852  0.9151  0.2734 -0.2887
 4791TIP3    H214338   6.643   2.444   1.919  0.2318  0.6493  0.3430
 4792TIP3   OH214339   5.460   0.247   3.926  0.0627  0.0072 -0.0800
 4792TIP3    H114340   5.410   0.328   3.915  1.6659  1.1993  1.0068
 4792TIP3    H214341   5.534   0.256   3.866  0.5601 -0.3820  0.4638
 4793TIP3   OH214342   3.460   2.849   2.967  0.2645 -0.1656 -0.1428
 4793TIP3    H114343   3.500   2.772   3.007 -1.6300 -0.5276  1.1907
 4793TIP3    H214344   3.457   2.914   3.037  1.1243  0.8552 -1.0356
 4794TIP3   OH214345   3.384   5.984   5.853  0.2843 -0.5913  0.2858
 4794TIP3    H114346   3.331   6.059   5.882 -2.1033 -2.3203  0.7199
 4794TIP3    H214347   3.454   5.978   5.918  1.6374  2.2545 -0.7439
 4795TIP3   OH214348   7.066   3.716   0.696 -0.6946  0.1613 -0.6067
 4795TIP3    H114349   7.030   3.771   0.766 -1.8603  0.4052 -1.3654
 4795TIP3    H214350   7.150   3.756   0.675  0.0309 -0.3457  1.1287
 4796TIP3   OH214351   6.309   1.955   0.829  0.4465  0.0492  0.1372
 4796TIP3    H114352   6.384   1.898   0.808 -1.5394 -2.2389 -1.2067
 4796TIP3    H214353   6.291   2.002   0.747 -0.5707 -0.6664 -0.0681
 4797TIP3   OH214354   0.328   4.669   4.145  0.0961  0.5541  0.0934
 4797TIP3    H114355   0.280   4.656   4.063 -3.1827  0.8625  1.7854
 4797TIP3    H214356   0.315   4.761   4.166  0.1806  0.3046  1.3177
 4798TIP3   OH214357   2.860   0.232   2.500  0.0313  0.5657  0.0570
 4798TIP3    H114358   2.932   0.173   2.525 -0.3286  0.0913 -0.0026
 4798TIP3    H214359   2.834   0.201   2.413  1.8878  2.7598 -1.4025
 4799TIP3   OH214360   2.521   6.302   4.073 -0.0832  0.0005 -0.1781
 4799TIP3    H114361   2.584   6.333   4.138 -0.7183  0.1369  0.3931
 4799TIP3    H214362   2.469   6.237   4.120 -0.4874  0.0349 -0.5738
 4800TIP3   OH214363   2.910   6.467   0.178 -0.0297  0.0379 -0.6229
 4800TIP3    H114364   2.955   6.430   0.253 -1.1592  0.2225  0.1695
 4800TIP3    H214365   2.911   6.398   0.112  2.4282  0.4341 -1.0984
 4801TIP3   OH214366   7.011   4.627   3.553  0.5414 -0.2961  0.3815
 4801TIP3    H114367   6.977   4.717   3.554  1.3219  0.0093  0.4233
 4801TIP3    H214368   6.934   4.572   3.569 -0.1364  0.2960 -0.6964
 4802TIP3   OH214369   5.134   4.521   4.199  0.0234 -0.0047  0.2497
 4802TIP3    H114370   5.094   4.542   4.284  2.2701  0.8810  1.1577
 4802TIP3    H214371   5.186   4.599   4.178  0.1577 -0.5534 -1.5683
 4803TIP3   OH214372   3.743   3.170   3.733 -0.9207 -0.2392 -0.3076
 4803TIP3    H114373   3.780   3.194   3.818  0.1531 -1.1607 -0.5023
 4803TIP3    H214374   3.649   3.186   3.743 -0.7623  0.0357  0.9133
 4804TIP3   OH214375   4.106   5.537   0.455 -0.9346 -0.0261  0.2099
 4804TIP3    H114376   4.089   5.606   0.390  0.3050 -0.3204 -0.4708
 4804TIP3    H214377   4.099   5.456   0.405  1.9212 -0.1924 -0.1006
 4805TIP3   OH214378   4.863   6.389   3.267 -0.4277 -0.0880  0.2889
 4805TIP3    H114379   4.790   6.328   3.259  0.3020 -0.7228 -2.7838
 4805TIP3    H214380   4.845   6.457   3.202  1.8424 -0.4772 -0.8391
 4806TIP3   OH214381   2.226   5.218   5.665 -0.0197  0.2213  0.9143
 4806TIP3    H114382   2.318   5.223   5.639  0.2266  0.0597  1.7193
 4806TIP3    H214383   2.194   5.308   5.656 -0.5068 -0.1485 -1.8306
 4807TIP3   OH214384   1.860   0.952   1.060  0.0713  0.2054  0.1657
 4807TIP3    H114385   1.841   1.028   1.005  0.9559  0.3635  0.0662
 4807TIP3    H214386   1.848   0.984   1.149 -2.7652 -0.4197  0.1135
 4808TIP3   OH214387   3.563   4.207   5.223  0.1216  0.2752 -0.3091
 4808TIP3    H114388   3.569   4.112   5.237  0.4481  0.3480  0.0825
 4808TIP3    H214389   3.606   4.245   5.300 -0.1446  0.7440 -0.3872
 4809TIP3   OH214390   5.582   5.883   3.199 -0.4019  0.1206  0.4514
 4809TIP3    H114391   5.594   5.951   3.133  0.9820 -0.6841 -0.1808
 4809TIP3    H214392   5.493   5.851   3.184 -0.9053  1.4445  0.4636
 4810TIP3   OH214393   0.903   1.410   2.843  0.1579 -0.0736  0.0756
 4810TIP3    H114394   0.891   1.405   2.749  0.0698  1.6549 -0.0496
 4810TIP3    H214395   0.978   1.469   2.854  0.5129 -0.6854  1.0766
 4811TIP3   OH214396   4.983   2.386   2.391 -0.1641  0.2724  0.0094
 4811TIP3    H114397   5.002   2.293   2.406  1.3518  0.4849 -0.4033
 4811TIP3    H214398   4.968   2.393   2.297 -0.0743  0.4774  0.0097
 4812TIP3   OH214399   5.542   3.687   3.270 -0.0790 -0.1019  0.4177
 4812TIP3    H114400   5.586   3.743   3.206 -0.9833  0.3211  0.1503
 4812TIP3    H214401   5.564   3.598   3.241 -1.8363  0.0219 -1.5444
 4813TIP3   OH214402   0.691   6.715   5.069  0.4924 -0.0297 -0.4309
 4813TIP3    H114403   0.723   6.767   4.996  1.2935  0.0794 -0.0107
 4813TIP3    H214404   0.746   6.637   5.069  0.2303 -0.2176 -0.1874
 4814TIP3   OH214405   2.585   1.651   2.213 -0.5582 -0.0335 -0.2954
 4814TIP3    H114406   2.545   1.709   2.148 -0.2006 -1.3191 -1.7349
 4814TIP3    H214407   2.512   1.601   2.249 -0.7704  0.7491  0.3699
 4815TIP3   OH214408   6.540   1.452   2.305  0.3282  0.0981 -0.2792
 4815TIP3    H114409   6.453   1.416   2.319 -0.0991  0.9131 -0.7730
 4815TIP3    H214410   6.580   1.452   2.392 -0.6437  0.9292  0.1846
 4816TIP3   OH214411   3.571   6.499   5.572 -0.0971  0.1958  0.0997
 4816TIP3    H114412   3.552   6.406   5.561  2.1345 -0.1559 -1.5478
 4816TIP3    H214413   3.503   6.543   5.519 -1.0508 -0.4746  0.7351
 4817TIP3   OH214414   4.000   2.394   2.241 -0.1462  0.4647  0.5357
 4817TIP3    H114415   4.031   2.342   2.167 -0.6906  0.2813  0.4348
 4817TIP3    H214416   3.924   2.442   2.207 -1.2177 -0.6216  1.3237
 4818TIP3   OH214417   3.261   6.525   1.167 -0.6633  0.0431  0.2034
 4818TIP3    H114418   3.190   6.479   1.121 -0.7415 -0.2472  0.6042
 4818TIP3    H214419   3.216   6.588   1.222 -0.5984  0.0186  0.2844
 4819TIP3   OH214420   6.235   2.453   3.438 -0.1833  0.1095 -0.1182
 4819TIP3    H114421   6.226   2.533   3.385 -2.8964  0.6078  0.9415
 4819TIP3    H214422   6.280   2.482   3.517 -2.2157  0.9676  0.8041
 4820TIP3   OH214423   7.189   6.296   4.542 -0.4947 -0.3179 -0.0761
 4820TIP3    H114424   7.132   6.219   4.547 -0.7874 -0.0466  1.1883
 4820TIP3    H214425   7.204   6.320   4.633  0.3901  0.5442 -0.4374
 4821TIP3   OH214426   7.162   2.754   0.233 -0.0191 -0.1226  0.2451
 4821TIP3    H114427   7.232   2.817   0.248  1.4027 -1.2700 -1.1861
 4821TIP3    H214428   7.118   2.785   0.154  0.2545 -0.5362 -0.0759
 4822TIP3   OH214429   5.393   1.552   3.426 -0.1015 -0.9761  0.0340
 4822TIP3    H114430   5.335   1.621   3.395 -0.7741 -1.6948 -0.3535
 4822TIP3    H214431   5.355   1.471   3.391  0.8840 -1.5069  0.1513
 4823TIP3   OH214432   0.832   6.465   3.777  0.1366 -0.3783 -0.2422
 4823TIP3    H114433   0.775   6.457   3.701 -0.5766 -2.1361  0.4236
 4823TIP3    H214434   0.901   6.401   3.762  0.5292 -0.0583  0.1531
 4824TIP3   OH214435   4.371   3.623   0.024 -0.0181  0.2256 -0.4001
 4824TIP3    H114436   4.326   3.541   0.047  1.4820 -0.4707  0.1720
 4824TIP3    H214437   4.453   3.619   0.072  0.4613  1.6889 -1.0558
 4825TIP3   OH214438   5.754   4.870   0.287  0.2145  0.3011  0.2198
 4825TIP3    H114439   5.729   4.786   0.323  1.0123 -0.0144  0.0494
 4825TIP3    H214440   5.703   4.934   0.337  0.9404 -0.1469  1.5789
 4826TIP3   OH214441   0.518   1.872   2.272  0.4170  0.0567  0.1805
 4826TIP3    H114442   0.533   1.959   2.307  2.3137 -0.9426  2.0993
 4826TIP3    H214443   0.436   1.879   2.222  0.0800  2.6834  0.9840
 4827TIP3   OH214444   1.415   4.479   1.892  0.1064  0.2470  0.0643
 4827TIP3    H114445   1.388   4.389   1.876  0.1067  0.4166 -0.9950
 4827TIP3    H214446   1.335   4.525   1.918 -1.1026  1.0023 -4.1029
 4828TIP3   OH214447   4.133   1.251   3.810 -0.0928  0.0520 -0.3847
 4828TIP3    H114448   4.106   1.335   3.846 -0.2645  0.9981 -2.5395
 4828TIP3    H214449   4.115   1.259   3.716  2.7719 -1.1992 -1.1466
 4829TIP3   OH214450   3.520   6.125   2.532 -0.2223 -0.8064  0.1518
 4829TIP3    H114451   3.594   6.066   2.541  0.7450  0.2944 -0.3279
 4829TIP3    H214452   3.520   6.177   2.612  1.5754  1.4063 -1.1602
 4830TIP3   OH214453   6.905   3.849   0.869  0.3752  0.4356 -0.0337
 4830TIP3    H114454   6.810   3.836   0.875  0.0942  2.0640 -0.5834
 4830TIP3    H214455   6.933   3.868   0.959 -0.1007  1.5947 -0.1153
 4831TIP3   OH214456   3.049   2.113   1.825  0.2823  0.0026  0.2097
 4831TIP3    H114457   3.082   2.176   1.889 -1.2580  1.5933 -0.4821
 4831TIP3    H214458   3.067   2.154   1.740 -1.0610 -0.3033 -0.2454
 4832TIP3   OH214459   5.224   4.631   3.669 -0.4422 -0.3194 -0.2211
 4832TIP3    H114460   5.164   4.568   3.630 -1.0939 -0.0769  0.3713
 4832TIP3    H214461   5.172   4.676   3.736  0.8864 -1.4747  1.6977
 4833TIP3   OH214462   0.804   0.512   2.760  0.1767 -0.1650  0.5907
 4833TIP3    H114463   0.800   0.457   2.682  0.4707 -1.8084  1.6879
 4833TIP3    H214464   0.735   0.578   2.747  0.9434  0.3027 -1.5257
 4834TIP3   OH214465   2.722   6.063   1.450  0.8736 -0.2683 -0.3734
 4834TIP3    H114466   2.776   6.114   1.510  1.9798 -1.2118 -0.5278
 4834TIP3    H214467   2.718   5.976   1.489 -0.4689 -0.2516 -0.4297
 4835TIP3   OH214468   1.991   2.911   0.266  0.6397  0.1118  0.0437
 4835TIP3    H114469   2.053   2.943   0.200  2.2097 -2.1558  0.3389
 4835TIP3    H214470   2.039   2.916   0.348 -0.5496  0.8382  0.7265
 4836TIP3   OH214471   1.181   6.170   5.037 -0.3208 -0.4754  0.0367
 4836TIP3    H114472   1.208   6.140   4.950  1.0800 -0.5989  0.4854
 4836TIP3    H214473   1.087   6.154   5.040 -0.5396  0.1856 -1.7161
 4837TIP3   OH214474   6.751   6.247   1.895  0.2036  0.4041 -0.1289
 4837TIP3    H114475   6.809   6.322   1.885 -1.0827  1.3587 -0.8270
 4837TIP3    H214476   6.757   6.201   1.812 -0.3032  0.7367 -0.3621
 4838TIP3   OH214477   5.253   3.288   4.676  0.4811  0.0607 -0.0612
 4838TIP3    H114478   5.225   3.376   4.651  1.6050  0.2115 -0.8501
 4838TIP3    H214479   5.327   3.302   4.735  1.2668 -0.3356 -0.9196
 4839TIP3   OH214480   0.074   1.112   5.821 -0.0952 -0.5167 -0.4317
 4839TIP3    H114481   0.036   1.162   5.749 -0.0688 -0.4405 -0.3928
 4839TIP3    H214482   0.163   1.094   5.793 -0.8325 -2.7269 -1.5801
 4840TIP3   OH214483   2.250   3.252   1.103  0.5657  0.3214  0.2166
 4840TIP3    H114484   2.239   3.336   1.148  0.6212  0.4966 -0.0972
 4840TIP3    H214485   2.163   3.212   1.107  0.8444 -0.2126  1.5536
 4841TIP3   OH214486   5.403   5.896   1.303 -0.4944  0.7482  0.3330
 4841TIP3    H114487   5.351   5.904   1.223 -0.6685  1.1527  0.4800
 4841TIP3    H214488   5.490   5.926   1.277 -0.0672 -0.8382 -0.1554
 4842TIP3   OH214489   0.650   0.744   4.370 -0.7136 -0.5691 -0.8501
 4842TIP3    H114490   0.741   0.725   4.348 -0.7681 -1.1986 -0.5473
 4842TIP3    H214491   0.626   0.678   4.435 -1.4968 -0.6303 -1.1855
 4843TIP3   OH214492   7.145   0.781   3.845  0.1600  0.2258 -0.5164
 4843TIP3    H114493   7.211   0.777   3.914 -0.1929  1.4643 -0.0868
 4843TIP3    H214494   7.112   0.691   3.838 -0.8160  0.3070  1.9496
 4844TIP3   OH214495   4.742   2.557   2.502 -0.1082 -0.1247 -0.3625
 4844TIP3    H114496   4.794   2.485   2.465 -0.3483 -1.2372  1.3253
 4844TIP3    H214497   4.772   2.635   2.455  1.0707 -1.1407 -1.3758
 4845TIP3   OH214498   2.598   1.235   1.252 -0.3245  0.4584  0.2811
 4845TIP3    H114499   2.561   1.291   1.320 -2.2054  1.9049 -1.7586
 4845TIP3    H214500   2.689   1.221   1.278 -0.7862  1.4708  2.6898
 4846TIP3   OH214501   5.532   3.294   4.195 -0.2522 -0.6237 -0.0326
 4846TIP3    H114502   5.618   3.286   4.235  0.6438  1.9443 -1.2157
 4846TIP3    H214503   5.481   3.344   4.258 -0.5448 -1.1717  0.1729
 4847TIP3   OH214504   2.209   5.631   1.584 -0.4620  0.1226  0.2861
 4847TIP3    H114505   2.158   5.668   1.513 -0.4975 -1.1888 -0.3969
 4847TIP3    H214506   2.255   5.557   1.545 -0.4133 -0.5705  1.6066
 4848TIP3   OH214507   4.691   2.057   0.187 -0.3512  0.1654  0.2504
 4848TIP3    H114508   4.718   2.003   0.113 -2.2059 -0.3273 -0.1267
 4848TIP3    H214509   4.734   2.017   0.263  1.8938  0.9126 -0.5486
 4849TIP3   OH214510   2.277   0.458   2.158  0.0031  0.2106 -0.2244
 4849TIP3    H114511   2.201   0.511   2.180 -1.6602 -1.4358 -1.5818
 4849TIP3    H214512   2.273   0.383   2.217  1.0519  0.4755  0.2120
 4850TIP3   OH214513   4.050   2.620   4.393  0.3708  0.1776  0.3087
 4850TIP3    H114514   4.054   2.675   4.471  0.4863 -1.1394  1.2676
 4850TIP3    H214515   4.009   2.675   4.326 -0.7036  1.0023  1.6042
 4851TIP3   OH214516   3.153   4.516   3.785 -1.0516  0.8485  0.4074
 4851TIP3    H114517   3.220   4.557   3.730 -0.5174  1.9444  1.7963
 4851TIP3    H214518   3.126   4.438   3.737  0.5650  0.8816 -0.6182
 4852TIP3   OH214519   5.252   2.208   3.674  0.1137 -0.0366 -1.2235
 4852TIP3    H114520   5.343   2.217   3.646  0.0565 -0.6302 -1.6374
 4852TIP3    H214521   5.225   2.296   3.699  0.8626  0.1127 -0.9027
 4853TIP3   OH214522   6.514   2.746   5.216 -0.5876 -0.0115  0.1669
 4853TIP3    H114523   6.591   2.693   5.235 -1.3442 -0.5580  1.9078
 4853TIP3    H214524   6.548   2.834   5.201  0.4869 -0.5347 -0.5649
 4854TIP3   OH214525   6.341   1.473   2.021  0.0613 -0.0331  0.1095
 4854TIP3    H114526   6.350   1.567   2.035 -1.7682  0.6094 -2.2706
 4854TIP3    H214527   6.284   1.443   2.092  0.6020  0.6598  0.8472
 4855TIP3   OH214528   2.255   4.785   2.370 -0.1564  0.0282  1.0828
 4855TIP3    H114529   2.333   4.818   2.413  0.0414 -0.0636  0.7943
 4855TIP3    H214530   2.217   4.723   2.433  0.1417 -0.1172  1.1176
 4856TIP3   OH214531   5.383   6.469   3.237 -0.3370  0.2441  0.0249
 4856TIP3    H114532   5.411   6.500   3.323  0.6010 -1.2610  0.3060
 4856TIP3    H214533   5.338   6.386   3.254 -0.1103 -0.0920 -0.9244
 4857TIP3   OH214534   5.845   5.529   2.538  0.4689 -0.2870 -0.2659
 4857TIP3    H114535   5.859   5.592   2.468  1.2309  0.0110  0.1465
 4857TIP3    H214536   5.756   5.547   2.569  0.6466  0.5293 -0.2115
 4858TIP3   OH214537   0.106   1.732   1.733  0.2299  0.1880  0.0087
 4858TIP3    H114538   0.147   1.778   1.660 -0.4567  0.2890 -0.3109
 4858TIP3    H214539   0.091   1.800   1.799  0.8195  0.1021  0.2458
 4859TIP3   OH214540   1.986   3.569   2.643  0.1601 -0.0197 -0.1422
 4859TIP3    H114541   1.899   3.596   2.672 -0.0422  0.9043 -1.5138
 4859TIP3    H214542   1.984   3.581   2.548  1.4044 -1.1184 -0.3318
 4860TIP3   OH214543   3.979   5.000   1.609 -0.3740 -0.2909 -0.2280
 4860TIP3    H114544   3.990   4.967   1.520  1.7109 -0.1371 -0.0662
 4860TIP3    H214545   4.033   4.943   1.664  1.5570  1.9309  0.3565
 4861TIP3   OH214546   3.752   5.593   2.758  0.0326  0.2712 -0.0295
 4861TIP3    H114547   3.779   5.502   2.741 -1.0811 -0.2259  0.7117
 4861TIP3    H214548   3.662   5.585   2.790 -0.2586  1.6903 -0.4327
 4862TIP3   OH214549   4.716   3.090   3.017  0.0867 -0.0129  0.3431
 4862TIP3    H114550   4.675   3.024   2.962  0.1681  0.4402 -0.2741
 4862TIP3    H214551   4.645   3.125   3.072  0.4423 -2.1920  2.3448
 4863TIP3   OH214552   1.176   2.240   4.706 -0.1803  0.3573  0.1144
 4863TIP3    H114553   1.141   2.311   4.653 -1.1059  0.6012  1.0315
 4863TIP3    H214554   1.265   2.269   4.727 -0.1212  0.6737 -0.5346
 4864TIP3   OH214555   6.866   2.666   0.234 -0.0037 -0.2494 -0.2725
 4864TIP3    H114556   6.879   2.599   0.302  0.5102 -0.5929 -0.7040
 4864TIP3    H214557   6.954   2.690   0.207 -0.1083  1.5205  0.7425
 4865TIP3   OH214558   3.571   1.926   3.309 -0.5058  0.5677  0.2223
 4865TIP3    H114559   3.537   1.927   3.220 -1.3606 -0.7261  0.5044
 4865TIP3    H214560   3.503   1.967   3.361 -0.4247  0.4666  0.4083
 4866TIP3   OH214561   1.149   0.698   3.138  0.4730 -0.3125 -0.3286
 4866TIP3    H114562   1.100   0.736   3.065 -0.3914 -0.6770  0.0407
 4866TIP3    H214563   1.109   0.611   3.150 -0.2919  0.2394  1.4039
 4867TIP3   OH214564   6.175   2.399   4.404  0.0299 -0.1255  0.5117
 4867TIP3    H114565   6.235   2.358   4.466  0.8218  1.1364  0.6267
 4867TIP3    H214566   6.229   2.463   4.357 -1.2669  1.2744  0.8243
 4868TIP3   OH214567   0.891   2.961   5.260 -0.0189 -0.1427 -0.0698
 4868TIP3    H114568   0.842   2.937   5.338  2.7884 -0.3339  1.7510
 4868TIP3    H214569   0.907   2.878   5.215 -2.5916  0.0770 -1.5678
 4869TIP3   OH214570   6.748   3.634   5.064 -0.7377  0.1764  0.5431
 4869TIP3    H114571   6.657   3.663   5.066 -0.8933 -0.2397 -0.2984
 4869TIP3    H214572   6.789   3.688   4.998 -0.2984  0.5461  1.1069
 4870TIP3   OH214573   6.814   3.171   3.730 -0.1351  0.0255 -0.0071
 4870TIP3    H114574   6.786   3.235   3.795 -0.3327  0.3195 -0.3733
 4870TIP3    H214575   6.780   3.087   3.762 -1.6068  0.3884 -0.5176
 4871TIP3   OH214576   6.070   5.911   4.369 -0.1895 -0.0115  0.5638
 4871TIP3    H114577   6.072   5.990   4.316  0.3058 -0.1294  0.4009
 4871TIP3    H214578   5.981   5.878   4.360 -0.6530  0.9760  1.3049
 4872TIP3   OH214579   1.221   1.074   4.518 -0.1751 -0.3969  0.0164
 4872TIP3    H114580   1.197   1.157   4.558 -1.1663 -0.7352  0.1468
 4872TIP3    H214581   1.308   1.089   4.481  0.0560  0.4093  0.8574
 4873TIP3   OH214582   1.990   5.520   4.368  0.0301  0.2300  0.0645
 4873TIP3    H114583   2.074   5.509   4.411  0.6062  0.7742 -0.8933
 4873TIP3    H214584   2.001   5.596   4.312 -0.3163 -1.1217 -1.9473
 4874TIP3   OH214585   4.209   2.658   1.819 -0.5082 -0.5855  0.2802
 4874TIP3    H114586   4.236   2.653   1.911  1.0447 -0.4924 -0.1394
 4874TIP3    H214587   4.291   2.668   1.770 -1.4578  1.8919 -0.9602
 4875TIP3   OH214588   1.922   4.193   5.266  0.3660  0.2124 -0.0750
 4875TIP3    H114589   1.828   4.198   5.284  0.0494  0.0619 -1.5883
 4875TIP3    H214590   1.963   4.214   5.350 -0.9561 -3.6525  1.7809
 4876TIP3   OH214591   3.351   1.307   0.836 -0.1101 -0.0507 -0.6530
 4876TIP3    H114592   3.265   1.348   0.846 -0.3669  0.8464 -4.8384
 4876TIP3    H214593   3.334   1.213   0.846 -1.3474  0.1851 -0.3499
 4877TIP3   OH214594   5.697   2.920   4.499 -0.4806  0.0845  0.0878
 4877TIP3    H114595   5.668   2.890   4.413  0.3707 -0.7734  0.0841
 4877TIP3    H214596   5.663   3.009   4.506  0.4957  0.6345 -1.6619
 4878TIP3   OH214597   6.436   6.572   1.380 -0.2015  0.1588 -0.2406
 4878TIP3    H114598   6.435   6.657   1.337  0.1460  0.7296  0.8379
 4878TIP3    H214599   6.382   6.583   1.459  0.5624 -0.3419  0.3771
 4879TIP3   OH214600   6.246   3.729   1.902  1.0311 -0.5813  0.1750
 4879TIP3    H114601   6.275   3.701   1.989  0.2728  3.6349  2.0306
 4879TIP3    H214602   6.164   3.682   1.887  2.2137 -2.9378  0.7153
 4880TIP3   OH214603   3.232   5.854   4.357 -0.0198 -0.1825  0.2912
 4880TIP3    H114604   3.184   5.925   4.314  1.4901 -0.1986 -1.5166
 4880TIP3    H214605   3.266   5.895   4.437 -1.5449  0.2942  0.7403
 4881TIP3   OH214606   4.593   3.456   1.518 -0.4054  0.0954 -0.4423
 4881TIP3    H114607   4.669   3.506   1.489  0.0778  0.3962  1.2098
 4881TIP3    H214608   4.543   3.438   1.439  1.0901  0.3975 -1.4867
 4882TIP3   OH214609   2.407   0.724   2.113  0.0856 -0.0976  0.3907
 4882TIP3    H114610   2.401   0.629   2.112 -0.3402 -0.0644 -0.2325
 4882TIP3    H214611   2.420   0.746   2.206 -2.3542 -0.6134  0.9100
 4883TIP3   OH214612   4.847   3.777   5.689  0.6165 -0.2188 -0.1169
 4883TIP3    H114613   4.768   3.808   5.734  0.2641 -0.8523 -0.2943
 4883TIP3    H214614   4.898   3.735   5.757  0.2294 -0.8964 -0.2377
 4884TIP3   OH214615   3.396   0.142   2.200 -0.2255 -1.0651  0.5840
 4884TIP3    H114616   3.317   0.193   2.215  1.4985  2.0741 -0.1356
 4884TIP3    H214617   3.443   0.143   2.283  0.4201 -0.2812  0.2268
 4885TIP3   OH214618   5.687   5.883   2.555 -0.4144  0.6487  0.5483
 4885TIP3    H114619   5.733   5.881   2.471 -2.2278  0.1861 -0.4924
 4885TIP3    H214620   5.718   5.963   2.598  0.6398  0.8246 -0.4980
 4886TIP3   OH214621   1.827   4.544   1.934 -0.4702 -1.0797 -0.2666
 4886TIP3    H114622   1.895   4.592   1.888 -2.6538  3.4971  0.6634
 4886TIP3    H214623   1.874   4.480   1.987  3.2234  1.8577  0.4482
 4887TIP3   OH214624   2.089   1.282   3.843  0.1946  0.4161 -0.7311
 4887TIP3    H114625   2.181   1.259   3.854  0.3756  1.4540  0.0080
 4887TIP3    H214626   2.055   1.290   3.932 -1.4319 -2.9741 -0.9039
 4888TIP3   OH214627   5.681   6.545   3.239  0.0795  0.2991 -0.1734
 4888TIP3    H114628   5.749   6.496   3.285 -0.5144  1.2022  1.7590
 4888TIP3    H214629   5.599   6.514   3.277 -0.3382  2.3777  0.7708
 4889TIP3   OH214630   5.019   3.503   3.403 -0.2433  0.0938  0.0083
 4889TIP3    H114631   5.018   3.482   3.496  1.3251 -0.6790 -0.1063
 4889TIP3    H214632   4.933   3.541   3.385 -1.3332 -1.6180  1.3376
 4890TIP3   OH214633   6.826   4.428   4.087  0.1297  0.5219  0.3140
 4890TIP3    H114634   6.811   4.443   4.180 -0.4931 -0.7466  0.4435
 4890TIP3    H214635   6.857   4.337   4.082 -0.1508  0.4669 -0.7396
 4891TIP3   OH214636   0.387   0.343   3.886  0.3176 -0.1237  0.2148
 4891TIP3    H114637   0.419   0.429   3.910 -0.1447  0.0581  0.2010
 4891TIP3    H214638   0.309   0.330   3.941  0.2275 -0.4161  0.0220
 4892TIP3   OH214639   1.898   5.979   2.326  0.0004  0.0850  0.2598
 4892TIP3    H114640   1.993   5.968   2.332 -0.1630 -0.5530  2.3375
 4892TIP3    H214641   1.880   5.977   2.232  2.0939  0.8226 -0.2233
 4893TIP3   OH214642   1.532   5.364   0.166 -0.0315  0.4425 -0.2077
 4893TIP3    H114643   1.599   5.302   0.137 -1.4558 -0.6152 -1.3753
 4893TIP3    H214644   1.470   5.369   0.093 -0.6330  2.2834  0.3774
 4894TIP3   OH214645   3.276   3.608   1.968 -0.3021  0.0040  0.2274
 4894TIP3    H114646   3.265   3.700   1.989 -0.9782 -0.0799  0.2860
 4894TIP3    H214647   3.199   3.565   2.007 -1.3435 -0.2238 -1.8989
 4895TIP3   OH214648   1.893   6.594   1.127 -0.3450 -0.3828 -0.2020
 4895TIP3    H114649   1.887   6.575   1.033 -0.1566  2.7518 -0.9689
 4895TIP3    H214650   1.831   6.666   1.140 -1.2093 -1.4836  2.3721
 4896TIP3   OH214651   5.427   4.692   0.180 -0.5800  0.3785 -0.1660
 4896TIP3    H114652   5.449   4.761   0.118 -2.5982 -0.0765 -1.4889
 4896TIP3    H214653   5.369   4.735   0.244 -1.1859  0.1130 -0.5278
 4897TIP3   OH214654   6.481   2.431   4.986  0.0570 -0.3520 -0.0234
 4897TIP3    H114655   6.424   2.424   5.063 -1.5306  3.0719 -0.6923
 4897TIP3    H214656   6.546   2.497   5.010 -1.4860  2.0781 -2.0171
 4898TIP3   OH214657   5.626   4.537   5.838  0.1989  0.2059  0.4191
 4898TIP3    H114658   5.534   4.563   5.838  0.1619  0.2192 -1.4971
 4898TIP3    H214659   5.655   4.551   5.928 -1.4176  1.1124  0.8336
 4899TIP3   OH214660   4.381   4.234   4.128 -0.4231  0.0495 -0.1707
 4899TIP3    H114661   4.306   4.208   4.075  0.4237 -0.5848 -1.1035
 4899TIP3    H214662   4.455   4.186   4.090  0.8116  2.0928 -0.4717
 4900TIP3   OH214663   6.376   4.187   5.174  0.0682  0.0027 -0.3963
 4900TIP3    H114664   6.384   4.273   5.132 -0.9022  0.9743  1.3301
 4900TIP3    H214665   6.409   4.199   5.263  2.8957 -2.2312 -0.9629
 4901TIP3   OH214666   4.453   4.964   0.276 -0.0572 -0.4389 -0.1566
 4901TIP3    H114667   4.487   4.875   0.282  1.8556  0.2715  0.6409
 4901TIP3    H214668   4.441   4.991   0.367  0.9839  0.6494 -0.3187
 4902TIP3   OH214669   6.431   3.741   3.175  0.3959 -0.6270 -0.2083
 4902TIP3    H114670   6.403   3.787   3.254  0.4143  0.3115 -0.7327
 4902TIP3    H214671   6.432   3.649   3.200  3.5850 -0.1745  1.9224
 4903TIP3   OH214672   3.375   1.479   3.702  0.5582  0.8866  0.8343
 4903TIP3    H114673   3.314   1.472   3.628  1.4018 -0.3797  0.2235
 4903TIP3    H214674   3.333   1.427   3.771 -0.4408  2.4239  1.4373
 4904TIP3   OH214675   6.528   4.416   0.333 -0.2123  0.2328  0.1098
 4904TIP3    H114676   6.495   4.479   0.269 -1.6390 -0.0512  0.5459
 4904TIP3    H214677   6.474   4.338   0.321  1.4175 -0.8781 -0.3081
 4905TIP3   OH214678   5.586   5.038   0.498  0.3592  0.1239 -0.3445
 4905TIP3    H114679   5.549   5.086   0.572  0.7944  1.9366 -1.2442
 4905TIP3    H214680   5.531   5.062   0.423  2.1784  1.4309 -1.3473
 4906TIP3   OH214681   7.174   6.245   1.774  0.7932 -0.1958  0.0322
 4906TIP3    H114682   7.100   6.190   1.746  1.5352 -1.6382  0.7575
 4906TIP3    H214683   7.164   6.326   1.725 -1.1170 -0.4568 -0.0874
 4907TIP3   OH214684   0.471   6.184   4.412 -0.2066 -0.2440  0.0673
 4907TIP3    H114685   0.390   6.234   4.410 -0.1041 -0.0717  0.1974
 4907TIP3    H214686   0.459   6.122   4.484  0.5917  1.1792  1.4898
 4908TIP3   OH214687   5.460   2.201   4.733 -0.0981  0.3414 -0.2096
 4908TIP3    H114688   5.457   2.143   4.657  0.4731 -0.0155  0.0362
 4908TIP3    H214689   5.368   2.210   4.760 -0.1774 -0.5204 -0.1918
 4909TIP3   OH214690   6.227   3.611   4.548 -0.2800  0.5832  0.0581
 4909TIP3    H114691   6.153   3.665   4.523 -0.7392 -0.1097 -0.1246
 4909TIP3    H214692   6.278   3.602   4.467 -1.4242 -1.1236 -0.5508
 4910TIP3   OH214693   5.226   3.040   2.084  0.1162  0.1551  0.1159
 4910TIP3    H114694   5.307   3.038   2.135  0.2312  0.2360 -0.0632
 4910TIP3    H214695   5.227   2.959   2.033  0.9945  1.0001 -1.2831
 4911TIP3   OH214696   4.057   1.297   3.543 -0.0047 -0.2209  0.1035
 4911TIP3    H114697   4.039   1.230   3.477  1.7434 -0.3484 -0.3006
 4911TIP3    H214698   3.978   1.351   3.545 -0.6871 -1.1430 -0.9642
 4912TIP3   OH214699   1.323   3.370   5.474  0.0358 -0.2509 -0.1857
 4912TIP3    H114700   1.283   3.454   5.497  0.0489 -0.0629 -0.8197
 4912TIP3    H214701   1.412   3.375   5.510  0.6174  0.7085 -1.6527
 4913TIP3   OH214702   0.341   2.418   1.916 -0.5542 -1.1265  0.4043
 4913TIP3    H114703   0.266   2.445   1.861  0.4759  1.1248 -0.0210
 4913TIP3    H214704   0.312   2.434   2.005 -1.3235 -2.3552  0.4003
 4914TIP3   OH214705   6.452   4.846   0.257 -0.2822  0.1305 -0.0510
 4914TIP3    H114706   6.389   4.912   0.287 -0.6721 -0.0219 -0.5294
 4914TIP3    H214707   6.428   4.768   0.307  0.0253  0.2807  0.3372
 4915TIP3   OH214708   4.415   2.414   0.342  0.1524 -0.6344  0.0949
 4915TIP3    H114709   4.464   2.494   0.363 -1.6116  0.9322 -1.4040
 4915TIP3    H214710   4.474   2.364   0.285  0.7471  0.2781 -0.1186
 4916TIP3   OH214711   3.970   5.885   1.356  0.0665 -0.2206 -0.2061
 4916TIP3    H114712   4.002   5.974   1.366 -2.7410  0.7784  0.8499
 4916TIP3    H214713   3.903   5.891   1.288 -0.5542 -1.4132  0.2654
 4917TIP3   OH214714   5.834   1.939   3.149 -0.4571  0.2344  0.2865
 4917TIP3    H114715   5.812   1.938   3.242 -1.8089 -1.8610  0.0236
 4917TIP3    H214716   5.869   1.852   3.132  1.4219  1.1565 -0.8525
 4918TIP3   OH214717   2.785   5.373   0.715  0.2150 -0.1024 -0.0972
 4918TIP3    H114718   2.771   5.464   0.692  0.4982  0.4847  1.8606
 4918TIP3    H214719   2.712   5.326   0.675 -0.7575  1.1888  0.1222
 4919TIP3   OH214720   3.016   1.768   3.658  0.4126 -0.6014 -0.1475
 4919TIP3    H114721   2.960   1.841   3.628 -0.4478 -1.0272  0.3682
 4919TIP3    H214722   3.031   1.716   3.579  0.0121 -0.5233 -0.2790
 4920TIP3   OH214723   3.878   1.059   0.012  0.0919  0.2381  0.5720
 4920TIP3    H114724   3.897   0.988  -0.050  1.9854 -0.3411  1.7345
 4920TIP3    H214725   3.917   1.030   0.094 -0.6805  1.8507  1.5526
 4921TIP3   OH214726   2.396   2.477   5.672  0.2208  0.4449 -0.4010
 4921TIP3    H114727   2.468   2.463   5.610  1.0295 -0.0544  0.6027
 4921TIP3    H214728   2.411   2.411   5.740 -0.7238  0.8758  0.2391
 4922TIP3   OH214729   4.444   5.940   0.603 -0.2799  0.1106  0.6603
 4922TIP3    H114730   4.439   5.903   0.691  0.0040 -0.5334  0.4144
 4922TIP3    H214731   4.482   5.870   0.549  0.6039  0.8756  0.2479
 4923TIP3   OH214732   6.607   5.206   1.825  0.1901 -0.3747  0.6387
 4923TIP3    H114733   6.526   5.155   1.823 -0.1497  0.1592 -0.7738
 4923TIP3    H214734   6.578   5.295   1.847  0.3402 -0.1232 -0.1500
 4924TIP3   OH214735   5.881   3.997   5.396  0.0156  0.3063  0.2768
 4924TIP3    H114736   5.860   3.909   5.365  1.5832  0.4414 -1.2797
 4924TIP3    H214737   5.796   4.039   5.406 -0.8651 -1.6747  2.1468
 4925TIP3   OH214738   2.009   3.253   1.770  0.1270  0.9271 -0.1146
 4925TIP3    H114739   1.933   3.288   1.817  0.2731  0.0353  0.8028
 4925TIP3    H214740   1.977   3.175   1.725  1.0819 -1.2684  2.7130
 4926TIP3   OH214741   1.910   2.198   3.994  0.0227 -0.0834 -0.5714
 4926TIP3    H114742   1.872   2.114   4.020 -1.7873  0.5474 -1.0517
 4926TIP3    H214743   1.998   2.198   4.034  0.0186 -2.1247 -0.4669
 4927TIP3   OH214744   1.349   5.726   3.317  0.2312 -0.0615  0.2402
 4927TIP3    H114745   1.440   5.725   3.287 -0.1038 -0.9124 -0.8074
 4927TIP3    H214746   1.342   5.652   3.376 -0.2838 -1.3821 -1.3789
 4928TIP3   OH214747   0.210   4.471   5.782 -0.2614 -0.9416  0.2067
 4928TIP3    H114748   0.296   4.463   5.824 -0.7117 -0.3889  1.2834
 4928TIP3    H214749   0.220   4.428   5.697  1.2620 -0.2753  0.0271
 4929TIP3   OH214750   2.901   5.447   1.263  0.2393 -0.0169  0.1113
 4929TIP3    H114751   2.938   5.394   1.334  1.6502 -0.6966 -1.0540
 4929TIP3    H214752   2.843   5.387   1.217  1.4656 -0.4578 -0.9217
 4930TIP3   OH214753   7.115   0.479   3.596 -0.2894 -0.2549  0.4408
 4930TIP3    H114754   7.205   0.450   3.607  0.1933  1.3204  0.9446
 4930TIP3    H214755   7.093   0.519   3.680 -1.0667  0.4007 -0.0640
 4931TIP3   OH214756   0.230   2.628   3.834 -0.1728 -0.8996  0.1687
 4931TIP3    H114757   0.209   2.607   3.743 -0.0272  0.0789 -0.1026
 4931TIP3    H214758   0.150   2.668   3.868  0.2408  0.0622  0.0336
 4932TIP3   OH214759   0.726   5.661   1.556  0.0442  0.3344  0.6766
 4932TIP3    H114760   0.795   5.688   1.617 -0.2019  2.1857  0.2036
 4932TIP3    H214761   0.703   5.741   1.509 -1.0986 -0.6506 -0.5301
 4933TIP3   OH214762   3.706   3.160   0.871 -0.1647 -0.4128 -0.3077
 4933TIP3    H114763   3.674   3.086   0.922  1.1788  0.3630  1.8072
 4933TIP3    H214764   3.760   3.121   0.803 -1.2184 -1.4408 -0.5917
 4934TIP3   OH214765   6.436   1.869   3.991 -0.0779 -0.5088 -0.0907
 4934TIP3    H114766   6.451   1.776   3.976  1.5536 -0.6450  1.9029
 4934TIP3    H214767   6.363   1.873   4.052  0.8675 -0.6132  1.0856
 4935TIP3   OH214768   2.275   6.579   4.820 -0.2908  0.0118  0.0420
 4935TIP3    H114769   2.232   6.602   4.903 -1.1921  0.6303 -0.5767
 4935TIP3    H214770   2.206   6.587   4.755 -0.0122 -2.0951 -0.5649
 4936TIP3   OH214771   6.228   1.922   1.868  0.3985 -0.2583 -0.0376
 4936TIP3    H114772   6.257   1.947   1.955  2.0318  2.5540 -1.2602
 4936TIP3    H214773   6.133   1.914   1.876  0.3738  1.1946  1.7222
 4937TIP3   OH214774   4.173   4.920   5.536  0.2427  0.0080  0.2277
 4937TIP3    H114775   4.104   4.894   5.474 -0.2577  0.3510  0.6363
 4937TIP3    H214776   4.229   4.979   5.485 -0.4713  0.7212  0.2387
 4938TIP3   OH214777   4.560   1.125   2.171  0.1643 -0.5175 -0.1607
 4938TIP3    H114778   4.564   1.154   2.262  1.0455  1.4457 -0.7685
 4938TIP3    H214779   4.643   1.154   2.132 -0.6919 -0.1983 -1.8712
 4939TIP3   OH214780   3.044   0.874   0.485 -0.0385  0.4121  0.7219
 4939TIP3    H114781   3.038   0.780   0.507  1.0895 -0.2484 -1.5513
 4939TIP3    H214782   2.955   0.898   0.460  0.3179 -1.2658 -2.8343
 4940TIP3   OH214783   4.205   3.294   4.859  0.4445 -0.3530  0.2419
 4940TIP3    H114784   4.123   3.291   4.909  0.9322 -1.4778  1.0287
 4940TIP3    H214785   4.177   3.299   4.768 -0.4646  1.8806  0.5861
 4941TIP3   OH214786   2.976   3.433   1.497  0.4695 -0.0305 -0.6479
 4941TIP3    H114787   2.911   3.469   1.437 -0.2730 -2.6349 -1.5210
 4941TIP3    H214788   3.029   3.374   1.443 -0.7382 -3.1276  1.2689
 4942TIP3   OH214789   0.181   1.970   1.249  0.4731 -0.4583 -0.2096
 4942TIP3    H114790   0.095   1.975   1.206  0.0203  0.1766  0.7398
 4942TIP3    H214791   0.223   1.894   1.208 -0.8647 -1.2766 -0.1353
 4943TIP3   OH214792   3.898   3.466   1.141  0.5807 -0.0355 -0.0352
 4943TIP3    H114793   3.897   3.375   1.171 -1.1186  0.0893  0.3662
 4943TIP3    H214794   3.871   3.461   1.049 -2.4851  0.2531  0.7577
 4944TIP3   OH214795   4.326   2.457   3.263  0.2617 -0.7197  0.0535
 4944TIP3    H114796   4.414   2.492   3.280  0.6812 -1.3194 -0.7927
 4944TIP3    H214797   4.294   2.430   3.349 -0.0704  1.6832  0.7365
 4945TIP3   OH214798   0.940   6.260   3.960  0.2102 -0.6456 -0.4716
 4945TIP3    H114799   0.903   6.198   3.897 -0.1940 -3.2137  2.0957
 4945TIP3    H214800   1.008   6.210   4.006 -0.0662  0.8246  1.6961
 4946TIP3   OH214801   5.272   0.954   2.644  0.2780  0.6916 -0.3613
 4946TIP3    H114802   5.362   0.921   2.643 -0.1312 -0.6158  1.3884
 4946TIP3    H214803   5.270   1.016   2.717 -0.6111 -0.5517  0.7196
 4947TIP3   OH214804   2.587   5.581   0.810  0.3398 -0.6633  0.3532
 4947TIP3    H114805   2.605   5.673   0.830 -0.5250 -0.5626  0.7076
 4947TIP3    H214806   2.528   5.584   0.735  1.0024 -0.9668 -0.1960
 4948TIP3   OH214807   2.752   1.555   0.817 -0.2876  0.0596 -0.0149
 4948TIP3    H114808   2.696   1.522   0.747 -2.5999  2.4739  0.5396
 4948TIP3    H214809   2.745   1.490   0.887 -2.3471  0.2260 -0.0281
 4949TIP3   OH214810   4.214  -0.011   0.865  0.3060 -0.3347  0.2016
 4949TIP3    H114811   4.186   0.010   0.954 -0.1822  1.0517 -0.2662
 4949TIP3    H214812   4.286   0.050   0.847 -1.9322  1.9908 -1.6222
 4950TIP3   OH214813   0.250   4.262   0.887  0.2275  0.4814 -0.0068
 4950TIP3    H114814   0.267   4.319   0.962 -1.3814 -1.6475  2.1343
 4950TIP3    H214815   0.229   4.322   0.816 -0.9794  2.6243  1.9930
 4951TIP3   OH214816   2.552   3.150   2.865 -0.7958 -0.5645  0.1873
 4951TIP3    H114817   2.479   3.096   2.897 -1.6805  0.4745 -0.0155
 4951TIP3    H214818   2.530   3.167   2.773  0.5013 -1.5197 -0.3313
 4952TIP3   OH214819   3.317   1.429   1.504 -0.1449 -0.1338  0.1677
 4952TIP3    H114820   3.297   1.441   1.411 -0.4064  0.5636  0.3114
 4952TIP3    H214821   3.328   1.334   1.514  0.3132 -0.1793 -0.6613
 4953TIP3   OH214822   3.476   6.202   1.457  0.8045 -0.4385  0.1658
 4953TIP3    H114823   3.549   6.239   1.506  0.2650  1.2623 -0.2514
 4953TIP3    H214824   3.476   6.250   1.374 -0.0742 -1.2520 -0.3253
 4954TIP3   OH214825   6.777   5.861   3.115  0.0226  0.5143 -0.1410
 4954TIP3    H114826   6.756   5.789   3.056  0.3917 -0.4252  0.8176
 4954TIP3    H214827   6.707   5.859   3.180  1.2930 -0.6188  1.2870
 4955TIP3   OH214828   4.068   1.517   2.523  0.4109 -0.6819 -0.3088
 4955TIP3    H114829   3.998   1.534   2.460 -0.5561 -0.8224  0.6804
 4955TIP3    H214830   4.022   1.508   2.607  1.6659 -0.4019  0.4325
 4956TIP3   OH214831   2.731   2.949   5.707  0.1555  0.2923  0.4414
 4956TIP3    H114832   2.667   2.901   5.654 -0.3657  0.1383  1.1842
 4956TIP3    H214833   2.718   2.915   5.796 -0.1182  1.7064  0.9623
 4957TIP3   OH214834   0.067   1.136   3.166 -0.2215 -0.2253 -0.0426
 4957TIP3    H114835   0.012   1.212   3.147 -0.4760  0.2489  2.3014
 4957TIP3    H214836   0.022   1.091   3.238  1.8400 -0.4677  1.1854
 4958TIP3   OH214837   0.187   4.975   1.129  0.0929 -0.2681  0.1172
 4958TIP3    H114838   0.161   5.032   1.202 -0.4370  1.6750 -1.4898
 4958TIP3    H214839   0.106   4.932   1.102  0.1977 -0.6174  0.3488
 4959TIP3   OH214840   0.665   3.602   0.077  0.2255 -0.0760  0.2032
 4959TIP3    H114841   0.756   3.623   0.095  0.0919  1.9720 -1.2117
 4959TIP3    H214842   0.647   3.526   0.133  1.9625  1.1898  2.6918
 4960TIP3   OH214843   1.557   6.763   5.374 -0.0977 -0.3464 -0.4355
 4960TIP3    H114844   1.499   6.704   5.423  0.1952 -1.5179 -1.4409
 4960TIP3    H214845   1.515   6.771   5.288 -0.6822  1.7956  0.0035
 4961TIP3   OH214846   5.686   2.247   3.027  0.4184 -0.5363 -0.5438
 4961TIP3    H114847   5.726   2.331   3.007  1.1193 -0.3372  1.4893
 4961TIP3    H214848   5.752   2.182   3.004  0.2997 -0.4735 -1.0741
 4962TIP3   OH214849   1.979   6.596   1.993  0.1121  0.2471 -0.5660
 4962TIP3    H114850   2.013   6.672   1.945 -1.6030  1.6339  0.3041
 4962TIP3    H214851   2.016   6.606   2.081 -0.1630  0.1264 -0.4357
 4963TIP3   OH214852   3.472   3.550   0.105  0.4018 -0.2077  0.1484
 4963TIP3    H114853   3.514   3.487   0.046  0.1812 -1.9493  1.7398
 4963TIP3    H214854   3.545   3.593   0.149  0.5628  0.9583 -1.1936
 4964TIP3   OH214855   5.546   2.012   3.647 -0.2933 -0.0325 -0.1410
 4964TIP3    H114856   5.538   2.107   3.651  0.8784  0.1020 -0.4336
 4964TIP3    H214857   5.516   1.990   3.559 -0.2660  0.1097 -0.1873
 4965TIP3   OH214858   1.685   4.392   2.160  0.1247  0.0841 -0.0454
 4965TIP3    H114859   1.601   4.432   2.184  0.4653  1.7672 -1.4097
 4965TIP3    H214860   1.746   4.466   2.156  1.1644 -0.7965 -1.1732
 4966TIP3   OH214861   2.398   5.147   5.079  0.1862  0.1508  0.2107
 4966TIP3    H114862   2.334   5.188   5.137  0.1936  0.3329  0.0907
 4966TIP3    H214863   2.388   5.193   4.996  0.6939  0.4028  0.2827
 4967TIP3   OH214864   6.920   4.165   4.182 -0.2130  0.1146  0.1749
 4967TIP3    H114865   6.882   4.113   4.253 -0.2927  0.7504  0.6070
 4967TIP3    H214866   6.997   4.116   4.154 -0.4824 -0.4055  0.3417
 4968TIP3   OH214867   0.699   3.320   5.048  0.2026  0.0904 -0.6100
 4968TIP3    H114868   0.751   3.380   4.994  1.0269 -1.0408 -1.1127
 4968TIP3    H214869   0.643   3.275   4.986  0.9665 -1.0288 -0.5132
 4969TIP3   OH214870   4.683   3.893   3.639 -0.4408 -0.0247  0.6260
 4969TIP3    H114871   4.756   3.865   3.583 -0.5927 -1.0891  0.9343
 4969TIP3    H214872   4.709   3.866   3.727 -1.6590 -1.4320  0.5978
 4970TIP3   OH214873   2.279   6.341   0.654 -0.0654 -0.2610  0.1607
 4970TIP3    H114874   2.310   6.295   0.731 -0.3667  0.3072  0.6273
 4970TIP3    H214875   2.271   6.272   0.587  0.3262 -0.7310  0.5902
 4971TIP3   OH214876   2.165   1.702   3.345  0.3159 -0.4348  0.0227
 4971TIP3    H114877   2.146   1.609   3.358 -1.7585 -0.6551 -3.3432
 4971TIP3    H214878   2.260   1.705   3.333  0.3721 -2.2156 -0.2930
 4972TIP3   OH214879   4.711   1.778   1.586  0.0229 -0.3863  0.6701
 4972TIP3    H114880   4.680   1.847   1.528  1.8327  0.6748  0.8689
 4972TIP3    H214881   4.689   1.808   1.674  0.1640 -0.4033  0.7125
 4973TIP3   OH214882   4.306   3.771   4.310  0.0745 -0.1363 -0.2702
 4973TIP3    H114883   4.265   3.690   4.279 -2.4884  0.7408  0.5784
 4973TIP3    H214884   4.300   3.766   4.405 -1.7317  1.7289 -0.2130
 4974TIP3   OH214885   0.378   2.852   1.082  0.2980 -0.1402  0.4196
 4974TIP3    H114886   0.393   2.889   0.995  1.8481 -2.3195 -0.3371
 4974TIP3    H214887   0.460   2.867   1.129 -0.2347  0.2827  1.2402
 4975TIP3   OH214888   4.619   2.916   3.224  0.1362 -0.2882 -0.0011
 4975TIP3    H114889   4.525   2.908   3.207 -0.1257 -2.6185  1.9627
 4975TIP3    H214890   4.660   2.855   3.162  0.5713  1.5933 -1.6924
 4976TIP3   OH214891   4.154   2.508   2.678 -0.4143  0.1767  0.1688
 4976TIP3    H114892   4.245   2.538   2.681 -0.5141  0.5230 -0.1492
 4976TIP3    H214893   4.148   2.461   2.595 -1.0894  2.0725 -0.9292
 4977TIP3   OH214894   1.768   2.436   0.069  0.6756 -0.2021  0.5069
 4977TIP3    H114895   1.801   2.403  -0.015  1.9610  1.6014  0.2380
 4977TIP3    H214896   1.790   2.529   0.068 -0.2440  0.0768  2.4103
 4978TIP3   OH214897   1.605   0.756   1.336 -1.1022  0.0141 -0.1519
 4978TIP3    H114898   1.633   0.685   1.278  0.3793  1.2679 -1.0357
 4978TIP3    H214899   1.562   0.818   1.278  2.7587  2.6133 -0.6094
 4979TIP3   OH214900   0.517   5.533   2.176  0.3059 -0.0008  0.2986
 4979TIP3    H114901   0.436   5.494   2.208 -0.3808  0.2693 -1.0123
 4979TIP3    H214902   0.584   5.468   2.193 -0.4766 -0.9156 -0.0301
 4980TIP3   OH214903   5.033   3.296   4.988  0.4624 -0.8042 -0.4292
 4980TIP3    H114904   5.025   3.265   4.898  1.6357 -2.1387 -0.1145
 4980TIP3    H214905   5.123   3.329   4.995  0.1760 -0.1019  0.0851
 4981TIP3   OH214906   0.819   4.127   0.516  0.0758  0.2227 -0.0079
 4981TIP3    H114907   0.728   4.151   0.531 -1.1835 -3.2778 -1.2178
 4981TIP3    H214908   0.837   4.057   0.578  0.8226 -1.3656 -1.8950
 4982TIP3   OH214909   5.594   5.885   0.993 -0.0440  0.3219  0.2713
 4982TIP3    H114910   5.511   5.930   1.005  0.1886  0.2615  2.5284
 4982TIP3    H214911   5.646   5.909   1.070  2.5869  1.4571 -1.6998
 4983TIP3   OH214912   6.560   2.746   3.463  0.0290  0.0348  0.0199
 4983TIP3    H114913   6.491   2.679   3.465 -0.6810  0.7681  0.8172
 4983TIP3    H214914   6.629   2.707   3.410 -0.2607 -1.4429  0.6779
 4984TIP3   OH214915   2.446   4.451   0.830 -0.0297  0.4020  0.0005
 4984TIP3    H114916   2.516   4.509   0.858 -0.7083  0.5634  1.4653
 4984TIP3    H214917   2.383   4.509   0.787  0.7777  0.2306 -1.4763
 4985TIP3   OH214918   5.154   3.730   4.361  0.2367  0.0033  0.2591
 4985TIP3    H114919   5.132   3.806   4.414 -3.1852  0.3493 -1.3663
 4985TIP3    H214920   5.227   3.759   4.307  0.9411  1.0771  1.7133
 4986TIP3   OH214921   3.820   6.758   1.738 -0.0370  0.1343  0.1724
 4986TIP3    H114922   3.895   6.704   1.764  0.2070  0.1936 -0.4040
 4986TIP3    H214923   3.764   6.759   1.816 -0.8007 -2.2093 -0.2774
 4987TIP3   OH214924   6.931   2.854   1.300 -0.3167 -0.3995 -0.4278
 4987TIP3    H114925   6.890   2.841   1.215 -0.5859 -1.8221 -0.0990
 4987TIP3    H214926   6.870   2.816   1.363 -0.7424  1.7821  0.5726
 4988TIP3   OH214927   3.959   4.293   3.584 -0.1593  0.1836  0.0765
 4988TIP3    H114928   3.966   4.219   3.524 -1.4183  0.2841 -0.2101
 4988TIP3    H214929   3.903   4.356   3.539 -0.4450  0.6144  1.0046
 4989TIP3   OH214930   0.513   2.085   1.284 -0.0697 -0.1766  0.3515
 4989TIP3    H114931   0.605   2.103   1.264  0.0962  0.1438  1.3323
 4989TIP3    H214932   0.506   1.990   1.286  0.1539 -0.2020 -0.1003
 4990TIP3   OH214933   4.525   2.450   5.244 -0.1903 -0.4299 -0.1076
 4990TIP3    H114934   4.579   2.529   5.245 -0.9866  0.1511 -1.3433
 4990TIP3    H214935   4.584   2.380   5.272  0.2270  0.7579  2.2875
 4991TIP3   OH214936   6.045   4.589   3.026 -0.2026 -0.4175  0.4709
 4991TIP3    H114937   6.011   4.651   3.090  0.3238  0.7654 -0.3530
 4991TIP3    H214938   6.140   4.590   3.039  0.2907  2.2699 -2.3166
 4992TIP3   OH214939   6.266   4.186   1.137 -0.0561 -0.3403 -0.7372
 4992TIP3    H114940   6.275   4.269   1.090  0.3809 -0.4433 -0.8406
 4992TIP3    H214941   6.353   4.171   1.175 -0.6328  0.2092  0.8763
 4993TIP3   OH214942   6.361   1.533   1.728  0.7507  0.1988  0.5448
 4993TIP3    H114943   6.286   1.476   1.710  0.0693  1.6328 -1.5759
 4993TIP3    H214944   6.372   1.528   1.823 -1.8411 -0.3163  0.9077
 4994TIP3   OH214945   4.996   0.203   4.965  0.0812  0.2578 -0.4232
 4994TIP3    H114946   4.999   0.215   5.060 -2.3902  0.6101 -0.3366
 4994TIP3    H214947   5.082   0.232   4.935  0.7456  0.6153  1.6326
 4995TIP3   OH214948   5.461   1.201   4.636  0.4355 -0.0575  0.0089
 4995TIP3    H114949   5.422   1.114   4.645  2.2145 -1.1775 -2.2001
 4995TIP3    H214950   5.396   1.251   4.586  0.3323 -0.8188 -0.6366
 4996TIP3   OH214951   6.689   5.782   4.829  0.3535 -0.1242  0.2359
 4996TIP3    H114952   6.640   5.810   4.752  0.8840  1.8331  0.5557
 4996TIP3    H214953   6.777   5.766   4.796  0.5911  0.7563  0.4315
 4997TIP3   OH214954   3.918   3.265   3.224  0.5403  0.1490 -0.0107
 4997TIP3    H114955   4.010   3.291   3.227  0.4586  0.6363 -1.3033
 4997TIP3    H214956   3.886   3.280   3.313  1.4461  0.9542  0.1971
 4998TIP3   OH214957   2.913   5.762   1.849  0.1495  0.3984  0.0180
 4998TIP3    H114958   2.998   5.763   1.893  0.0222 -0.6891  0.3002
 4998TIP3    H214959   2.935   5.774   1.756  0.4475  2.1576  0.2754
 4999TIP3   OH214960   1.585   5.697   4.401 -0.7081  0.2919  0.0308
 4999TIP3    H114961   1.608   5.718   4.310 -1.2423  0.6821 -0.0170
 4999TIP3    H214962   1.597   5.602   4.407  1.4530  0.5212  0.1771
 5000TIP3   OH214963   1.103   1.941   4.297  0.1597  0.6946 -0.4376
 5000TIP3    H114964   1.134   1.854   4.275 -1.0856 -0.0590  0.6089
 5000TIP3    H214965   1.007   1.933   4.299  0.0510  1.8336  0.6205
 5001TIP3   OH214966   6.264   3.156   4.967 -0.6927 -0.2908  0.1650
 5001TIP3    H114967   6.169   3.144   4.960 -0.8096  1.2329 -1.8517
 5001TIP3    H214968   6.276   3.251   4.971  0.8032 -0.2430 -2.7545
 5002TIP3   OH214969   6.021   4.910   0.825  0.2379 -0.3723 -0.1791
 5002TIP3    H114970   6.022   5.001   0.852  3.2139  0.4016 -2.4185
 5002TIP3    H214971   5.932   4.895   0.794 -0.8800  1.0805  2.0486
 5003TIP3   OH214972   0.065   5.209   2.998  0.2823 -0.1871  0.3013
 5003TIP3    H114973   0.134   5.143   2.990  0.3490 -0.0663 -0.1523
 5003TIP3    H214974   0.108   5.291   2.972 -0.2487 -0.2473 -0.8551
 5004TIP3   OH214975   0.786   0.899   5.914  0.6033 -0.0181 -0.8353
 5004TIP3    H114976   0.871   0.857   5.899  0.5795  0.3726 -2.2384
 5004TIP3    H214977   0.730   0.864   5.845  0.3893  1.7524 -1.6136
 5005TIP3   OH214978   5.156   1.777   2.071  0.2119  0.5622  0.3627
 5005TIP3    H114979   5.186   1.764   2.161  0.5290 -1.5658  0.0082
 5005TIP3    H214980   5.216   1.841   2.035  0.0740  1.4604  1.6497
 5006TIP3   OH214981   3.551   5.501   2.053 -0.1030  0.2869  0.1339
 5006TIP3    H114982   3.621   5.448   2.092 -0.1898  0.2548  0.2466
 5006TIP3    H214983   3.519   5.447   1.981  0.0966  0.3715 -0.0211
 5007TIP3   OH214984   3.461   5.712   4.719 -0.1738  0.0433  0.5009
 5007TIP3    H114985   3.509   5.662   4.653 -0.8340 -0.2319  0.2153
 5007TIP3    H214986   3.442   5.649   4.788 -0.5557  0.0217  0.3795
 5008TIP3   OH214987   5.314   5.798   5.023 -0.2698 -0.3265  0.1238
 5008TIP3    H114988   5.338   5.776   4.934  0.4636  1.0656 -0.0514
 5008TIP3    H214989   5.396   5.818   5.067 -0.7989  1.9967  0.2218
 5009TIP3   OH214990   2.152   1.356   2.596  0.3373  0.1827  0.0643
 5009TIP3    H114991   2.103   1.299   2.537  0.3040 -0.7635  0.9767
 5009TIP3    H214992   2.229   1.305   2.621 -0.4635 -0.1388  2.1001
 5010TIP3   OH214993   0.868   6.323   3.282  0.5360 -0.5948 -0.3821
 5010TIP3    H114994   0.878   6.389   3.214 -0.7430  0.0065 -0.0160
 5010TIP3    H214995   0.923   6.250   3.253  0.2850 -0.2221 -1.8870
 5011TIP3   OH214996   4.127   6.399   4.715 -0.2037 -0.5151  0.0799
 5011TIP3    H114997   4.058   6.371   4.655 -0.1505 -0.2001 -0.1350
 5011TIP3    H214998   4.194   6.332   4.708 -1.3352 -1.9101  1.8151
 5012TIP3   OH214999   7.059   4.500   5.654 -0.1889  0.2098  0.1335
 5012TIP3    H115000   7.100   4.578   5.690  1.2701 -1.0403  1.3206
 5012TIP3    H215001   6.985   4.483   5.713 -1.0676  1.1667 -0.6589
 5013TIP3   OH215002   7.179   0.025   4.758 -0.4479 -0.4125  0.0423
 5013TIP3    H115003   7.093   0.049   4.723 -0.0679  1.0375  0.0043
 5013TIP3    H215004   7.187   0.077   4.838 -0.3971 -2.0275  1.1306
 5014TIP3   OH215005   3.576   3.059   2.830  0.1662 -0.1428 -0.1244
 5014TIP3    H115006   3.556   3.152   2.842  0.9932 -0.0282  0.4651
 5014TIP3    H215007   3.502   3.013   2.868 -0.6455  0.2673 -1.1672
 5015TIP3   OH215008   3.765   3.024   5.126 -0.3559 -0.2350  0.0584
 5015TIP3    H115009   3.743   3.043   5.217  0.1397 -0.1918  0.1734
 5015TIP3    H215010   3.755   3.107   5.081 -1.3618 -0.4239 -0.0864
 5016TIP3   OH215011   0.758   0.565   2.041 -0.2925  0.0381  0.8587
 5016TIP3    H115012   0.767   0.660   2.032 -0.9221  0.0478  0.2709
 5016TIP3    H215013   0.784   0.546   2.131 -1.1511  0.8907  1.2926
 5017TIP3   OH215014   1.789  -0.030   0.758 -0.2056  0.2529 -0.2978
 5017TIP3    H115015   1.745   0.030   0.697  0.9741 -0.4399 -1.8879
 5017TIP3    H215016   1.793   0.019   0.841  0.0139  2.0600 -1.3318
 5018TIP3   OH215017   6.601   6.346   0.586  0.2384  0.1677 -0.1973
 5018TIP3    H115018   6.644   6.409   0.644  2.0726  0.4930 -1.8028
 5018TIP3    H215019   6.665   6.276   0.575 -0.7888 -0.7718 -0.4471
 5019TIP3   OH215020   0.421   6.263   3.445  0.3088 -0.2327  0.1891
 5019TIP3    H115021   0.375   6.342   3.417  1.2525  0.7850  1.4065
 5019TIP3    H215022   0.391   6.249   3.535  0.3903 -1.0958  0.0913
 5020TIP3   OH215023   3.936   5.449   5.407  0.0331 -0.3127  0.2060
 5020TIP3    H115024   3.994   5.422   5.336 -1.2065 -1.7347 -0.3246
 5020TIP3    H215025   3.986   5.434   5.487  1.9588  2.5724 -0.3000
 5021TIP3   OH215026   1.743   2.668   4.487 -0.1753 -0.0578  0.8175
 5021TIP3    H115027   1.658   2.636   4.517 -0.8939  2.7228  2.0311
 5021TIP3    H215028   1.746   2.643   4.394 -2.8777  0.7317  0.4199
 5022TIP3   OH215029   6.701   6.784   1.348  1.0375  0.4066 -0.1319
 5022TIP3    H115030   6.613   6.820   1.345  1.0280  0.4153  0.2188
 5022TIP3    H215031   6.716   6.749   1.260  2.1927  3.9233 -1.5180
 5023TIP3   OH215032   6.055   2.249   5.576 -0.1116  0.6496 -0.2852
 5023TIP3    H115033   6.067   2.333   5.620  0.7172  0.7596 -0.7073
 5023TIP3    H215034   6.095   2.261   5.490 -0.6246  0.0456 -0.6100
 5024TIP3   OH215035   0.211   6.692   5.230 -0.2692 -0.8266  0.5560
 5024TIP3    H115036   0.161   6.699   5.312  0.1920 -0.6970  0.8299
 5024TIP3    H215037   0.168   6.754   5.171 -0.9454 -1.3177  0.5168
 5025TIP3   OH215038   3.030   0.612   3.398  0.5575 -0.3378  0.3631
 5025TIP3    H115039   3.087   0.670   3.347 -0.8304  0.0715 -0.7884
 5025TIP3    H215040   3.067   0.525   3.386  1.0010 -0.0693 -0.2930
 5026TIP3   OH215041   6.968   2.713   5.844  0.6209  0.4745  0.5118
 5026TIP3    H115042   6.959   2.627   5.884  2.6524 -0.0453 -0.0321
 5026TIP3    H215043   6.910   2.710   5.768 -0.6546  0.2506  1.4638
 5027TIP3   OH215044   0.011   4.234   5.657  0.3517 -0.6091 -0.0515
 5027TIP3    H115045  -0.039   4.313   5.678 -1.0214 -1.6752  0.9141
 5027TIP3    H215046   0.091   4.266   5.615 -0.2621  1.2652  0.1243
 5028TIP3   OH215047   5.171   0.071   2.262 -0.2877  0.1585 -0.0228
 5028TIP3    H115048   5.104   0.091   2.328 -0.1303  2.1949 -0.3984
 5028TIP3    H215049   5.254   0.094   2.304 -0.1765  1.3693 -0.8431
 5029TIP3   OH215050   4.155   3.165   1.540  0.3007 -0.4934  0.7361
 5029TIP3    H115051   4.176   3.117   1.460 -0.2509 -0.2844  0.4662
 5029TIP3    H215052   4.061   3.153   1.551  0.2293  0.1850  0.8935
 5030TIP3   OH215053   1.214   6.679   1.528  0.6551 -0.2246 -0.2721
 5030TIP3    H115054   1.126   6.686   1.489  0.2878 -0.5132  0.4937
 5030TIP3    H215055   1.273   6.692   1.454 -0.0267  1.0248 -0.6290
 5031TIP3   OH215056   2.981   2.509   2.311 -0.0410 -0.1018 -0.2872
 5031TIP3    H115057   2.904   2.562   2.333 -1.3396 -2.1747  0.4508
 5031TIP3    H215058   3.040   2.520   2.385 -0.9528 -0.7952  0.5800
 5032TIP3   OH215059   0.305   0.842   1.530  0.4704  0.2968  0.0793
 5032TIP3    H115060   0.296   0.827   1.624 -0.4208  2.4357  0.4084
 5032TIP3    H215061   0.343   0.930   1.524 -1.3160  1.0216 -1.5495
 5033TIP3   OH215062   2.107   3.406   2.268 -0.0403  0.0653  0.1238
 5033TIP3    H115063   2.062   3.414   2.184 -0.2779 -0.9297  0.1403
 5033TIP3    H215064   2.177   3.471   2.265 -0.5365  0.5773 -0.5184
 5034TIP3   OH215065   6.096   6.524   2.024  0.5378 -0.2376  0.1512
 5034TIP3    H115066   6.115   6.436   1.990 -0.2833 -0.7780  1.0394
 5034TIP3    H215067   6.111   6.517   2.118 -0.0600  0.4258  0.3041
 5035TIP3   OH215068   3.164   1.809   1.121 -0.4819  0.7678  0.3991
 5035TIP3    H115069   3.233   1.875   1.122  0.9442 -0.4446 -2.9247
 5035TIP3    H215070   3.174   1.765   1.036 -2.1459 -2.8724  1.8678
 5036TIP3   OH215071   3.768   4.371   5.900 -0.2834  0.2485  0.2751
 5036TIP3    H115072   3.719   4.390   5.820 -2.1526  1.2344  1.5729
 5036TIP3    H215073   3.844   4.320   5.871 -0.7036  0.8954 -2.1368
 5037TIP3   OH215074   5.836   2.026   3.703 -0.4394 -0.1023  0.6306
 5037TIP3    H115075   5.741   2.022   3.718 -0.2750  2.1211  3.0501
 5037TIP3    H215076   5.870   2.072   3.780  2.7604 -1.6979  0.3246
 5038TIP3   OH215077   3.655   5.332   2.608  0.3841 -0.8081  0.1571
 5038TIP3    H115078   3.646   5.258   2.548 -0.7123 -1.1495  0.7205
 5038TIP3    H215079   3.566   5.351   2.637  0.6720  0.5937  0.2100
 5039TIP3   OH215080   3.283   4.114   2.266  0.3927  0.4563  0.2359
 5039TIP3    H115081   3.309   4.200   2.300 -1.2258  1.8601 -1.7481
 5039TIP3    H215082   3.324   4.109   2.180 -0.9623  0.0591 -0.4126
 5040TIP3   OH215083   5.300   1.345   1.115  0.3320 -0.1096 -0.5328
 5040TIP3    H115084   5.287   1.433   1.151 -1.5265  0.5268 -2.5056
 5040TIP3    H215085   5.305   1.288   1.191 -2.7734  1.2006  0.8499
 5041TIP3   OH215086   3.831   5.174   2.895 -0.2460 -0.3019 -0.0870
 5041TIP3    H115087   3.784   5.130   2.824  1.0411 -0.3070 -0.9567
 5041TIP3    H215088   3.771   5.242   2.925 -0.0165  1.0959 -2.6116
 5042TIP3   OH215089   4.712   6.266   3.716  0.2966 -0.0772  0.2616
 5042TIP3    H115090   4.729   6.330   3.786 -1.2159  1.5479 -0.7865
 5042TIP3    H215091   4.784   6.279   3.654 -0.7231  1.6941 -0.6372
 5043TIP3   OH215092   6.161   3.924   5.282 -0.4367  0.2495 -0.6450
 5043TIP3    H115093   6.094   3.987   5.257 -0.0401  0.6549 -0.7084
 5043TIP3    H215094   6.241   3.976   5.289  0.0001 -0.3362 -1.1926
 5044TIP3   OH215095   6.238   0.259   3.607 -0.5572  0.2064 -0.0915
 5044TIP3    H115096   6.204   0.181   3.565 -0.4497 -0.1497  0.4700
 5044TIP3    H215097   6.160   0.310   3.630 -0.5961  0.7672 -1.3736
 5045TIP3   OH215098   6.600   2.070   4.433 -0.0281  0.0810  0.9201
 5045TIP3    H115099   6.651   1.996   4.400  0.9900  1.8277 -1.6450
 5045TIP3    H215100   6.531   2.083   4.368  0.9149  2.4744  0.3091
 5046TIP3   OH215101   5.056   4.376   3.864 -0.0883 -0.4421 -0.7393
 5046TIP3    H115102   5.147   4.347   3.865  0.5176  0.6600  4.2565
 5046TIP3    H215103   5.059   4.464   3.827  1.6548  0.8555  2.0908
 5047TIP3   OH215104   3.248   0.992   3.136 -0.1489 -0.2498 -0.4320
 5047TIP3    H115105   3.203   1.054   3.078  1.0644  0.1275 -0.9991
 5047TIP3    H215106   3.273   1.045   3.212  0.5488 -0.1222 -0.7440
 5048TIP3   OH215107   4.868   5.164   2.927  0.2863  0.5489 -0.3705
 5048TIP3    H115108   4.914   5.157   2.843 -0.4870 -1.1842 -0.6976
 5048TIP3    H215109   4.788   5.213   2.907 -0.7574 -1.3326 -1.0981
 5049TIP3   OH215110   1.172   2.202   1.821 -0.0828 -0.3701  0.3613
 5049TIP3    H115111   1.166   2.296   1.838 -0.7418 -0.4289  0.4747
 5049TIP3    H215112   1.219   2.195   1.739  1.4957 -0.0016  1.1968
 5050TIP3   OH215113   3.206   1.076   5.285 -0.3202  0.1183  0.0890
 5050TIP3    H115114   3.137   1.065   5.220  0.2221  0.6623 -0.5827
 5050TIP3    H215115   3.203   1.169   5.308 -0.9489 -0.1818  1.3517
 5051TIP3   OH215116   6.444   4.664   5.134  0.0678 -0.1051  0.1369
 5051TIP3    H115117   6.531   4.659   5.094 -0.5375 -1.5338 -1.1041
 5051TIP3    H215118   6.453   4.618   5.217  0.4240 -0.5358 -0.1387
 5052TIP3   OH215119   2.385   5.060   2.809  0.0273  0.2268 -0.0276
 5052TIP3    H115120   2.321   5.107   2.863  0.6214  0.5542  0.3989
 5052TIP3    H215121   2.351   5.068   2.720 -2.3737 -2.5142  0.4870
 5053TIP3   OH215122   6.713   0.144   4.015  0.6734  0.4329  0.3478
 5053TIP3    H115123   6.749   0.079   3.955 -0.4185 -1.0702  1.2353
 5053TIP3    H215124   6.678   0.092   4.088 -2.5771  1.7881 -0.0901
 5054TIP3   OH215125   6.734   0.423   4.406  0.2112  0.3896 -0.0277
 5054TIP3    H115126   6.653   0.472   4.420  0.2294  0.1793  0.8566
 5054TIP3    H215127   6.722   0.342   4.456 -0.2789 -1.0535 -2.3463
 5055TIP3   OH215128   1.802   2.013   5.086  0.1449 -0.2453  0.4132
 5055TIP3    H115129   1.745   2.090   5.085  0.3333 -0.1081  0.0044
 5055TIP3    H215130   1.751   1.946   5.130 -0.4908 -0.2442 -0.2968
 5056TIP3   OH215131   6.698   2.126   2.563  0.1665 -0.2187 -0.2236
 5056TIP3    H115132   6.614   2.088   2.538 -0.1646  1.0122 -1.0810
 5056TIP3    H215133   6.754   2.051   2.581 -0.5488 -1.1215 -1.5748
 5057TIP3   OH215134   2.190   0.764   1.953 -0.4246 -0.3303  0.4271
 5057TIP3    H115135   2.268   0.777   2.007 -0.7051  1.9397  0.4039
 5057TIP3    H215136   2.132   0.711   2.007  1.3537 -2.7432  0.1505
 5058TIP3   OH215137   5.999   3.173   1.956 -0.1644  0.1129 -0.2667
 5058TIP3    H115138   5.991   3.197   2.048 -0.6277 -0.1451 -0.2404
 5058TIP3    H215139   6.088   3.198   1.933 -0.6245  1.9353 -0.2480
 5059TIP3   OH215140   2.980   0.308   0.366 -0.1311 -0.4178  0.3519
 5059TIP3    H115141   3.039   0.265   0.304  0.1755  1.4060 -0.6963
 5059TIP3    H215142   2.892   0.290   0.331 -0.0538 -0.7753  0.3342
 5060TIP3   OH215143   6.935   2.495   0.437  0.3761 -0.1937 -0.0425
 5060TIP3    H115144   6.979   2.420   0.477  0.9310  1.0208  1.7352
 5060TIP3    H215145   6.969   2.571   0.484 -0.3749  1.1721 -1.5977
 5061TIP3   OH215146   0.545   6.640   4.589  0.6637 -0.2517  0.5735
 5061TIP3    H115147   0.453   6.641   4.564  1.2264 -1.7769 -1.8537
 5061TIP3    H215148   0.561   6.549   4.617  1.7464 -0.4174 -0.4978
 5062TIP3   OH215149   5.846   5.937   0.095  0.2930 -0.1166  0.7267
 5062TIP3    H115150   5.895   5.863   0.060  0.2699  0.5299 -0.7428
 5062TIP3    H215151   5.880   6.013   0.048 -0.8363  0.5795  0.9978
 5063TIP3   OH215152   1.072   2.742   2.141  0.2581  0.4220 -0.3518
 5063TIP3    H115153   1.107   2.748   2.230  0.2997  0.1865 -0.3527
 5063TIP3    H215154   1.077   2.649   2.119  0.6755  0.5444 -0.7764
 5064TIP3   OH215155   4.836   5.049   4.566  0.2062  0.1557 -0.5447
 5064TIP3    H115156   4.894   4.978   4.594 -0.0608  0.4901  0.9695
 5064TIP3    H215157   4.891   5.127   4.568 -0.2381  0.4821  0.9385
 5065TIP3   OH215158   6.858   3.785   4.876 -0.3814  0.0463 -0.2134
 5065TIP3    H115159   6.867   3.738   4.793  1.2368 -0.1795  0.0445
 5065TIP3    H215160   6.863   3.877   4.851  0.6199 -0.0253 -0.3591
 5066TIP3   OH215161   2.850   2.743   1.366  0.5880 -0.2358  0.4997
 5066TIP3    H115162   2.919   2.806   1.347  1.7091  0.2329  4.8444
 5066TIP3    H215163   2.771   2.782   1.330  1.8499  1.7478 -0.2909
 5067TIP3   OH215164   5.233   5.171   1.459 -0.5176 -0.4793 -0.3387
 5067TIP3    H115165   5.215   5.262   1.437 -1.9141 -0.2320  1.5943
 5067TIP3    H215166   5.294   5.176   1.533 -0.7010 -1.1196 -0.1393
 5068TIP3   OH215167   7.214   1.464   4.374  0.3871 -0.7393 -0.7474
 5068TIP3    H115168   7.165   1.446   4.294 -0.0118  0.2887 -0.7477
 5068TIP3    H215169   7.148   1.473   4.442  0.7803 -2.7549 -0.0323
 5069TIP3   OH215170   0.637   1.430   4.212  0.2943  0.4385 -0.4323
 5069TIP3    H115171   0.696   1.368   4.170  0.6548 -1.1136  2.1781
 5069TIP3    H215172   0.694   1.499   4.246  0.7578 -1.1577  2.2567
 5070TIP3   OH215173   5.011   1.747   1.812 -0.7467  0.3040  0.1398
 5070TIP3    H115174   5.024   1.763   1.718 -0.8807  0.7894  0.1992
 5070TIP3    H215175   5.099   1.734   1.847 -0.7903 -1.3253 -0.2939
 5071TIP3   OH215176   6.299   2.480   1.290  0.1435  0.3556 -0.1054
 5071TIP3    H115177   6.246   2.430   1.229  0.0949  1.0299 -0.6216
 5071TIP3    H215178   6.265   2.457   1.376 -0.9680  0.7528 -0.4271
 5072TIP3   OH215179   6.425   0.051   5.111 -0.0636 -0.1162 -0.0962
 5072TIP3    H115180   6.446   0.059   5.204 -2.5013 -0.7625  0.5628
 5072TIP3    H215181   6.384   0.135   5.089  1.3737  0.4108 -0.8769
 5073TIP3   OH215182   5.187   2.191   4.742  0.4641 -0.4901  0.0935
 5073TIP3    H115183   5.189   2.109   4.790  0.0380  0.2788  1.4973
 5073TIP3    H215184   5.106   2.188   4.691 -0.1018 -0.5056  0.9775
 5074TIP3   OH215185   0.044   1.446   2.536  0.7414 -0.3281 -0.0175
 5074TIP3    H115186  -0.038   1.401   2.518  0.0109  0.6512  0.7293
 5074TIP3    H215187   0.024   1.539   2.523  1.9235 -0.1179 -0.4972
 5075TIP3   OH215188   0.145   1.497   2.208  0.7298  0.1175  0.0506
 5075TIP3    H115189   0.121   1.583   2.241 -1.7932 -0.6584  0.4504
 5075TIP3    H215190   0.216   1.514   2.145  1.0644  2.3165  0.9512
 5076TIP3   OH215191   6.884   5.716   3.591  0.2308 -0.3547 -0.8103
 5076TIP3    H115192   6.835   5.738   3.669 -0.8060 -2.5036 -0.7622
 5076TIP3    H215193   6.969   5.759   3.602  0.2774 -0.9457  1.7110
 5077TIP3   OH215194   5.595   3.114   0.407  0.4421 -0.0536  0.1235
 5077TIP3    H115195   5.662   3.049   0.387  0.8745  0.8565 -1.5526
 5077TIP3    H215196   5.637   3.177   0.466  1.1769  0.6581 -1.1303
 5078TIP3   OH215197   1.235   1.868   1.027 -0.1269  0.0493  0.1662
 5078TIP3    H115198   1.217   1.862   1.121  0.6436  0.5395  0.3589
 5078TIP3    H215199   1.153   1.896   0.988 -0.5658 -0.5355  0.6411
 5079TIP3   OH215200   3.008   3.141   4.833  0.2412  0.0914 -0.1865
 5079TIP3    H115201   3.031   3.121   4.742 -1.5416  0.3596 -0.7169
 5079TIP3    H215202   3.040   3.230   4.847 -0.1107  0.3104 -0.7708
 5080TIP3   OH215203   2.789   6.355   2.036  0.1685 -0.1279  0.5642
 5080TIP3    H115204   2.802   6.413   1.961 -1.8722 -0.6418 -0.2496
 5080TIP3    H215205   2.733   6.404   2.096 -1.7442 -1.2454 -0.2208
 5081TIP3   OH215206   2.280   5.158   4.533  0.1260  0.0410 -0.8199
 5081TIP3    H115207   2.309   5.069   4.553  0.7739 -0.2087 -2.6617
 5081TIP3    H215208   2.272   5.160   4.438 -0.3355  1.8294 -0.7860
 5082TIP3   OH215209   6.853   4.562   4.344 -0.1440 -0.2640  0.0633
 5082TIP3    H115210   6.940   4.600   4.356  0.1726  0.2042 -3.0042
 5082TIP3    H215211   6.792   4.635   4.358 -0.1136 -0.5811  2.1580
 5083TIP3   OH215212   5.318   0.842   3.232  0.1660 -0.6188 -0.0995
 5083TIP3    H115213   5.351   0.931   3.225 -1.4578  0.0449  0.2692
 5083TIP3    H215214   5.260   0.832   3.157 -1.2752 -0.6149  0.9739
 5084TIP3   OH215215   3.162   0.373   5.326 -0.0066  0.1386 -0.4090
 5084TIP3    H115216   3.093   0.371   5.393  0.5805  1.0679  0.2632
 5084TIP3    H215217   3.117   0.399   5.246 -0.4647  0.6668  0.0062
 5085TIP3   OH215218   2.922   6.564   4.656 -0.0826 -0.4713  0.0161
 5085TIP3    H115219   2.971   6.498   4.705  1.1878  1.6083  1.7799
 5085TIP3    H215220   2.855   6.594   4.718  0.0435  0.5710 -0.3286
 5086TIP3   OH215221   3.368   2.031   3.466  0.2760  0.3623  0.0920
 5086TIP3    H115222   3.342   2.110   3.514  0.7791  0.1772  0.6874
 5086TIP3    H215223   3.409   1.975   3.532  0.5007 -0.1298 -0.4517
 5087TIP3   OH215224   4.657   2.491   5.860 -0.7819 -0.5353 -0.2422
 5087TIP3    H115225   4.699   2.565   5.814 -1.0032 -0.1971  0.0948
 5087TIP3    H215226   4.683   2.502   5.951 -0.9909 -0.7539 -0.1571
 5088TIP3   OH215227   5.091   6.100   2.801 -0.0724  0.4660  0.4397
 5088TIP3    H115228   5.000   6.082   2.777 -0.2166 -1.3704  2.1282
 5088TIP3    H215229   5.105   6.049   2.881  2.2169  1.3433  0.6600
 5089TIP3   OH215230   5.868   4.523   1.732  0.0181 -0.0973  0.0273
 5089TIP3    H115231   5.938   4.490   1.676 -0.0094  2.6320 -1.8147
 5089TIP3    H215232   5.904   4.521   1.820  1.8504 -0.2401 -0.6887
 5090TIP3   OH215233   0.106   5.704   1.275 -0.6476  0.2073 -0.5422
 5090TIP3    H115234   0.127   5.663   1.359 -0.5800 -0.3625 -0.8405
 5090TIP3    H215235   0.057   5.638   1.227  0.3884  0.0889 -1.4522
 5091TIP3   OH215236   3.631   5.428   0.537  0.1518  0.4009  0.0389
 5091TIP3    H115237   3.719   5.441   0.572 -0.1399  1.9771  0.2298
 5091TIP3    H215238   3.617   5.333   0.544  1.7045  0.1605  0.2755
 5092TIP3   OH215239   3.110   5.487   1.906  0.4211 -0.2016  0.1108
 5092TIP3    H115240   3.163   5.431   1.848 -0.1805 -1.6635  0.9246
 5092TIP3    H215241   3.173   5.524   1.968  0.7560 -0.4160 -0.0984
 5093TIP3   OH215242   2.836   5.985   5.843  0.2970  0.1435 -0.0602
 5093TIP3    H115243   2.755   6.000   5.893 -0.1053 -1.6882 -0.1167
 5093TIP3    H215244   2.885   5.922   5.895  0.0483 -1.5100 -1.7474
 5094TIP3   OH215245   1.608   6.328   0.727 -0.0170  0.2381  0.2029
 5094TIP3    H115246   1.636   6.269   0.797 -1.0843  0.0247  0.4684
 5094TIP3    H215247   1.543   6.385   0.768  0.4084  1.0685 -0.2616
 5095TIP3   OH215248   2.091   1.742   5.520  0.2878  0.0998  0.1749
 5095TIP3    H115249   2.152   1.702   5.582  0.4364 -0.4026 -0.2892
 5095TIP3    H215250   2.127   1.721   5.434 -0.5373 -0.1875 -0.1035
 5096TIP3   OH215251   3.982   6.222   0.517  0.3222  0.6045  0.0192
 5096TIP3    H115252   4.050   6.160   0.542 -1.0583 -0.0609  2.4593
 5096TIP3    H215253   3.994   6.296   0.577 -0.5932  0.8349 -0.0695
 5097TIP3   OH215254   4.838   1.221   2.982 -0.0772 -0.1228  0.5437
 5097TIP3    H115255   4.807   1.297   3.030  0.4337  1.0087 -0.8586
 5097TIP3    H215256   4.932   1.217   3.001 -0.2084 -0.7916  1.1057
 5098TIP3   OH215257   1.506   5.140   0.382 -0.3200  0.2382  0.2476
 5098TIP3    H115258   1.521   5.187   0.301 -1.1095  2.0760  1.1139
 5098TIP3    H215259   1.418   5.102   0.372 -1.7344  2.9318  1.2585
 5099TIP3   OH215260   1.453   0.801   5.677 -0.2956  0.0774 -0.6759
 5099TIP3    H115261   1.535   0.798   5.726  0.3231  0.5156 -1.6371
 5099TIP3    H215262   1.442   0.894   5.656 -1.6063  0.1753  0.3488
 5100TIP3   OH215263   2.094   0.201   2.570  0.3251 -0.2146  0.6788
 5100TIP3    H115264   2.124   0.240   2.651  2.2852  0.7168 -0.4242
 5100TIP3    H215265   2.022   0.143   2.596  1.2238 -0.3377  3.1120
 5101TIP3   OH215266   1.190   4.760   1.074 -0.5531 -0.1588 -0.0834
 5101TIP3    H115267   1.199   4.844   1.119 -1.0522 -0.4827  0.6469
 5101TIP3    H215268   1.179   4.783   0.982  0.2445  0.5299 -0.0141
 5102TIP3   OH215269   6.827   5.188   3.414  0.1949 -0.0405 -0.2133
 5102TIP3    H115270   6.886   5.224   3.480  0.6215  1.0568 -1.1568
 5102TIP3    H215271   6.811   5.261   3.354 -1.1580 -0.6635 -0.6515
 5103TIP3   OH215272   1.228   6.696   2.851 -0.0343 -0.2109  0.0083
 5103TIP3    H115273   1.323   6.689   2.841 -0.0595 -3.2080  0.8769
 5103TIP3    H215274   1.193   6.691   2.762  0.5921  0.9784 -0.3179
 5104TIP3   OH215275   4.254   5.400   0.778  0.2172 -0.6229  0.2927
 5104TIP3    H115276   4.243   5.427   0.686  1.6267 -2.4882 -0.4956
 5104TIP3    H215277   4.210   5.315   0.783 -1.5726  0.3252  1.9174
 5105TIP3   OH215278   0.996   1.642   4.127  0.6788  0.0524  0.4314
 5105TIP3    H115279   1.069   1.647   4.189  0.1771  0.2645  1.0190
 5105TIP3    H215280   0.959   1.555   4.141  1.8744 -0.7492 -1.1063
 5106TIP3   OH215281   4.121   5.378   4.869 -0.5366  0.2086 -0.1454
 5106TIP3    H115282   4.031   5.347   4.882 -1.0235  0.8997 -1.6766
 5106TIP3    H215283   4.116   5.433   4.791  0.9664  1.3402  0.5153
 5107TIP3   OH215284   5.013   3.516   5.732 -0.4647  0.3886  0.1773
 5107TIP3    H115285   5.091   3.490   5.780  0.2917 -0.0225 -1.2461
 5107TIP3    H215286   4.945   3.523   5.800  0.9475  1.5085  1.5535
 5108TIP3   OH215287   4.262   5.502   3.275 -0.5423 -0.2478 -0.1008
 5108TIP3    H115288   4.339   5.559   3.267 -0.5732 -0.0630  0.8404
 5108TIP3    H215289   4.297   5.417   3.303 -0.4111 -0.9547 -2.2377
 5109TIP3   OH215290   3.186   3.574   0.382  0.6586 -0.0527 -0.0792
 5109TIP3    H115291   3.183   3.535   0.295  0.4230  1.4459 -0.7790
 5109TIP3    H215292   3.102   3.550   0.422 -0.0791  0.8323 -1.0208
 5110TIP3   OH215293   4.228   0.832   0.578  0.7370  0.3026 -0.3145
 5110TIP3    H115294   4.171   0.884   0.634  0.5850  1.0241 -1.1124
 5110TIP3    H215295   4.173   0.809   0.503  1.0532 -0.3110 -0.3676
 5111TIP3   OH215296   4.686   2.741   1.202  0.0507 -0.1602  0.1918
 5111TIP3    H115297   4.746   2.726   1.130 -0.3533 -0.3800 -0.1060
 5111TIP3    H215298   4.664   2.834   1.196 -2.2160 -0.7269 -1.7761
 5112TIP3   OH215299   5.130   1.240   5.404 -0.5971  0.3286 -0.6782
 5112TIP3    H115300   5.035   1.230   5.395 -0.7404  1.1427 -0.1636
 5112TIP3    H215301   5.143   1.334   5.414 -0.0590  0.0086  2.6975
 5113TIP3   OH215302   2.079   2.515   3.108 -0.0796  0.2020 -0.2806
 5113TIP3    H115303   2.144   2.484   3.046 -0.4886  0.6685 -0.9570
 5113TIP3    H215304   2.093   2.461   3.186 -1.6772 -2.6596 -1.8286
 5114TIP3   OH215305   3.141   6.239   5.577  0.3743 -0.3846  0.0661
 5114TIP3    H115306   3.090   6.262   5.500 -0.3340  0.7204  0.8400
 5114TIP3    H215307   3.084   6.260   5.651  0.3729 -2.9623  0.9035
 5115TIP3   OH215308   5.022   1.752   4.701 -0.1015  0.0092  0.7337
 5115TIP3    H115309   5.102   1.755   4.648 -0.2811 -0.3556  0.4415
 5115TIP3    H215310   4.958   1.706   4.646 -1.0897  1.9186  0.2011
 5116TIP3   OH215311   0.997   1.848   5.068  0.7580 -0.0042  0.6742
 5116TIP3    H115312   0.960   1.891   5.145  0.2312  0.0005  0.4250
 5116TIP3    H215313   1.026   1.920   5.012 -0.3315  0.0562  0.1545
 5117TIP3   OH215314   1.539   2.118   2.127  0.0033  0.2164  0.3696
 5117TIP3    H115315   1.495   2.150   2.049  1.8279  1.9236 -0.0468
 5117TIP3    H215316   1.615   2.069   2.094 -1.0289 -2.0085  1.0715
 5118TIP3   OH215317   1.400   0.033   0.048 -0.5726  0.3100  0.8698
 5118TIP3    H115318   1.434   0.071   0.129 -0.4072 -0.3650  1.1171
 5118TIP3    H215319   1.443  -0.052   0.040 -2.0907 -0.5147  1.1261
 5119TIP3   OH215320   0.871   4.458   4.936  0.1011  0.2493  0.2867
 5119TIP3    H115321   0.896   4.417   5.019 -0.3239  0.7970  0.6989
 5119TIP3    H215322   0.915   4.543   4.937  0.5984  0.0042 -0.3434
 5120TIP3   OH215323   1.578   2.512   5.015  0.1554  0.5015 -0.4923
 5120TIP3    H115324   1.588   2.431   4.965  0.3713 -0.0694  0.4585
 5120TIP3    H215325   1.623   2.495   5.097 -0.2661  1.4002 -0.0671
 5121TIP3   OH215326   1.674   6.560   3.596 -0.1791  0.1176  0.2661
 5121TIP3    H115327   1.678   6.504   3.518 -1.5829 -0.2821  0.4446
 5121TIP3    H215328   1.592   6.536   3.638  0.2134  0.8408  1.4957
 5122TIP3   OH215329   6.773   0.791   0.836  0.0720  0.2911  0.2029
 5122TIP3    H115330   6.743   0.789   0.927 -1.0432  0.3582 -0.1391
 5122TIP3    H215331   6.709   0.737   0.788  2.1694 -2.0854 -0.1543
 5123TIP3   OH215332   4.871   4.581   3.302 -0.2819 -0.0965  0.1378
 5123TIP3    H115333   4.895   4.644   3.369 -3.5705  0.9505  0.5189
 5123TIP3    H215334   4.883   4.627   3.219 -0.3823  0.1814  0.2777
 5124TIP3   OH215335   4.486   6.593   2.192  0.0068  0.1890 -0.5470
 5124TIP3    H115336   4.401   6.620   2.157  0.7417  0.1052 -2.5383
 5124TIP3    H215337   4.487   6.627   2.282 -1.1584  2.3166 -1.2628
 5125TIP3   OH215338   1.579   5.472   1.248  0.0087 -0.2556  0.5548
 5125TIP3    H115339   1.619   5.386   1.253  0.5197 -0.0215  0.5456
 5125TIP3    H215340   1.620   5.522   1.318 -0.6887 -0.1778  0.9221
 5126TIP3   OH215341   6.178   0.752   5.129  0.2064  0.0416  0.2263
 5126TIP3    H115342   6.153   0.727   5.040 -0.7110  2.5702 -0.3164
 5126TIP3    H215343   6.248   0.692   5.152 -0.5823 -1.7052 -1.5809
 5127TIP3   OH215344   3.549   0.183   3.347  0.0235  0.1386  0.4811
 5127TIP3    H115345   3.480   0.207   3.285  0.6355 -0.4295 -0.4330
 5127TIP3    H215346   3.625   0.163   3.293  0.7939  0.3479  1.4562
 5128TIP3   OH215347   3.046   4.156   2.934  0.0242  0.1079 -0.3257
 5128TIP3    H115348   3.106   4.112   2.994  0.4029  0.2380 -0.6043
 5128TIP3    H215349   3.010   4.229   2.984 -0.2046 -0.2060 -0.0301
 5129TIP3   OH215350   1.323   0.460   0.239 -0.5170 -0.6960 -0.1953
 5129TIP3    H115351   1.304   0.550   0.212 -0.2081 -0.3067  0.8311
 5129TIP3    H215352   1.374   0.469   0.319 -1.5640 -1.7878  0.6366
 5130TIP3   OH215353   4.639   3.484   2.550 -0.1881 -0.4635  0.0754
 5130TIP3    H115354   4.592   3.549   2.497 -0.0041 -0.4505 -0.0747
 5130TIP3    H215355   4.659   3.530   2.631 -2.1170 -1.0560  0.9493
 5131TIP3   OH215356   3.017   3.176   1.897  0.2548 -0.7519 -0.0998
 5131TIP3    H115357   3.105   3.144   1.915 -0.3880 -1.6331  1.8212
 5131TIP3    H215358   2.979   3.112   1.837  1.3369  0.3951 -2.0990
 5132TIP3   OH215359   3.601   2.129   3.105 -0.2596 -0.2515 -0.2711
 5132TIP3    H115360   3.681   2.177   3.087  0.0419  0.1571  1.8515
 5132TIP3    H215361   3.533   2.196   3.112 -0.2507 -0.3154  0.5705
 5133TIP3   OH215362   4.261   1.991   3.367  0.2724  0.0238 -0.1941
 5133TIP3    H115363   4.196   2.026   3.428 -0.8422  0.1866 -1.4507
 5133TIP3    H215364   4.345   2.020   3.404  0.0584 -3.1845  3.4997
 5134TIP3   OH215365   0.580   6.389   5.146  0.2519 -0.0381  0.4854
 5134TIP3    H115366   0.645   6.429   5.087  0.7574  1.0690  1.7480
 5134TIP3    H215367   0.628   6.318   5.189 -0.0490 -0.6902 -0.2266
 5135TIP3   OH215368   3.263   3.911   0.158  0.3378 -0.1677  0.2550
 5135TIP3    H115369   3.356   3.924   0.142  0.2979 -0.0333  0.1329
 5135TIP3    H215370   3.254   3.917   0.253 -0.1444  3.9125  0.1360
 5136TIP3   OH215371   2.446   4.867   4.030 -0.2011  0.2656 -0.1414
 5136TIP3    H115372   2.398   4.873   4.113  1.3138  2.8973  0.6493
 5136TIP3    H215373   2.435   4.776   4.003 -0.6024 -0.7665  3.0438
 5137TIP3   OH215374   4.377   2.995   4.037  0.5839 -0.2180  0.1298
 5137TIP3    H115375   4.383   2.990   4.132  3.5892 -2.0101 -0.0267
 5137TIP3    H215376   4.418   3.078   4.014  0.3858 -0.0527  0.3736
 5138TIP3   OH215377   4.278   5.834   4.303 -0.1618 -0.0623  0.0602
 5138TIP3    H115378   4.229   5.752   4.303 -0.7901  0.2660  1.7681
 5138TIP3    H215379   4.223   5.895   4.254 -0.0372 -0.4531 -0.5793
 5139TIP3   OH215380   4.739   4.946   2.257 -0.0758  0.0748  0.0353
 5139TIP3    H115381   4.748   5.041   2.248  1.2165  0.1798  1.9098
 5139TIP3    H215382   4.714   4.933   2.348 -0.9533 -1.3654 -0.3853
 5140TIP3   OH215383   5.108   4.449   2.255  0.1989  0.2017 -0.5486
 5140TIP3    H115384   5.140   4.360   2.267 -1.0627 -0.2285 -0.1742
 5140TIP3    H215385   5.120   4.467   2.162 -0.2055 -0.6374 -0.7651
 5141TIP3   OH215386   5.388   6.182   3.276 -0.2750 -0.0158 -0.1771
 5141TIP3    H115387   5.376   6.142   3.362  1.6755  0.4405  0.3655
 5141TIP3    H215388   5.480   6.165   3.254 -0.1188  1.8024 -1.1469
 5142TIP3   OH215389   6.149   6.457   2.794  0.0114 -0.3427 -0.0489
 5142TIP3    H115390   6.068   6.433   2.838  0.2911  0.1288  0.7281
 5142TIP3    H215391   6.124   6.466   2.702 -0.4311 -2.0268 -0.1323
 5143TIP3   OH215392   3.778   6.069   1.433 -0.4496  0.5863  0.1235
 5143TIP3    H115393   3.821   6.001   1.486  0.5586  2.0623  1.2962
 5143TIP3    H215394   3.783   6.148   1.488 -1.6782  1.5862 -1.1473
 5144TIP3   OH215395   2.012   4.180   2.724  0.0351  0.1754  0.2668
 5144TIP3    H115396   1.990   4.196   2.633  1.2554  3.0494  0.3848
 5144TIP3    H215397   1.941   4.222   2.774  1.3147  2.0767  0.5873
 5145TIP3   OH215398   4.344   0.890   0.269 -0.3132 -0.1344  0.0238
 5145TIP3    H115399   4.253   0.907   0.293 -0.0685  0.0559  0.8290
 5145TIP3    H215400   4.385   0.976   0.266  0.2166 -0.3271  1.2315
 5146TIP3   OH215401   6.683   0.138   1.681  0.4427  0.2435  0.1810
 5146TIP3    H115402   6.613   0.203   1.689  0.1358 -0.0724  0.0814
 5146TIP3    H215403   6.749   0.181   1.626  1.6714  1.6743  2.6043
 5147TIP3   OH215404   2.866   2.406   5.668 -0.3553  0.0900 -0.2186
 5147TIP3    H115405   2.884   2.497   5.692  0.0203  0.3993 -1.6066
 5147TIP3    H215406   2.902   2.397   5.580 -0.1140 -1.4956  0.0276
 5148TIP3   OH215407   3.679   6.444   2.443 -0.0320 -0.0322 -0.3121
 5148TIP3    H115408   3.705   6.359   2.476 -0.2615  0.0916  0.1937
 5148TIP3    H215409   3.628   6.484   2.514  0.3560  0.6618 -0.4093
 5149TIP3   OH215410   1.155   0.659   2.655  0.4882  0.4011 -0.2264
 5149TIP3    H115411   1.233   0.704   2.624  0.4340  0.4964 -0.2262
 5149TIP3    H215412   1.102   0.729   2.695  2.0362 -0.1593  3.1453
 5150TIP3   OH215413   2.079   1.455   2.300  0.1509  0.5616  0.4491
 5150TIP3    H115414   2.084   1.365   2.333 -0.9269  0.0684 -0.6479
 5150TIP3    H215415   1.996   1.458   2.252 -0.4157  2.4801  1.4338
 5151TIP3   OH215416   4.397   0.652   5.300  0.1468  0.2418 -0.2527
 5151TIP3    H115417   4.484   0.687   5.316 -0.4423  1.3680  0.7099
 5151TIP3    H215418   4.339   0.708   5.352 -1.2819  0.2716 -1.7910
 5152TIP3   OH215419   6.180   4.201   0.030  0.9443 -0.0721  0.1391
 5152TIP3    H115420   6.167   4.123   0.084 -0.2084  0.1929  0.2646
 5152TIP3    H215421   6.100   4.251   0.040  1.3889  0.7995 -0.5014
 5153TIP3   OH215422   1.871   5.046   1.301 -0.0264 -0.4105  0.6796
 5153TIP3    H115423   1.841   5.043   1.392  1.5214  0.2153  1.2527
 5153TIP3    H215424   1.876   4.955   1.274 -2.7193 -0.5385  0.4166
 5154TIP3   OH215425   4.744   0.139   5.822  0.6109 -0.0056  0.0960
 5154TIP3    H115426   4.751   0.234   5.823 -0.2128  0.0584  0.1319
 5154TIP3    H215427   4.835   0.109   5.819  0.8806  0.7759  0.1254
 5155TIP3   OH215428   1.821   6.364   4.909  0.1600 -0.3968  0.2724
 5155TIP3    H115429   1.879   6.395   4.840  0.8991 -0.9708  0.6219
 5155TIP3    H215430   1.736   6.404   4.889  0.9014  1.3115  0.3462
 5156TIP3   OH215431   0.371   5.905   2.892 -0.1470 -0.3474 -0.0609
 5156TIP3    H115432   0.464   5.897   2.870  0.9863  1.4544  3.2541
 5156TIP3    H215433   0.339   5.815   2.895  2.5112 -1.3689  2.1524
 5157TIP3   OH215434   5.878   3.419   5.061  0.2730  0.3364 -0.7666
 5157TIP3    H115435   5.788   3.402   5.091  0.0757  1.1797 -0.8580
 5157TIP3    H215436   5.870   3.494   5.003  1.1516  0.9511 -0.1217
 5158TIP3   OH215437   2.712   2.425   5.176  0.7357 -0.0198  0.5897
 5158TIP3    H115438   2.647   2.356   5.163  2.1720 -1.3702  0.3385
 5158TIP3    H215439   2.681   2.498   5.122  0.0469 -1.0506 -0.4426
 5159TIP3   OH215440   4.733   3.115   4.732 -0.3902  0.7388 -0.1478
 5159TIP3    H115441   4.695   3.078   4.812 -1.1208  0.1591 -0.7546
 5159TIP3    H215442   4.828   3.114   4.749 -0.3298 -1.6770 -0.2204
 5160TIP3   OH215443   4.506   2.683   0.634 -0.6730  0.2135  0.1201
 5160TIP3    H115444   4.532   2.660   0.544  3.5674  0.8244  0.9792
 5160TIP3    H215445   4.464   2.769   0.626  1.1442  1.0386 -1.1833
 5161TIP3   OH215446   1.577   6.596   0.494 -0.2084 -0.0656 -0.0802
 5161TIP3    H115447   1.498   6.599   0.439 -1.4840  0.1210  1.6782
 5161TIP3    H215448   1.580   6.507   0.527  0.7800 -0.2888 -0.7303
 5162TIP3   OH215449   1.909   1.758   5.821 -0.4008 -0.0438 -0.1717
 5162TIP3    H115450   1.989   1.722   5.860 -1.0233 -1.4888 -0.1535
 5162TIP3    H215451   1.902   1.715   5.736  0.2181  2.0726 -1.3607
 5163TIP3   OH215452   3.014   2.277   1.583  0.2871 -0.7815 -0.0789
 5163TIP3    H115453   2.983   2.367   1.581 -1.4746 -1.3268  0.3079
 5163TIP3    H215454   3.087   2.275   1.521 -1.6242  0.2402 -2.5607
 5164TIP3   OH215455   4.116   2.706   3.187 -0.6302 -0.3545  0.5801
 5164TIP3    H115456   4.041   2.706   3.127 -0.4739 -2.2172  0.3205
 5164TIP3    H215457   4.112   2.620   3.230  1.0770 -0.3025  0.9186
 5165TIP3   OH215458   1.651   5.884   4.598  0.3377  0.3575  0.3256
 5165TIP3    H115459   1.639   5.832   4.519  1.4623  2.3229 -1.2210
 5165TIP3    H215460   1.746   5.890   4.609  0.2224 -0.8037  2.5202
 5166TIP3   OH215461   3.767   2.177   0.638  0.2396  0.0880  0.3465
 5166TIP3    H115462   3.682   2.171   0.595  0.2290 -0.7812  0.4653
 5166TIP3    H215463   3.747   2.204   0.728 -0.0281 -1.2199  0.7004
 5167TIP3   OH215464   6.839   0.550   0.616  0.1792 -0.3193 -0.4383
 5167TIP3    H115465   6.752   0.588   0.606  0.5546  1.0410  0.9935
 5167TIP3    H215466   6.830   0.488   0.688  0.6372  0.7894  0.6106
 5168TIP3   OH215467   1.968   4.857   0.568  0.3646  0.4682  0.2743
 5168TIP3    H115468   1.906   4.910   0.517  0.6435 -0.0415 -0.6284
 5168TIP3    H215469   1.961   4.770   0.529  1.6441  0.4006  0.1496
 5169TIP3   OH215470   1.595   3.154   5.655 -0.5183  0.2803 -0.6315
 5169TIP3    H115471   1.521   3.107   5.695 -0.6378  0.4568 -0.6420
 5169TIP3    H215472   1.578   3.246   5.675 -0.2978  0.3205 -0.6319
 5170TIP3   OH215473   2.149   6.216   1.709  0.2646 -0.1739 -0.4956
 5170TIP3    H115474   2.117   6.306   1.715 -1.6594 -0.9144  1.9917
 5170TIP3    H215475   2.224   6.221   1.650  0.0675  2.9922 -0.6308
 5171TIP3   OH215476   6.637   4.706   0.983  0.1819  0.8106 -0.4079
 5171TIP3    H115477   6.676   4.774   1.038  0.4868  0.1671  0.1830
 5171TIP3    H215478   6.710   4.651   0.957 -0.3197 -0.6253  1.0139
 5172TIP3   OH215479   1.409   6.447   5.201  0.1863 -0.2968 -0.3258
 5172TIP3    H115480   1.457   6.395   5.265  0.1115  0.7028  0.5710
 5172TIP3    H215481   1.438   6.537   5.217 -1.3213  0.2166 -0.3477
 5173TIP3   OH215482   1.845   4.531   3.927  1.0322  0.0171 -0.2157
 5173TIP3    H115483   1.938   4.542   3.905  1.6342 -2.6506  0.6755
 5173TIP3    H215484   1.822   4.445   3.892 -1.2710  0.8011 -0.7851
 5174TIP3   OH215485   4.195   6.730   5.832  0.0344 -0.5880  0.6515
 5174TIP3    H115486   4.124   6.769   5.782  1.4410 -2.7270 -3.5085
 5174TIP3    H215487   4.256   6.802   5.847 -1.4474  0.5782  1.2968
 5175TIP3   OH215488   3.231   1.843   3.308  0.0953 -0.4843 -0.1750
 5175TIP3    H115489   3.297   1.860   3.375 -1.3399 -0.4981  1.2886
 5175TIP3    H215490   3.208   1.929   3.274 -1.7807 -0.0681  1.9634
 5176TIP3   OH215491   6.779   6.760   0.166  0.2996 -0.4409 -0.2107
 5176TIP3    H115492   6.748   6.843   0.129 -0.4111 -0.1872  0.8939
 5176TIP3    H215493   6.702   6.703   0.165 -0.1382  0.0218  2.0776
 5177TIP3   OH215494   2.272   4.844   2.958  0.2390 -0.1021  0.3673
 5177TIP3    H115495   2.195   4.889   2.993  1.1832  0.8392  1.3165
 5177TIP3    H215496   2.323   4.912   2.914  0.3176 -0.8011 -0.6728
 5178TIP3   OH215497   0.999   4.971   4.617  0.0680 -0.2046  0.1482
 5178TIP3    H115498   0.960   4.989   4.531 -0.8508  1.2401  0.8273
 5178TIP3    H215499   0.928   4.929   4.667 -0.1909  1.1099  0.9284
 5179TIP3   OH215500   6.022   0.298   2.854  0.2663 -0.4566  0.4179
 5179TIP3    H115501   6.015   0.348   2.935  1.3332 -0.2739  0.4032
 5179TIP3    H215502   6.089   0.232   2.872  1.1137  0.1105 -0.5726
 5180TIP3   OH215503   2.187   5.475   0.158  0.0825 -0.0778 -0.1942
 5180TIP3    H115504   2.106   5.525   0.166  0.9862  1.6959 -1.4867
 5180TIP3    H215505   2.179   5.407   0.225 -1.8492  0.9013  0.6701
 5181TIP3   OH215506   2.418   6.783   4.287 -0.1983 -0.3274 -0.5981
 5181TIP3    H115507   2.466   6.783   4.369 -0.2747 -1.1847 -0.5459
 5181TIP3    H215508   2.340   6.730   4.305 -1.0629  0.8261 -0.7469
 5182TIP3   OH215509   0.774   3.599   5.245  0.3258  0.2237 -0.2458
 5182TIP3    H115510   0.789   3.508   5.273 -1.5350 -0.0608 -0.0516
 5182TIP3    H215511   0.858   3.628   5.211  1.2491 -1.2139  0.7045
 5183TIP3   OH215512   4.379   5.472   4.980 -0.0319  0.0654 -0.0882
 5183TIP3    H115513   4.325   5.415   4.925  0.0907  0.1515 -0.2982
 5183TIP3    H215514   4.358   5.560   4.949  1.2542  0.0435 -1.1231
 5184TIP3   OH215515   3.793   5.082   4.760 -0.4684  0.6027 -0.0436
 5184TIP3    H115516   3.776   5.106   4.669 -0.4957  0.8588  0.0278
 5184TIP3    H215517   3.711   5.044   4.791 -0.1101 -0.5530 -0.4645
 5185TIP3   OH215518   0.563   1.194   3.702  0.3003  0.4359 -0.0825
 5185TIP3    H115519   0.555   1.124   3.767 -1.1228  0.9396  0.3070
 5185TIP3    H215520   0.656   1.193   3.678  0.5249 -0.8482  0.7288
 5186TIP3   OH215521   0.251   1.777   5.752  0.3387  0.1236 -0.0318
 5186TIP3    H115522   0.243   1.719   5.677  1.6003  2.1511 -1.8307
 5186TIP3    H215523   0.179   1.752   5.810 -0.3343 -1.8622 -1.6389
 5187TIP3   OH215524   6.960   1.487   4.495  0.3493  0.1177 -0.0356
 5187TIP3    H115525   6.928   1.570   4.532  0.5355  0.3671 -0.4323
 5187TIP3    H215526   6.896   1.465   4.428 -0.5752 -0.8808  1.1136
 5188TIP3   OH215527   1.984   3.595   1.632  0.2077  0.1085  0.1041
 5188TIP3    H115528   1.923   3.624   1.699  0.1506 -2.1913  1.1432
 5188TIP3    H215529   2.060   3.653   1.642  0.1286 -0.0604  2.0772
 5189TIP3   OH215530   6.173   5.980   0.640 -0.0721 -0.0214 -0.1166
 5189TIP3    H115531   6.090   5.989   0.686  0.0526  0.1711  0.0669
 5189TIP3    H215532   6.176   5.887   0.617  0.0440 -0.2007  0.5981
 5190TIP3   OH215533   4.636   1.829   4.520 -0.0071 -0.1764 -0.2247
 5190TIP3    H115534   4.556   1.828   4.468  1.0432  1.8271 -2.0517
 5190TIP3    H215535   4.703   1.862   4.461  2.0662 -1.1693  1.4241
 5191TIP3   OH215536   0.008   3.967   5.851 -0.0936  0.0180  0.2606
 5191TIP3    H115537  -0.056   3.995   5.915 -2.0020 -2.7371 -0.2744
 5191TIP3    H215538   0.057   3.897   5.895  1.2269  0.7177 -0.0333
 5192TIP3   OH215539   2.270   2.019   3.445 -0.6945 -0.2591 -0.2366
 5192TIP3    H115540   2.176   2.034   3.433 -0.5416 -0.2098 -1.4356
 5192TIP3    H215541   2.303   1.999   3.358  0.3167 -0.8622  0.2637
 5193TIP3   OH215542   4.793   0.584   3.907 -0.2398  0.3310  1.1026
 5193TIP3    H115543   4.804   0.548   3.995 -1.2381 -0.6859  0.8373
 5193TIP3    H215544   4.869   0.551   3.858  1.6724  2.8632  2.1113
 5194TIP3   OH215545   5.255   2.498   4.662  0.2092 -0.5956  0.5256
 5194TIP3    H115546   5.236   2.437   4.592 -1.1214 -1.2052  1.3760
 5194TIP3    H215547   5.196   2.473   4.733 -1.3765  2.4786  0.4714
 5195TIP3   OH215548   3.881   3.470   3.935 -0.3980 -0.1978  0.0442
 5195TIP3    H115549   3.799   3.485   3.889 -0.1281 -0.4757 -0.5406
 5195TIP3    H215550   3.855   3.428   4.018 -0.8898  0.3808  0.1837
 5196TIP3   OH215551   1.513   5.816   2.106  0.1327 -0.2087  0.2225
 5196TIP3    H115552   1.419   5.815   2.121 -0.3386 -0.1228 -2.2037
 5196TIP3    H215553   1.528   5.752   2.037  1.8562 -0.1867  0.5106
 5197TIP3   OH215554   1.797   4.463   3.585 -0.6643 -0.1027  0.1901
 5197TIP3    H115555   1.812   4.541   3.531 -1.9177  0.1867  0.2212
 5197TIP3    H215556   1.870   4.463   3.647 -1.0765  1.5405  0.7449
 5198TIP3   OH215557   5.232   1.552   2.864 -0.7039  0.7802 -0.4234
 5198TIP3    H115558   5.240   1.458   2.881  0.8910  1.1962  1.5254
 5198TIP3    H215559   5.290   1.569   2.790 -0.5680  0.3093 -0.4254
 5199TIP3   OH215560   3.369   3.801   3.616  0.3660  0.4840  0.2353
 5199TIP3    H115561   3.352   3.774   3.706 -2.3027 -1.1559 -0.6460
 5199TIP3    H215562   3.367   3.897   3.619 -1.9264  0.4569  1.6144
 5200TIP3   OH215563   5.670   0.857   4.813 -0.1970  0.0274 -0.0599
 5200TIP3    H115564   5.668   0.905   4.731 -0.6268  0.1400  0.0094
 5200TIP3    H215565   5.750   0.886   4.856  0.0192 -0.0177 -0.4301
 5201TIP3   OH215566   3.246   3.483   0.662  0.1136 -0.3271 -0.6011
 5201TIP3    H115567   3.316   3.419   0.647 -0.3770 -0.3412 -3.2165
 5201TIP3    H215568   3.188   3.474   0.586 -0.8263  2.1532 -0.2633
 5202TIP3   OH215569   1.590   0.898   0.599 -0.4986 -0.2390 -0.2977
 5202TIP3    H115570   1.525   0.965   0.619 -0.8974 -1.0807  1.3773
 5202TIP3    H215571   1.666   0.947   0.566 -0.5318  1.1246  1.5118
 5203TIP3   OH215572   4.919   0.064   0.275  0.2726 -0.2864 -0.1323
 5203TIP3    H115573   4.947   0.111   0.353  1.4151 -0.3737 -0.4629
 5203TIP3    H215574   4.874  -0.014   0.308  0.8187 -0.3676  0.4317
 5204TIP3   OH215575   2.776   4.930   1.479 -0.1707 -0.0652  0.4155
 5204TIP3    H115576   2.851   4.991   1.479  0.0969 -0.3413  1.9016
 5204TIP3    H215577   2.717   4.965   1.413 -0.3149  2.2115  1.6300
 5205TIP3   OH215578   0.787   3.155   0.295 -0.2151  0.4406  0.0109
 5205TIP3    H115579   0.842   3.232   0.310  0.4729 -0.2658  1.2086
 5205TIP3    H215580   0.844   3.080   0.313 -1.5153 -0.3189  1.1546
 5206TIP3   OH215581   1.082   2.532   1.454 -0.4742  0.1176 -0.2071
 5206TIP3    H115582   1.106   2.442   1.435 -1.9195 -0.0754 -1.2979
 5206TIP3    H215583   1.133   2.585   1.393 -0.4539 -0.0476 -0.3321
 5207TIP3   OH215584   3.535   3.573   0.772  0.3564  0.7576  0.4943
 5207TIP3    H115585   3.455   3.539   0.732  0.6285 -0.2461  0.7760
 5207TIP3    H215586   3.600   3.572   0.701  0.6193 -0.2407  0.7387
 5208TIP3   OH215587   1.586   4.405   1.072  0.2132 -0.5952  0.9021
 5208TIP3    H115588   1.504   4.453   1.060 -0.0311 -1.3558 -0.6625
 5208TIP3    H215589   1.612   4.426   1.162 -1.5002 -0.0483  1.3162
 5209TIP3   OH215590   1.354   0.504   0.879  0.3607  0.6766  0.9766
 5209TIP3    H115591   1.266   0.474   0.901  0.2604  1.4310  1.6463
 5209TIP3    H215592   1.347   0.538   0.790 -0.1736  1.3214  1.2612
 5210TIP3   OH215593   5.253   0.937   1.806  0.1052  0.0883  0.7812
 5210TIP3    H115594   5.239   0.847   1.837  0.7257 -0.5182 -0.6155
 5210TIP3    H215595   5.334   0.965   1.849  1.3866 -1.0269 -0.7698
 5211TIP3   OH215596   1.524   6.429   0.102 -0.0970  0.0318 -0.4734
 5211TIP3    H115597   1.585   6.455   0.171 -0.4286 -0.8559  0.1765
 5211TIP3    H215598   1.475   6.509   0.082 -0.5110  0.1342  0.8703
 5212TIP3   OH215599   2.603   5.309   3.925  0.3229  0.6925 -0.1218
 5212TIP3    H115600   2.691   5.347   3.914 -0.1199  1.6645 -0.4304
 5212TIP3    H215601   2.604   5.273   4.014  1.1987  0.2272 -0.3016
 5213TIP3   OH215602   5.999   3.366   0.930 -0.3235  0.2159 -0.1862
 5213TIP3    H115603   5.934   3.365   1.000 -1.6025 -0.2275 -1.3402
 5213TIP3    H215604   6.075   3.321   0.968 -0.8141  0.3771  1.0502
 5214TIP3   OH215605   4.554   4.411   0.905  1.1979  0.3375 -0.6907
 5214TIP3    H115606   4.468   4.369   0.913  2.2424 -1.7496  0.7124
 5214TIP3    H215607   4.541   4.479   0.839 -1.9491  1.3044  0.6918
 5215TIP3   OH215608   7.132   6.020   3.932 -0.3256 -0.1165 -0.2479
 5215TIP3    H115609   7.127   6.080   4.007 -0.0467 -0.8228  0.3437
 5215TIP3    H215610   7.071   5.950   3.954  0.4318 -0.7868 -0.2577
 5216TIP3   OH215611   3.453   5.393   1.823  0.1518 -0.4161  1.0837
 5216TIP3    H115612   3.487   5.357   1.741 -0.6188  1.5058 -0.1306
 5216TIP3    H215613   3.387   5.329   1.852  0.5540 -1.1982  0.3151
 5217TIP3   OH215614   1.936   6.641   0.132  0.4549  0.3962 -0.5365
 5217TIP3    H115615   1.931   6.735   0.148 -1.1069  0.2659 -0.0982
 5217TIP3    H215616   1.919   6.602   0.218 -0.2145 -0.2806 -0.9690
 5218TIP3   OH215617   2.102   6.109   0.723 -0.0446 -0.2188  0.3366
 5218TIP3    H115618   2.052   6.191   0.727 -0.4397 -0.4947  1.6424
 5218TIP3    H215619   2.169   6.119   0.791  0.9612 -0.3249 -0.6220
 5219TIP3   OH215620   3.275   3.813   1.192  0.4479  0.1451  0.8999
 5219TIP3    H115621   3.343   3.849   1.249 -0.6922  0.4326  2.1341
 5219TIP3    H215622   3.323   3.766   1.124  1.8856 -1.8364  3.1289
 5220TIP3   OH215623   4.915   5.629   4.932 -0.5885 -0.4575 -0.1028
 5220TIP3    H115624   4.821   5.634   4.914 -0.9224 -1.1197  1.3237
 5220TIP3    H215625   4.934   5.708   4.983 -0.3820 -0.3523 -0.3423
 5221TIP3   OH215626   1.354   1.869   2.931  0.1012  0.0337  0.2232
 5221TIP3    H115627   1.266   1.890   2.961  0.0137 -2.5533  2.0890
 5221TIP3    H215628   1.409   1.881   3.009  1.0310 -0.3850 -0.3509
 5222TIP3   OH215629   4.264   4.939   3.578  0.7583  0.0706  0.2098
 5222TIP3    H115630   4.280   5.018   3.526  0.4144 -0.5692 -0.9214
 5222TIP3    H215631   4.259   4.869   3.512 -0.2695 -0.6920  1.0705
 5223TIP3   OH215632   1.462   5.231   3.719  0.6904  0.2410  0.1973
 5223TIP3    H115633   1.392   5.246   3.655  0.2312  1.8781  1.0379
 5223TIP3    H215634   1.511   5.157   3.683 -0.7852 -0.2186 -0.9855
 5224TIP3   OH215635   4.595   2.229   4.602 -0.6728  0.1297 -0.1225
 5224TIP3    H115636   4.540   2.261   4.530 -1.0671  1.9384  0.9188
 5224TIP3    H215637   4.543   2.244   4.681  1.2103  1.8168  0.8872
 5225TIP3   OH215638   1.194   2.346   5.056  0.0342  0.4774  0.1644
 5225TIP3    H115639   1.186   2.406   5.130 -1.1388  0.8296 -0.2209
 5225TIP3    H215640   1.256   2.280   5.085 -2.9853 -1.4845  2.9607
 5226TIP3   OH215641   6.961   0.500   0.193  0.0207  0.7485  0.3136
 5226TIP3    H115642   6.983   0.424   0.247 -0.2494  1.0256  0.8253
 5226TIP3    H215643   6.906   0.465   0.123  2.2039  0.0024 -1.1235
 5227TIP3   OH215644   0.856   3.082   1.900  0.1350 -0.3929 -0.1669
 5227TIP3    H115645   0.922   3.118   1.841  0.9474  1.0776  1.5517
 5227TIP3    H215646   0.896   3.087   1.987 -1.4757 -1.3657  0.6749
 5228TIP3   OH215647   3.219   5.545   1.586 -0.0363  0.4423  0.3362
 5228TIP3    H115648   3.268   5.463   1.584 -0.3087  0.2072  1.8674
 5228TIP3    H215649   3.283   5.612   1.561  0.0333 -0.2592 -1.5675
 5229TIP3   OH215650   1.000   6.107   1.555  0.0853 -0.2264 -0.0910
 5229TIP3    H115651   0.947   6.064   1.487 -0.9168 -0.0278  0.5527
 5229TIP3    H215652   1.046   6.177   1.509 -0.0661 -0.5115 -0.6883
 5230TIP3   OH215653   6.276   0.415   5.304  0.8127 -0.4227  0.0373
 5230TIP3    H115654   6.250   0.474   5.375 -1.5844  1.3644 -2.1366
 5230TIP3    H215655   6.352   0.458   5.264  0.3006  0.1590 -0.3186
 5231TIP3   OH215656   6.466   6.193   4.739  0.1557  0.0075  0.1340
 5231TIP3    H115657   6.505   6.254   4.801  0.6660  0.0537 -0.2250
 5231TIP3    H215658   6.459   6.110   4.788 -1.1851  0.5025  0.8461
 5232TIP3   OH215659   2.253   6.697   1.718  0.6828 -0.1739 -0.3822
 5232TIP3    H115660   2.283   6.619   1.672  0.5696 -0.3387 -0.1806
 5232TIP3    H215661   2.304   6.769   1.681 -1.1018  0.0995 -2.5441
 5233TIP3   OH215662   4.568   1.888   2.121 -0.2092 -0.3299 -0.0451
 5233TIP3    H115663   4.597   1.974   2.150 -1.3190  0.0049  0.1256
 5233TIP3    H215664   4.634   1.827   2.154  0.7259  0.4749 -0.4004
 5234TIP3   OH215665   6.755   5.843   0.143 -0.5514  0.6252 -0.6324
 5234TIP3    H115666   6.833   5.795   0.115 -1.5370 -0.2285 -2.0378
 5234TIP3    H215667   6.736   5.903   0.072 -0.9822  1.0842 -0.1427
 5235TIP3   OH215668   2.645   4.475   1.799  0.0580 -0.7238 -0.1658
 5235TIP3    H115669   2.650   4.387   1.836 -0.7937 -1.2774 -1.2844
 5235TIP3    H215670   2.617   4.461   1.708 -0.2188  0.7056 -0.3274
 5236TIP3   OH215671   0.927   4.780   5.085  0.1799 -0.1284  0.0679
 5236TIP3    H115672   0.850   4.815   5.041 -0.7232 -0.9565  0.9570
 5236TIP3    H215673   0.935   4.690   5.054  2.1816  0.5994 -1.8000
 5237TIP3   OH215674   5.736   1.376   3.151  0.6085 -0.2932  0.1315
 5237TIP3    H115675   5.644   1.368   3.128  0.8020 -0.4637 -0.5909
 5237TIP3    H215676   5.756   1.469   3.143  0.7174 -0.3732 -0.5699
 5238TIP3   OH215677   1.313   3.477   2.886 -0.1065  0.2856 -0.7954
 5238TIP3    H115678   1.374   3.438   2.948 -0.3486 -1.8942 -1.7977
 5238TIP3    H215679   1.238   3.503   2.939  0.9385  1.3573  0.2043
 5239TIP3   OH215680   1.195   0.293   3.325  0.3903 -0.1403  0.3032
 5239TIP3    H115681   1.216   0.254   3.240 -0.2759  0.9012 -0.3633
 5239TIP3    H215682   1.279   0.328   3.356  0.8224 -1.3474  0.5262
 5240TIP3   OH215683   0.648   5.096   4.719  0.0701 -0.0231 -0.3450
 5240TIP3    H115684   0.562   5.117   4.755  0.4769  1.6382 -0.2496
 5240TIP3    H215685   0.631   5.084   4.625 -0.2253  0.6611 -0.3886
 5241TIP3   OH215686   6.599   5.061   2.369  0.0914 -0.1354  0.2227
 5241TIP3    H115687   6.561   5.011   2.441 -0.6109  1.7505  1.2483
 5241TIP3    H215688   6.630   4.995   2.307 -0.6593 -1.8009  1.5388
 5242TIP3   OH215689   1.047   5.174   2.116 -0.3510 -0.4411 -0.1855
 5242TIP3    H115690   1.017   5.084   2.102  0.5604 -0.5736 -1.4955
 5242TIP3    H215691   1.095   5.196   2.036  1.0356  0.5675  0.8672
 5243TIP3   OH215692   1.864   0.107   5.270  0.4055 -0.0533  0.0953
 5243TIP3    H115693   1.840   0.147   5.353 -0.2190  0.0624 -0.1356
 5243TIP3    H215694   1.957   0.087   5.279  0.5453  0.7457  0.4989
 5244TIP3   OH215695   2.580   3.187   0.467 -0.3983 -0.4098 -0.4397
 5244TIP3    H115696   2.593   3.092   0.459  1.6458 -0.2380  0.3441
 5244TIP3    H215697   2.575   3.218   0.377  2.0426 -0.9240 -0.8115
 5245TIP3   OH215698   5.126   4.049   0.950 -0.0335  0.0878 -0.8600
 5245TIP3    H115699   5.178   3.970   0.938 -1.6706 -1.2978  0.4843
 5245TIP3    H215700   5.185   4.121   0.927  2.3362 -1.3769  0.2212
 5246TIP3   OH215701   1.187   2.603   4.043  0.4079 -0.7671 -0.5974
 5246TIP3    H115702   1.151   2.574   4.127  0.1967  0.3980 -0.2766
 5246TIP3    H215703   1.111   2.627   3.991  0.5956 -0.4458 -0.7273
 5247TIP3   OH215704   6.255   1.298   2.220  0.6130 -0.7933 -0.5958
 5247TIP3    H115705   6.204   1.294   2.300  1.4063  1.2343  0.0667
 5247TIP3    H215706   6.341   1.264   2.244  0.1002 -2.7897 -1.3393
 5248TIP3   OH215707   0.485   5.411   3.863  0.1409  0.3282 -0.0684
 5248TIP3    H115708   0.507   5.484   3.805  0.6365  0.4232  0.2292
 5248TIP3    H215709   0.425   5.357   3.813  1.5731 -0.2906 -1.1609
 5249TIP3   OH215710   0.123   4.966   4.576  0.4267  0.4218  0.1104
 5249TIP3    H115711   0.041   4.962   4.626  0.0350 -1.3385 -0.6137
 5249TIP3    H215712   0.170   4.886   4.599  3.4521  2.6931  2.8467
 5250TIP3   OH215713   1.628   4.031   0.824  0.3712 -0.1641 -0.3120
 5250TIP3    H115714   1.660   4.042   0.914 -2.3862  0.6992  0.6705
 5250TIP3    H215715   1.588   3.944   0.823 -2.2888  0.9419  0.3287
 5251TIP3   OH215716   3.391   2.658   2.027 -0.7695  0.2425  0.1719
 5251TIP3    H115717   3.320   2.616   2.076 -0.2739 -0.2500  0.4809
 5251TIP3    H215718   3.404   2.742   2.071  0.4621 -0.6836  1.6670
 5252TIP3   OH215719   3.313   3.041   0.190  0.5970 -0.2767 -0.2911
 5252TIP3    H115720   3.381   3.094   0.232  0.6782  0.7082 -1.5989
 5252TIP3    H215721   3.298   3.083   0.105 -2.7077  0.4766  0.5018
 5253TIP3   OH215722   5.639   5.409   3.889  0.3528 -0.0020 -0.2295
 5253TIP3    H115723   5.607   5.495   3.863 -0.0611  0.1816  0.8176
 5253TIP3    H215724   5.597   5.347   3.829 -1.0444  0.3385  0.3651
 5254TIP3   OH215725   1.330   5.152   3.941 -0.4626 -0.1396  0.6505
 5254TIP3    H115726   1.395   5.175   3.875 -0.6132  1.7130  1.0978
 5254TIP3    H215727   1.248   5.145   3.893 -0.3414 -0.1491  0.4442
 5255TIP3   OH215728   6.753   1.510   4.304  0.2687 -0.0524 -0.2481
 5255TIP3    H115729   6.710   1.430   4.274 -2.0994  1.9516 -2.7360
 5255TIP3    H215730   6.773   1.558   4.224 -1.2693  3.1893  1.1236
 5256TIP3   OH215731   5.121   2.929   0.932 -0.5348 -0.0645 -0.0950
 5256TIP3    H115732   5.173   2.996   0.886 -1.8349  0.5131 -0.7826
 5256TIP3    H215733   5.174   2.906   1.008 -0.2503  2.1666  0.4710
 5257TIP3   OH215734   6.683   3.280   1.448 -0.0051 -0.3885 -0.0507
 5257TIP3    H115735   6.775   3.262   1.465  0.2457  0.5970 -0.3023
 5257TIP3    H215736   6.653   3.329   1.524  0.3029  1.2967 -0.9560
 5258TIP3   OH215737   3.677   5.209   4.166 -0.2575  0.1429 -0.6734
 5258TIP3    H115738   3.769   5.236   4.157 -0.5402  1.7782  0.8290
 5258TIP3    H215739   3.682   5.119   4.198  0.7870 -0.1607 -1.5986
 5259TIP3   OH215740   2.361   5.483   2.699  0.1104 -0.1857  0.0189
 5259TIP3    H115741   2.431   5.545   2.677 -1.3390  1.7207  0.4941
 5259TIP3    H215742   2.367   5.472   2.794 -0.2092 -0.0526  0.0549
 5260TIP3   OH215743   3.953   5.854   3.310  0.0172  0.0385  0.5292
 5260TIP3    H115744   3.903   5.935   3.320 -0.5868 -0.3764  0.9000
 5260TIP3    H215745   3.887   5.785   3.303  0.4897 -0.2801 -1.3344
 5261TIP3   OH215746   6.507   5.316   3.516  0.5560 -0.0698  0.0427
 5261TIP3    H115747   6.524   5.303   3.422  0.3560 -0.2123  0.0256
 5261TIP3    H215748   6.586   5.359   3.549  0.8048 -0.4071 -0.1049
 5262TIP3   OH215749   6.740   6.438   2.261 -0.3555 -0.3240  0.1808
 5262TIP3    H115750   6.747   6.530   2.238 -1.1080 -0.2796  0.1141
 5262TIP3    H215751   6.829   6.413   2.287 -0.1695  0.4443  0.3046
 5263TIP3   OH215752   3.745   2.853   2.755  0.1068  0.7507  0.0457
 5263TIP3    H115753   3.771   2.832   2.845  0.0227  0.1760 -0.0607
 5263TIP3    H215754   3.682   2.925   2.765 -3.1045 -1.9117  0.8082
 5264TIP3   OH215755   5.889   1.416   5.733 -0.2527 -0.3174 -0.1116
 5264TIP3    H115756   5.956   1.454   5.677 -0.7235  0.7178 -0.0107
 5264TIP3    H215757   5.876   1.328   5.699  2.0503 -1.0231  0.6777
 5265TIP3   OH215758   5.742   3.168   1.814  0.4838  0.1731  0.6535
 5265TIP3    H115759   5.678   3.098   1.828 -0.1992  0.7279  0.3157
 5265TIP3    H215760   5.799   3.164   1.891 -0.3966  0.1492  1.3068
 5266TIP3   OH215761   3.400   0.452   0.116  0.3195  0.3598  0.3363
 5266TIP3    H115762   3.312   0.474   0.146 -0.1164 -2.6170  1.5370
 5266TIP3    H215763   3.449   0.433   0.196  1.3704 -0.2623 -0.4288
 5267TIP3   OH215764   0.269   5.236   5.553  1.1117  0.0708 -0.1812
 5267TIP3    H115765   0.270   5.315   5.607  1.7809 -0.1954  0.1982
 5267TIP3    H215766   0.181   5.235   5.514  1.9275  2.5499 -2.4491
 5268TIP3   OH215767   0.103   6.397   1.357  0.8828  0.2270  0.3635
 5268TIP3    H115768   0.176   6.379   1.416  1.5211 -1.2786 -0.7945
 5268TIP3    H215769   0.141   6.389   1.269 -0.3482  0.9520 -0.2559
 5269TIP3   OH215770   3.288   4.065   2.780  0.6652  0.3097  0.1990
 5269TIP3    H115771   3.346   4.089   2.852 -1.7524  0.9292  2.1227
 5269TIP3    H215772   3.200   4.085   2.813 -0.5859  0.7408 -3.0234
 5270TIP3   OH215773   3.480   5.563   4.100  0.0363 -0.6762 -0.1831
 5270TIP3    H115774   3.564   5.540   4.059 -0.4483 -1.0985 -0.9633
 5270TIP3    H215775   3.471   5.500   4.171  1.3782  0.7174  1.3001
 5271TIP3   OH215776   7.071   3.537   3.215  0.5767 -0.7345 -0.1277
 5271TIP3    H115777   7.020   3.479   3.271  1.2484 -0.1525  1.1209
 5271TIP3    H215778   7.098   3.482   3.141 -0.8523 -1.3429 -0.2277
 5272TIP3   OH215779   5.162   1.426   4.831  0.2284 -0.3304 -0.0398
 5272TIP3    H115780   5.197   1.461   4.750 -0.8510 -0.2705 -0.4966
 5272TIP3    H215781   5.190   1.334   4.832 -0.8085 -0.6840 -1.1249
 5273TIP3   OH215782   2.628   0.966   4.780 -0.6470 -0.2563 -0.1875
 5273TIP3    H115783   2.666   0.956   4.692  0.5195  3.0762 -0.2319
 5273TIP3    H215784   2.697   0.936   4.839 -0.3945 -0.1115 -0.4018
 5274TIP3   OH215785   5.742   5.339   3.477 -0.1148  0.3660  0.0947
 5274TIP3    H115786   5.684   5.414   3.471 -0.9296 -0.3087 -0.7152
 5274TIP3    H215787   5.804   5.362   3.547 -2.2701  0.4745  2.0913
 5275TIP3   OH215788   6.754   0.466   3.270  0.1907  0.0001  0.2353
 5275TIP3    H115789   6.709   0.476   3.354  2.8282  0.5175  1.7324
 5275TIP3    H215790   6.771   0.556   3.242 -2.4845 -0.0928 -2.0325
 5276TIP3   OH215791   3.997   4.241   2.128 -0.0317  0.5137  0.0851
 5276TIP3    H115792   4.048   4.321   2.138 -0.8793  1.4127 -2.1980
 5276TIP3    H215793   4.055   4.181   2.080 -0.3223  0.7403 -0.5592
 5277TIP3   OH215794   5.797   5.657   0.174  0.2598 -0.3429  0.1004
 5277TIP3    H115795   5.788   5.568   0.138  2.7294  0.6397 -3.3981
 5277TIP3    H215796   5.711   5.697   0.161  0.5210 -0.6396 -3.4041
 5278TIP3   OH215797   5.830   0.896   2.460 -0.2522  0.5710 -0.1561
 5278TIP3    H115798   5.748   0.912   2.414 -1.2246 -0.4220  1.1496
 5278TIP3    H215799   5.848   0.978   2.505 -0.7318  0.6881 -0.1701
 5279TIP3   OH215800   1.329   2.190   1.595 -0.1714 -0.1635  0.3781
 5279TIP3    H115801   1.372   2.119   1.547 -0.7676 -0.3082  0.0421
 5279TIP3    H215802   1.330   2.264   1.533 -0.7414 -0.2831  0.2198
 5280TIP3   OH215803   4.966   6.135   4.668 -0.2967 -0.2569  0.1359
 5280TIP3    H115804   4.946   6.168   4.756 -0.1988 -0.7085  0.3347
 5280TIP3    H215805   5.058   6.157   4.655 -0.9556  2.1077 -0.9093
 5281TIP3   OH215806   4.926   5.384   1.513 -0.2321  0.8843  0.7167
 5281TIP3    H115807   4.999   5.446   1.514  0.6302 -0.0650 -0.3117
 5281TIP3    H215808   4.913   5.364   1.421  0.0169 -1.0159  1.0563
 5282TIP3   OH215809   2.129   0.088   1.767  0.1575 -0.2294  0.1850
 5282TIP3    H115810   2.040   0.060   1.788 -0.3122  1.1017  0.0660
 5282TIP3    H215811   2.183   0.053   1.839 -0.5608 -0.4933  0.6005
 5283TIP3   OH215812   2.159   1.506   0.504  0.0212 -0.0951  0.6459
 5283TIP3    H115813   2.154   1.601   0.488  0.2094 -0.1399  0.3036
 5283TIP3    H215814   2.080   1.486   0.553 -0.7414  0.0053 -0.5044
 5284TIP3   OH215815   4.183   4.856   1.756  0.3623 -0.2787  0.0592
 5284TIP3    H115816   4.216   4.876   1.668 -1.7252 -0.5332 -0.8577
 5284TIP3    H215817   4.207   4.931   1.809 -1.2986  1.5390 -1.6025
 5285TIP3   OH215818   0.764   2.930   2.998 -0.6414 -0.5261 -0.4760
 5285TIP3    H115819   0.689   2.890   3.040  0.2270 -1.4413  0.2386
 5285TIP3    H215820   0.769   2.888   2.912 -0.6643 -0.7906 -0.3464
 5286TIP3   OH215821   4.669   5.180   1.091  0.4164  0.8888  0.1215
 5286TIP3    H115822   4.750   5.149   1.051 -1.3507 -0.7731 -2.5620
 5286TIP3    H215823   4.675   5.154   1.183  2.0727 -1.0602 -0.4668
 5287TIP3   OH215824   1.732   2.319   5.825 -0.3957  0.0448 -0.4343
 5287TIP3    H115825   1.825   2.318   5.849 -0.2573  2.3108 -0.6658
 5287TIP3    H215826   1.729   2.284   5.736  0.0142 -1.5029  0.1359
 5288TIP3   OH215827   4.568   4.914   3.140 -0.5749 -0.1147  0.2936
 5288TIP3    H115828   4.531   4.856   3.206  1.9012  0.0164  1.9253
 5288TIP3    H215829   4.572   4.861   3.061  0.9846 -2.0358  1.5596
 5289TIP3   OH215830   1.980   0.454   0.860 -0.0731  0.1670 -0.3215
 5289TIP3    H115831   2.068   0.492   0.855  0.6780 -1.4215  0.0943
 5289TIP3    H215832   1.921   0.527   0.842  1.2853  1.5352  0.5150
 5290TIP3   OH215833   1.793   2.309   3.141  0.1869  0.2669 -0.4356
 5290TIP3    H115834   1.850   2.233   3.148 -0.4310 -0.1239  0.5770
 5290TIP3    H215835   1.816   2.363   3.217  1.6545  1.8420 -1.9300
 5291TIP3   OH215836   0.791   1.071   0.460 -0.0318 -0.2971  0.3302
 5291TIP3    H115837   0.723   1.115   0.511 -0.2328  1.1611 -1.1257
 5291TIP3    H215838   0.745   1.003   0.411 -0.3074  0.1251 -0.0019
 5292TIP3   OH215839   3.813   3.980   0.064  0.3060  0.5152  0.2585
 5292TIP3    H115840   3.774   3.973  -0.023 -0.6558 -1.0452  0.7771
 5292TIP3    H215841   3.738   3.988   0.123  0.8758 -0.1793  1.0896
 5293TIP3   OH215842   1.335   4.059   5.664 -0.1192 -0.1671 -0.3306
 5293TIP3    H115843   1.252   4.011   5.662 -0.4444  0.4044 -1.2191
 5293TIP3    H215844   1.369   4.050   5.575  1.5150 -1.6377  0.3802
 5294TIP3   OH215845   6.011   2.169   4.434 -0.0498 -0.0462  0.1939
 5294TIP3    H115846   6.021   2.143   4.526 -2.2347  0.4334  0.6083
 5294TIP3    H215847   6.079   2.235   4.420  0.9800 -0.8709  1.1397
 5295TIP3   OH215848   5.446   0.432   2.908  0.1487  0.1637 -0.2127
 5295TIP3    H115849   5.354   0.406   2.897 -0.1257  0.3412  1.5126
 5295TIP3    H215850   5.494   0.349   2.905 -0.3845 -0.2630  1.7617
 5296TIP3   OH215851   2.564   4.100   5.595  0.1647  0.2562  0.1623
 5296TIP3    H115852   2.618   4.104   5.517 -0.2613  0.6710 -0.1155
 5296TIP3    H215853   2.475   4.121   5.565 -0.1966 -0.6131  0.5691
 5297TIP3   OH215854   4.596   2.915   2.304  0.1523  0.4824 -0.4979
 5297TIP3    H115855   4.583   2.821   2.321  0.2251  0.4412 -0.6685
 5297TIP3    H215856   4.508   2.947   2.283  0.0805  0.5114 -0.1490
 5298TIP3   OH215857   2.600   2.842   0.695 -0.2934  0.4521 -0.3694
 5298TIP3    H115858   2.556   2.758   0.696 -0.2481  0.4104 -1.2826
 5298TIP3    H215859   2.531   2.906   0.676 -1.2028  1.2074  4.2954
 5299TIP3   OH215860   3.722   0.437   4.469  0.1570 -0.3750 -1.1345
 5299TIP3    H115861   3.683   0.350   4.462 -0.0235 -0.4446  0.4155
 5299TIP3    H215862   3.816   0.423   4.459  0.1468 -0.7797 -0.6556
 5300TIP3   OH215863   3.271   1.043   5.791 -0.2599 -0.2082  0.0718
 5300TIP3    H115864   3.249   1.055   5.883 -0.4981 -2.7488  0.4032
 5300TIP3    H215865   3.201   1.088   5.743  1.2925  3.5884  0.9877
 5301TIP3   OH215866   1.590   1.902   1.719 -0.5279 -0.2037  0.2387
 5301TIP3    H115867   1.651   1.924   1.790  0.4751  0.2580 -0.7299
 5301TIP3    H215868   1.514   1.865   1.763 -0.7239  1.7679  1.6897
 5302TIP3   OH215869   5.134   6.096   5.378  0.0103  0.6067  0.1978
 5302TIP3    H115870   5.182   6.024   5.337  0.7447 -0.2169  2.3628
 5302TIP3    H215871   5.079   6.131   5.308  0.3372 -1.4524 -1.1763
 5303TIP3   OH215872   2.356   3.677   4.147 -0.8160 -0.6223 -0.2237
 5303TIP3    H115873   2.291   3.736   4.108 -1.0442 -0.4445  0.3955
 5303TIP3    H215874   2.303   3.616   4.199 -0.4524  0.0336  0.9523
 5304TIP3   OH215875   6.842   1.898   1.226  0.2505  0.4300  0.2390
 5304TIP3    H115876   6.774   1.918   1.162  0.6043 -2.4880 -1.2520
 5304TIP3    H215877   6.795   1.883   1.308 -0.7495  0.0713 -0.3817
 5305TIP3   OH215878   0.129   5.260   0.983 -0.1371  0.1529 -0.2764
 5305TIP3    H115879   0.173   5.344   0.971 -0.6993  0.4568 -0.2478
 5305TIP3    H215880   0.102   5.260   1.075  0.2152 -0.2370 -0.1680
 5306TIP3   OH215881   5.366   2.528   4.170  0.2246 -0.1632  0.2483
 5306TIP3    H115882   5.448   2.479   4.162  0.6394  0.7701 -2.4671
 5306TIP3    H215883   5.376   2.579   4.250  2.4875  0.1378 -0.1491
 5307TIP3   OH215884   3.863   3.271   2.165  0.7054  0.0702 -0.4605
 5307TIP3    H115885   3.929   3.324   2.120  2.0768  0.9138  2.2750
 5307TIP3    H215886   3.897   3.262   2.254 -2.2504 -0.6545  0.7138
 5308TIP3   OH215887   7.033   6.097   0.515 -0.1603 -0.0215 -0.1643
 5308TIP3    H115888   7.114   6.118   0.563 -0.1499 -0.6329  0.0938
 5308TIP3    H215889   6.989   6.182   0.504  0.1912  0.2241  0.2862
 5309TIP3   OH215890   1.643   2.660   3.238 -0.4051 -0.2653  0.7700
 5309TIP3    H115891   1.652   2.609   3.158  0.9254  1.1826 -0.0633
 5309TIP3    H215892   1.627   2.594   3.306 -0.6071 -1.6135 -0.5221
 5310TIP3   OH215893   2.561   5.157   5.336 -0.1548 -0.1382 -0.1465
 5310TIP3    H115894   2.532   5.194   5.253  0.5790 -2.6528 -1.6243
 5310TIP3    H215895   2.491   5.096   5.361  0.6870 -1.1131 -0.1335
 5311TIP3   OH215896   5.088   5.998   5.680  0.8179 -0.6329  0.6835
 5311TIP3    H115897   5.041   6.026   5.759  1.1946  1.1361  0.3166
 5311TIP3    H215898   5.169   6.048   5.681  0.1867  0.5906 -1.5640
 5312TIP3   OH215899   2.851   1.787   5.826  0.0368 -0.1821 -0.2025
 5312TIP3    H115900   2.868   1.853   5.759 -0.7019 -0.8757 -1.1065
 5312TIP3    H215901   2.777   1.822   5.876  1.1745  0.7615  0.8650
 5313TIP3   OH215902   2.790   2.959   0.195  0.2402 -0.4091  0.0559
 5313TIP3    H115903   2.830   3.045   0.183 -0.7923  0.0570 -0.1806
 5313TIP3    H215904   2.852   2.898   0.158 -0.0457  0.4503 -1.9522
 5314TIP3   OH215905   3.250   2.659   3.088 -0.0843  0.5291  0.1183
 5314TIP3    H115906   3.277   2.747   3.065 -0.8370 -0.1195 -4.0057
 5314TIP3    H215907   3.301   2.602   3.030  1.8294 -2.0932  3.9242
 5315TIP3   OH215908   3.788   1.600   0.474  0.3437 -0.2500 -0.5738
 5315TIP3    H115909   3.840   1.612   0.394  1.5625 -0.8630  0.1014
 5315TIP3    H215910   3.824   1.521   0.514  0.7960  0.8953  1.3800
 5316TIP3   OH215911   6.626   0.390   5.768  0.0751 -0.6791 -1.1246
 5316TIP3    H115912   6.574   0.469   5.753 -0.6752 -1.3899 -2.4566
 5316TIP3    H215913   6.614   0.371   5.861  0.7579  1.0852 -0.6381
 5317TIP3   OH215914   0.557   6.007   2.253  0.5122 -0.0473  0.0222
 5317TIP3    H115915   0.477   6.058   2.269  0.4539 -0.2929  0.5304
 5317TIP3    H215916   0.607   6.016   2.334  1.0897  0.2538 -0.3615
 5318TIP3   OH215917   1.056   0.139   2.089 -0.4063 -0.5385 -0.7323
 5318TIP3    H115918   1.084   0.056   2.128 -0.0121  0.0390  0.2684
 5318TIP3    H215919   0.967   0.152   2.123 -0.1264 -0.1168 -0.1465
 5319TIP3   OH215920   3.841   5.312   4.903 -0.4334 -0.2497  0.5023
 5319TIP3    H115921   3.823   5.286   4.994  0.5838  0.3005  0.8768
 5319TIP3    H215922   3.839   5.230   4.854 -1.3836 -0.5060  0.9472
 5320TIP3   OH215923   6.762   6.319   0.061 -0.2741 -0.2201  0.0993
 5320TIP3    H115924   6.704   6.270   0.119  0.1784  0.3939  1.1010
 5320TIP3    H215925   6.824   6.253   0.028 -1.2474 -0.7944 -0.6447
 5321TIP3   OH215926   1.363   6.534   5.475 -0.0280 -0.6680  0.4268
 5321TIP3    H115927   1.280   6.578   5.459 -0.0450 -1.4035 -1.8046
 5321TIP3    H215928   1.341   6.441   5.480  0.6447 -0.8910 -0.3974
 5322TIP3   OH215929   5.368   5.068   2.521  0.4539 -0.0067 -0.0866
 5322TIP3    H115930   5.341   4.988   2.566  0.2102  1.3527  2.4163
 5322TIP3    H215931   5.461   5.055   2.503  0.4237 -0.8496  0.3336
 5323TIP3   OH215932   6.204   1.233   4.127 -0.0619  0.4609  0.6547
 5323TIP3    H115933   6.167   1.298   4.066 -1.3338 -1.7665 -1.1046
 5323TIP3    H215934   6.276   1.194   4.079  0.3972  0.2320  1.5151
 5324TIP3   OH215935   0.436   3.019   2.149  0.3058  0.2245 -0.1314
 5324TIP3    H115936   0.444   3.086   2.216  2.3140 -0.3201  0.2593
 5324TIP3    H215937   0.486   3.053   2.074 -1.6345  0.6838 -1.2707
 5325TIP3   OH215938   5.133   0.744   3.039  0.2055  0.1066  0.4213
 5325TIP3    H115939   5.079   0.783   2.970 -0.9828 -0.2696  1.1079
 5325TIP3    H215940   5.104   0.653   3.043  1.3495 -0.2762  0.3852
 5326TIP3   OH215941   4.543   5.695   0.491  0.2315 -0.2024 -0.1299
 5326TIP3    H115942   4.537   5.611   0.446  2.5754 -0.5572  0.1322
 5326TIP3    H215943   4.633   5.700   0.523 -0.1580  1.9241  0.8384
 5327TIP3   OH215944   1.733   0.177   3.487 -0.0474  0.1334 -0.0656
 5327TIP3    H115945   1.739   0.125   3.407 -0.7753  0.7553 -0.5392
 5327TIP3    H215946   1.688   0.120   3.549 -1.2553  0.3496 -0.7234
 5328TIP3   OH215947   4.614   5.348   2.877  0.2176  0.1607 -0.0756
 5328TIP3    H115948   4.541   5.346   2.939  0.7067  2.7878  0.7230
 5328TIP3    H215949   4.573   5.333   2.792 -1.4709  2.3079  0.2437
 5329TIP3   OH215950   5.995   5.670   0.791 -0.3255  0.2222 -0.7239
 5329TIP3    H115951   5.904   5.681   0.816 -0.2373 -2.6316  1.3570
 5329TIP3    H215952   6.042   5.738   0.839 -0.9734 -0.8887  1.6300
 5330TIP3   OH215953   1.935   0.759   1.348  0.5616  0.0260 -0.1674
 5330TIP3    H115954   1.931   0.668   1.318  1.5274 -0.5540  1.3514
 5330TIP3    H215955   1.918   0.811   1.270  2.5521 -1.4031 -1.6262
 5331TIP3   OH215956   2.074   4.603   5.553 -0.3858 -0.4215 -0.7474
 5331TIP3    H115957   2.049   4.649   5.634  0.3248  0.3831 -0.9731
 5331TIP3    H215958   2.019   4.643   5.485 -0.4957 -0.6208 -0.7759
 5332TIP3   OH215959   2.878   1.104   2.700 -0.2823  0.2399  0.7919
 5332TIP3    H115960   2.915   1.152   2.774  0.2903  0.8853  0.1086
 5332TIP3    H215961   2.795   1.148   2.682  0.3476  1.1503  0.0236
 5333TIP3   OH215962   5.608   1.092   0.289  0.6818  0.1786  0.2454
 5333TIP3    H115963   5.667   1.027   0.329  0.3491 -0.8425 -0.8699
 5333TIP3    H215964   5.528   1.043   0.269  0.2959  1.0122 -0.3243
 5334TIP3   OH215965   0.670   6.318   3.560 -0.0254 -0.1690  0.1510
 5334TIP3    H115966   0.593   6.350   3.513  1.3392  0.9992 -1.4240
 5334TIP3    H215967   0.708   6.252   3.502  1.6153  1.1963 -0.4352
 5335TIP3   OH215968   1.064   2.908   2.633 -0.0341  0.1957  0.0396
 5335TIP3    H115969   0.993   2.898   2.696  1.0861 -0.5498  1.2488
 5335TIP3    H215970   1.125   2.836   2.654 -0.4044 -1.1857 -3.0067
 5336TIP3   OH215971   1.950   3.428   2.033  0.3637  0.7489 -0.1290
 5336TIP3    H115972   1.877   3.484   2.059  1.5922  1.7281  1.3769
 5336TIP3    H215973   1.976   3.461   1.947 -1.4727 -0.1913 -1.1123
 5337TIP3   OH215974   0.494   3.891   5.613  0.2289 -0.3938 -0.6466
 5337TIP3    H115975   0.447   3.847   5.684  0.1208 -2.6282 -1.9951
 5337TIP3    H215976   0.577   3.845   5.607  0.5877  0.3347 -1.4078
 5338TIP3   OH215977   5.894   1.186   5.602  0.5130  0.4134 -0.2138
 5338TIP3    H115978   5.987   1.174   5.583  0.2741 -1.1702 -0.5413
 5338TIP3    H215979   5.850   1.170   5.518  0.0122  2.5830 -0.4120
 5339TIP3   OH215980   4.522   5.819   1.003  0.1415  0.5890 -0.5959
 5339TIP3    H115981   4.464   5.894   1.009  0.4198  0.7621 -0.0836
 5339TIP3    H215982   4.584   5.829   1.075  1.4875  0.9839 -1.7647
 5340TIP3   OH215983   2.749   2.458   0.077  0.1677  0.4188 -0.1615
 5340TIP3    H115984   2.799   2.426   0.002 -1.2951 -1.4072 -0.4284
 5340TIP3    H215985   2.707   2.380   0.113 -0.4834  1.5070  1.5742
 5341TIP3   OH215986   5.604   4.970   0.833 -0.0386  0.0232  0.1819
 5341TIP3    H115987   5.672   4.973   0.766 -1.1893  1.1817 -0.9978
 5341TIP3    H215988   5.633   5.031   0.901 -1.0107  2.4759 -1.4904
 5342TIP3   OH215989   2.752   3.557   1.996  0.0666 -0.0321 -0.7140
 5342TIP3    H115990   2.818   3.587   1.934  0.9494 -1.8325 -0.7365
 5342TIP3    H215991   2.754   3.621   2.067  1.4656  0.2511 -0.9835
 5343TIP3   OH215992   4.076   1.679   0.040 -0.5070  0.6401  0.5117
 5343TIP3    H115993   4.064   1.725  -0.043 -1.1960 -0.5396 -0.0754
 5343TIP3    H215994   4.161   1.635   0.031 -1.3680 -0.9301 -0.3254
 5344TIP3   OH215995   6.058   2.887   0.316 -0.0373  0.3253  0.2869
 5344TIP3    H115996   6.126   2.866   0.380 -1.3973 -0.8426  1.4014
 5344TIP3    H215997   6.085   2.841   0.237  0.8515  0.5002  0.4761
 5345TIP3   OH215998   6.584   4.414   3.921 -0.1637 -0.3020 -0.1300
 5345TIP3    H115999   6.589   4.487   3.860  1.8222  0.6993  1.1209
 5345TIP3    H216000   6.665   4.420   3.972 -0.7514 -2.3683  1.1572
 5346TIP3   OH216001   0.127   1.621   1.439 -0.0416 -0.2707  0.5773
 5346TIP3    H116002   0.048   1.673   1.456  0.9850  2.0431 -1.1092
 5346TIP3    H216003   0.190   1.685   1.407  2.2731 -2.1927  1.0649
 5347TIP3   OH216004   0.517   6.234   0.974  0.0067 -0.1317 -0.0999
 5347TIP3    H116005   0.489   6.325   0.988 -0.7746 -0.3746 -0.0543
 5347TIP3    H216006   0.482   6.211   0.888  0.7522 -0.1893 -0.3977
 5348TIP3   OH216007   4.098   1.153   4.089  0.1006 -0.7541  0.3464
 5348TIP3    H116008   4.055   1.178   4.007  1.3307  0.5318  0.0537
 5348TIP3    H216009   4.163   1.222   4.105  0.7864 -1.6553  1.7285
 5349TIP3   OH216010   5.616   4.888   5.734 -0.3042 -0.5865 -0.3929
 5349TIP3    H116011   5.541   4.848   5.778  1.0932 -2.0287  0.7959
 5349TIP3    H216012   5.645   4.822   5.672  0.5481 -0.4424 -0.1628
 5350TIP3   OH216013   5.424   5.504   4.639  0.4243 -0.1505 -0.2236
 5350TIP3    H116014   5.473   5.440   4.690  0.5257 -0.5703 -0.8423
 5350TIP3    H216015   5.398   5.571   4.702  0.8894 -0.4650  0.2998
 5351TIP3   OH216016   0.382   6.552   2.394 -0.2845 -0.4319  0.3016
 5351TIP3    H116017   0.327   6.488   2.438  0.6345 -0.5190  1.3576
 5351TIP3    H216018   0.344   6.637   2.417  1.3702 -0.3437  3.0561
 5352TIP3   OH216019   2.125   1.634   4.305 -0.5496  0.3895 -0.3207
 5352TIP3    H116020   2.093   1.653   4.217 -1.5736 -1.3598 -0.3799
 5352TIP3    H216021   2.107   1.713   4.355 -0.0212  1.3837 -1.6535
 5353TIP3   OH216022   3.664   5.716   5.754  0.5107  0.1592 -0.3800
 5353TIP3    H116023   3.717   5.787   5.790 -0.6136  0.8915 -0.1007
 5353TIP3    H216024   3.620   5.755   5.679  0.1077 -0.3331 -0.4035
 5354TIP3   OH216025   5.076   6.220   5.138 -0.2419  0.1615 -0.0424
 5354TIP3    H116026   5.123   6.274   5.202 -0.4217 -1.1716  1.2681
 5354TIP3    H216027   5.141   6.198   5.072  0.9394 -1.2852  1.5076
 5355TIP3   OH216028   3.732   4.004   0.443 -0.2193 -1.1148  0.1461
 5355TIP3    H116029   3.765   3.971   0.526 -1.4430 -0.8850  0.7424
 5355TIP3    H216030   3.807   3.999   0.384  0.7370 -1.0527  1.3166
 5356TIP3   OH216031   2.664   6.643   3.349  0.0013 -0.6426 -0.1210
 5356TIP3    H116032   2.725   6.572   3.372 -1.6728 -1.7823  1.0215
 5356TIP3    H216033   2.584   6.598   3.322 -0.5269  0.8236 -1.1510
 5357TIP3   OH216034   6.613   5.681   1.817  0.1376 -0.1156  0.4937
 5357TIP3    H116035   6.651   5.637   1.741  0.1299  2.0581 -0.8553
 5357TIP3    H216036   6.642   5.629   1.892  1.7156 -1.2605 -0.8354
 5358TIP3   OH216037   7.136   6.517   0.381 -0.4447  0.3051 -0.0065
 5358TIP3    H116038   7.043   6.501   0.360 -0.1918 -1.5723  0.1256
 5358TIP3    H216039   7.183   6.455   0.325  0.7493  1.3061 -0.1327
 5359TIP3   OH216040   6.985   6.389   5.404 -0.2319  0.1796 -0.1750
 5359TIP3    H116041   6.922   6.448   5.362 -1.1014 -0.2740  0.4543
 5359TIP3    H216042   6.963   6.302   5.371 -1.1561 -0.2393  1.4085
 5360TIP3   OH216043   2.925   0.376   4.134 -0.0930  0.3044  0.2502
 5360TIP3    H116044   2.991   0.309   4.151 -1.9856 -1.9551 -0.7408
 5360TIP3    H216045   2.915   0.422   4.217  1.5296 -0.3841  0.8629
 5361TIP3   OH216046   3.334   3.728   3.890  0.2085 -0.3306  0.3835
 5361TIP3    H116047   3.389   3.684   3.955 -0.4741  0.6902  1.6859
 5361TIP3    H216048   3.263   3.667   3.873  0.0560 -0.3545  1.0787
 5362TIP3   OH216049   4.087   6.347   3.259 -0.0435  0.1787  0.2192
 5362TIP3    H116050   4.146   6.306   3.322 -0.1278 -2.1046 -1.1007
 5362TIP3    H216051   4.018   6.386   3.313 -0.4497 -2.2151  1.5643
 5363TIP3   OH216052   3.457   2.000   0.019 -0.1308  0.0265  0.0692
 5363TIP3    H116053   3.371   1.980  -0.018 -0.1825 -0.9830  0.7078
 5363TIP3    H216054   3.437   2.041   0.103 -0.0026 -1.1512  0.6965
 5364TIP3   OH216055   5.532   1.865   5.302  0.2137  0.3222  0.0851
 5364TIP3    H116056   5.451   1.814   5.298  0.2798  0.1302  1.1054
 5364TIP3    H216057   5.532   1.905   5.388  0.7970  1.0154 -0.2290
 5365TIP3   OH216058   1.542   5.249   2.989  0.1774 -0.2574  0.1278
 5365TIP3    H116059   1.544   5.159   2.959 -0.5304  0.5989 -2.8362
 5365TIP3    H216060   1.632   5.279   2.982  0.3874 -0.6710  0.9777
 5366TIP3   OH216061   3.898   2.959   1.923  0.4460 -0.4837  0.2406
 5366TIP3    H116062   3.850   3.032   1.882 -1.6632 -2.3693 -0.8715
 5366TIP3    H216063   3.982   2.957   1.876  1.0924  1.9326  1.1460
 5367TIP3   OH216064   6.377   2.628   2.155  0.2411 -0.2669  0.1919
 5367TIP3    H116065   6.349   2.623   2.247  0.2174 -1.4934  0.1430
 5367TIP3    H216066   6.373   2.721   2.134  3.6092  0.5702  2.4708
 5368TIP3   OH216067   0.675   0.686   1.407 -0.1845 -0.7474  0.4952
 5368TIP3    H116068   0.731   0.692   1.330 -0.3925  0.7922  0.4424
 5368TIP3    H216069   0.588   0.711   1.375 -0.4412 -0.8905  1.0681
 5369TIP3   OH216070   2.392   2.591   2.645  0.1693 -0.7107  0.3716
 5369TIP3    H116071   2.358   2.588   2.556  1.0833  1.7920 -0.1513
 5369TIP3    H216072   2.416   2.501   2.664 -0.7162 -1.4379 -1.6360
 5370TIP3   OH216073   6.734   1.426   2.922 -0.1374 -0.2922  0.1175
 5370TIP3    H116074   6.697   1.514   2.928 -1.3323 -0.8244  0.7956
 5370TIP3    H216075   6.665   1.372   2.885 -0.2272 -1.3822  1.7716
 5371TIP3   OH216076   2.732   5.634   4.087 -0.0461  0.2863  0.0566
 5371TIP3    H116077   2.820   5.655   4.117  0.5344 -2.1146  0.1987
 5371TIP3    H216078   2.705   5.560   4.141 -0.8003 -1.1802 -2.2126
 5372TIP3   OH216079   3.823   5.892   1.097 -0.3469 -0.1578  0.0108
 5372TIP3    H116080   3.750   5.952   1.084 -0.6592 -0.6968 -0.7679
 5372TIP3    H216081   3.852   5.870   1.009 -0.7412 -1.7647  0.2516
 5373TIP3   OH216082   4.279   2.173   5.776  0.4361  0.4778  0.6593
 5373TIP3    H116083   4.329   2.141   5.701 -1.7039  1.1124 -1.1576
 5373TIP3    H216084   4.344   2.212   5.834  2.2435 -0.6472 -0.5251
 5374TIP3   OH216085   4.495   5.765   5.153 -0.9233  0.2093  0.3784
 5374TIP3    H116086   4.426   5.829   5.135 -0.3793  0.7910  0.3118
 5374TIP3    H216087   4.537   5.798   5.233  0.0899  0.5676 -0.2861
 5375TIP3   OH216088   6.169   3.872   4.816  0.5673 -0.0584  0.1957
 5375TIP3    H116089   6.157   3.937   4.885  2.1609 -1.0918  1.5147
 5375TIP3    H216090   6.168   3.788   4.862 -1.8765 -1.0650 -1.5071
 5376TIP3   OH216091   1.836   1.957   0.131 -0.2477  0.2482 -0.6392
 5376TIP3    H116092   1.763   1.939   0.072 -0.8608  0.7032 -0.0380
 5376TIP3    H216093   1.880   1.873   0.141  0.1170  0.2539 -2.0667
 5377TIP3   OH216094   5.072   6.745   0.276 -0.3115 -0.3898  0.4070
 5377TIP3    H116095   5.134   6.816   0.262 -0.2115 -0.4795  0.3931
 5377TIP3    H216096   5.122   6.677   0.321 -0.0155 -1.0399 -0.8753
 5378TIP3   OH216097   0.348   6.292   5.000 -0.1450  0.0221  0.0429
 5378TIP3    H116098   0.402   6.232   4.948  0.7761  2.0688 -1.4964
 5378TIP3    H216099   0.410   6.333   5.061 -0.4752  0.4885  0.0676
 5379TIP3   OH216100   2.325   6.304   4.794  0.3045  0.3389 -0.4588
 5379TIP3    H116101   2.313   6.398   4.806  0.8473  0.1489  2.0924
 5379TIP3    H216102   2.256   6.264   4.847  0.4526 -0.7318 -1.0412
 5380TIP3   OH216103   5.708   0.028   4.043 -0.3987  0.0572  0.1856
 5380TIP3    H116104   5.649   0.095   4.078 -0.7548 -1.0034  1.7633
 5380TIP3    H216105   5.743  -0.016   4.121 -1.1380 -2.3756 -0.7319
 5381TIP3   OH216106   1.007   5.442   0.638 -0.0075 -0.0940  0.0287
 5381TIP3    H116107   0.935   5.434   0.575 -0.2790 -1.4901  0.4867
 5381TIP3    H216108   1.060   5.514   0.604 -0.2829 -0.6350 -1.6564
 5382TIP3   OH216109   3.383   5.320   4.628  0.2905  0.8669  0.3582
 5382TIP3    H116110   3.390   5.228   4.653  0.6047  0.1366 -2.2135
 5382TIP3    H216111   3.301   5.349   4.667 -1.2044 -1.2885 -0.9687
 5383TIP3   OH216112   0.883   4.274   2.859 -0.6899  0.1674 -0.2230
 5383TIP3    H116113   0.907   4.268   2.766 -0.4778 -0.1239 -0.1518
 5383TIP3    H216114   0.933   4.348   2.892 -0.1516 -0.2217 -0.1570
 5384TIP3   OH216115   2.540   2.670   4.220  0.0822  0.0847  0.2357
 5384TIP3    H116116   2.492   2.683   4.302 -1.4525 -0.5222 -0.5272
 5384TIP3    H216117   2.493   2.724   4.156 -1.0594 -2.2336 -1.0286
 5385TIP3   OH216118   1.774   0.239   4.140 -0.1113 -0.0411 -0.1613
 5385TIP3    H116119   1.781   0.159   4.087 -0.2875 -0.2394  0.1121
 5385TIP3    H216120   1.723   0.212   4.216  0.0764  0.2639  0.0712
 5386TIP3   OH216121   3.396   3.729   0.488  0.9875 -0.3755 -1.1926
 5386TIP3    H116122   3.330   3.681   0.439  0.0357  0.1650 -0.4697
 5386TIP3    H216123   3.355   3.814   0.506  1.3279 -0.5345  0.4647
 5387TIP3   OH216124   2.487   1.584   3.602 -0.2557  0.3508 -0.2839
 5387TIP3    H116125   2.429   1.653   3.636 -0.3088  0.7938 -1.2373
 5387TIP3    H216126   2.428   1.521   3.561 -0.0738  0.8927 -1.4144
 5388TIP3   OH216127   4.036   5.355   5.647 -0.2248  0.2099  0.3298
 5388TIP3    H116128   4.076   5.290   5.704 -0.8573 -1.1674 -0.7332
 5388TIP3    H216129   4.010   5.426   5.706 -0.2532 -0.8516  1.6515
 5389TIP3   OH216130   0.605   3.403   0.413 -0.4117  0.6586 -0.2242
 5389TIP3    H116131   0.580   3.312   0.427  1.6858  0.2307  1.2798
 5389TIP3    H216132   0.689   3.399   0.366  0.9094  1.6441  1.8700
 5390TIP3   OH216133   4.071   2.549   5.296  0.0413  0.0165  0.3558
 5390TIP3    H116134   3.985   2.531   5.258  1.3346 -0.6738 -2.5291
 5390TIP3    H216135   4.072   2.499   5.378 -1.6161 -1.5288 -0.4811
 5391TIP3   OH216136   6.645   3.210   0.406  0.2509  0.2605 -0.2977
 5391TIP3    H116137   6.714   3.231   0.342  0.6041  1.5557  0.4807
 5391TIP3    H216138   6.563   3.221   0.358  0.5248  0.7887 -0.6516
 5392TIP3   OH216139   5.467   5.403   2.625  0.2344 -0.5588 -0.0361
 5392TIP3    H116140   5.457   5.354   2.706 -1.9398  0.7156  0.5362
 5392TIP3    H216141   5.509   5.485   2.650  1.2199 -0.9041 -0.5145
 5393TIP3   OH216142   2.845   3.701   3.696 -0.5533 -0.2280  0.2426
 5393TIP3    H116143   2.859   3.752   3.616 -0.0044 -0.2399  0.3263
 5393TIP3    H216144   2.884   3.755   3.765  0.5110 -0.9981  0.2583
 5394TIP3   OH216145   1.080   5.374   2.797  0.2343 -0.6754 -0.1676
 5394TIP3    H116146   1.126   5.359   2.879 -0.6519  1.4715  0.8051
 5394TIP3    H216147   1.002   5.319   2.802 -1.4103  1.6379  1.9119
 5395TIP3   OH216148   5.738   1.195   5.065  0.3923  0.4703  0.2177
 5395TIP3    H116149   5.676   1.193   4.992  0.8620 -1.8548 -0.1960
 5395TIP3    H216150   5.718   1.277   5.111 -2.0196  0.4873 -0.7028
 5396TIP3   OH216151   2.774   0.032   3.276  0.1149  0.1173  0.1164
 5396TIP3    H116152   2.757  -0.005   3.190  0.0854 -0.0227  0.1829
 5396TIP3    H216153   2.692   0.021   3.324  0.3977 -0.5982  0.4514
 5397TIP3   OH216154   3.129   2.477   4.915 -0.2969  0.2318  0.3323
 5397TIP3    H116155   3.191   2.549   4.914  0.3141 -0.2004  2.1266
 5397TIP3    H216156   3.182   2.399   4.902 -0.5005 -0.0964  1.3093
 5398TIP3   OH216157   4.136   5.563   2.177 -0.4079  0.1285 -0.0992
 5398TIP3    H116158   4.120   5.468   2.174  2.2018 -0.3479 -1.2142
 5398TIP3    H216159   4.158   5.587   2.088  1.1038  1.3529  0.5584
 5399TIP3   OH216160   4.910   0.301   1.584 -0.2441  0.0904 -0.0871
 5399TIP3    H116161   4.922   0.359   1.659  2.0722 -1.3457  0.7560
 5399TIP3    H216162   4.922   0.356   1.507  1.1433  0.8734  0.6689
 5400TIP3   OH216163   6.904   4.881   3.626  0.1081  0.5774  0.0646
 5400TIP3    H116164   6.929   4.912   3.538  0.8172  1.7339  0.6493
 5400TIP3    H216165   6.814   4.911   3.637  0.3302  1.2523  0.0867
 5401TIP3   OH216166   0.796   5.186   4.924  0.2709  0.1706  0.0260
 5401TIP3    H116167   0.882   5.229   4.932  0.5959 -0.5105  0.2030
 5401TIP3    H216168   0.782   5.179   4.829 -0.4385  1.9352 -0.0567
 5402TIP3   OH216169   5.152   2.411   3.830 -0.1246  0.3128 -0.5589
 5402TIP3    H116170   5.189   2.386   3.914 -0.5953  1.0318 -0.1218
 5402TIP3    H216171   5.161   2.507   3.827  1.4704  0.1641 -2.0868
 5403TIP3   OH216172   6.331   0.722   5.571  0.1441  0.4073 -0.1497
 5403TIP3    H116173   6.390   0.778   5.521  0.1574  0.1799 -0.3903
 5403TIP3    H216174   6.244   0.757   5.552  0.2391  1.2137  0.7929
 5404TIP3   OH216175   2.825   5.549   1.983  0.6188 -0.2714  0.0763
 5404TIP3    H116176   2.907   5.501   1.985  0.5113 -0.5078 -0.7079
 5404TIP3    H216177   2.850   5.637   1.955  0.7403 -0.0224  0.9387
 5405TIP3   OH216178   3.696   6.238   0.601  0.8610 -0.2681  0.4004
 5405TIP3    H116179   3.775   6.189   0.578  0.9074 -0.4328  0.8878
 5405TIP3    H216180   3.643   6.175   0.651  1.0670  0.2719  1.3290
 5406TIP3   OH216181   4.688   1.013   3.046  0.5286 -0.0050  0.7290
 5406TIP3    H116182   4.712   1.026   3.138 -0.2769  2.1023  0.6863
 5406TIP3    H216183   4.751   1.065   2.997  0.7827 -0.8957  0.0949
 5407TIP3   OH216184   3.683   1.779   4.667 -0.0647  0.4545 -0.2243
 5407TIP3    H116185   3.621   1.753   4.599  0.0568  0.1318 -0.2175
 5407TIP3    H216186   3.629   1.808   4.740 -0.1910  2.1344 -0.9444
 5408TIP3   OH216187   2.632   3.014   1.957  0.5353 -0.6048  0.1940
 5408TIP3    H116188   2.711   2.965   1.977  0.9337  0.1468  0.4816
 5408TIP3    H216189   2.564   2.971   2.009  0.8268 -0.9922  0.2642
 5409TIP3   OH216190   4.410   5.505   5.688  0.2731 -0.0932 -0.2057
 5409TIP3    H116191   4.361   5.578   5.727  0.8300  1.3038 -2.0121
 5409TIP3    H216192   4.360   5.482   5.610  0.4349 -1.2765  0.0231
 5410TIP3   OH216193   0.319   2.425   2.604 -0.0277  0.1564 -0.3117
 5410TIP3    H116194   0.389   2.369   2.570  0.1438  0.7475 -0.9389
 5410TIP3    H216195   0.244   2.366   2.614  0.6226 -0.5511  0.6537
 5411TIP3   OH216196   4.547   0.851   2.621 -0.0276 -0.2441 -0.6532
 5411TIP3    H116197   4.506   0.930   2.585  2.9669  0.9442 -1.7204
 5411TIP3    H216198   4.511   0.780   2.568 -0.7469  0.7201 -1.5158
 5412TIP3   OH216199   1.000   1.154   4.247  0.1200 -0.9554 -0.2481
 5412TIP3    H116200   0.953   1.112   4.319 -1.0592 -1.8688 -1.5215
 5412TIP3    H216201   1.052   1.084   4.207  0.7169 -0.4695 -0.3479
 5413TIP3   OH216202   4.642   5.747   4.692 -0.2945  0.0152  0.2514
 5413TIP3    H116203   4.731   5.783   4.691 -0.1557 -0.3308  0.2212
 5413TIP3    H216204   4.627   5.723   4.784  0.3689 -1.7170 -0.0515
 5414TIP3   OH216205   4.476   3.797   4.095 -0.4176 -0.3616  0.0759
 5414TIP3    H116206   4.409   3.799   4.163  0.3836 -1.6758  0.9482
 5414TIP3    H216207   4.438   3.744   4.025 -0.3809 -0.9508  0.4930
 5415TIP3   OH216208   1.683   3.815   4.299  0.6327  0.6461 -0.2598
 5415TIP3    H116209   1.668   3.760   4.375  4.0469 -0.9076 -0.5331
 5415TIP3    H216210   1.675   3.905   4.332  2.4022  0.0343  2.1082
 5416TIP3   OH216211   5.825   1.828   0.333 -0.1632 -0.0081  0.2945
 5416TIP3    H116212   5.817   1.910   0.285  0.0675  0.0674  0.3868
 5416TIP3    H216213   5.817   1.760   0.266 -1.5123  0.0597  0.3654
 5417TIP3   OH216214   5.537  -0.003   4.330  0.0333  0.0461  0.1321
 5417TIP3    H116215   5.559   0.086   4.305 -0.5369  0.4313  0.9336
 5417TIP3    H216216   5.456  -0.022   4.282  0.6511 -0.3972 -0.7629
 5418TIP3   OH216217   3.870   5.526   5.785  0.1290  0.0721 -0.0926
 5418TIP3    H116218   3.820   5.607   5.798 -0.8770 -0.7667  1.6708
 5418TIP3    H216219   3.807   5.466   5.745  0.6135 -0.1298 -0.5663
 5419TIP3   OH216220   2.021   4.180   4.721 -0.5596 -0.1333  0.0889
 5419TIP3    H116221   1.948   4.128   4.755 -0.7605 -0.6038 -1.0201
 5419TIP3    H216222   2.097   4.151   4.771 -0.8738 -0.7148  0.2370
 5420TIP3   OH216223   5.948   0.113   4.676  0.3615 -0.3983 -0.3619
 5420TIP3    H116224   6.021   0.088   4.733 -0.1401 -2.5231 -0.5812
 5420TIP3    H216225   5.910   0.190   4.719  1.2210 -0.7433  1.0911
 5421TIP3   OH216226   3.342   0.946   0.392  0.1744  0.2777 -0.4176
 5421TIP3    H116227   3.389   0.866   0.416  0.1884  0.5985  0.6807
 5421TIP3    H216228   3.251   0.917   0.379  0.0564  0.1537  0.5504
 5422TIP3   OH216229   1.874   3.106   1.590  0.2985 -0.2454 -0.2001
 5422TIP3    H116230   1.890   3.012   1.579  0.6903 -0.2297  0.2049
 5422TIP3    H216231   1.779   3.114   1.598  0.3775 -0.8711  2.0433
 5423TIP3   OH216232   4.133   3.181   2.006  0.3034 -0.2947  0.7331
 5423TIP3    H116233   4.228   3.174   1.990  0.3674 -0.6183  1.2041
 5423TIP3    H216234   4.116   3.115   2.074  0.0766  1.0714  2.0460
 5424TIP3   OH216235   6.631   6.647   2.469 -0.3812 -0.9248  0.2804
 5424TIP3    H116236   6.541   6.681   2.471  0.2729  0.8724  1.3904
 5424TIP3    H216237   6.667   6.679   2.387 -1.2325 -3.1727 -1.0766
 5425TIP3   OH216238   1.760   3.012   0.164 -0.1625  0.1725  0.3040
 5425TIP3    H116239   1.850   2.997   0.193  0.1026  1.1500  0.0340
 5425TIP3    H216240   1.765   3.013   0.068 -0.2753  1.2085  0.2961
 5426TIP3   OH216241   1.690   0.954   2.482  0.0962  0.1835 -0.1927
 5426TIP3    H116242   1.603   0.986   2.505 -0.3114 -0.2799 -1.0362
 5426TIP3    H216243   1.739   1.032   2.457  0.1976  0.5521  1.0879
 5427TIP3   OH216244   5.728   0.640   0.629  0.4993  0.3056  0.3507
 5427TIP3    H116245   5.814   0.604   0.608  0.6914  1.4372 -0.9673
 5427TIP3    H216246   5.739   0.681   0.715  1.0643 -0.1872  0.5187
 5428TIP3   OH216247   4.535   2.954   5.268  0.5964  0.3782 -0.5758
 5428TIP3    H116248   4.454   2.935   5.222  0.5520 -0.3513 -0.2154
 5428TIP3    H216249   4.548   3.049   5.257  0.5560  0.2404 -2.0047
 5429TIP3   OH216250   5.180   6.774   0.705 -0.0265 -0.1784 -0.1385
 5429TIP3    H116251   5.197   6.789   0.798  0.5593 -1.1121 -0.0896
 5429TIP3    H216252   5.106   6.832   0.685 -1.4141 -1.3550  1.3609
 5430TIP3   OH216253   5.595   0.701   1.933  0.0275 -0.5646  0.1781
 5430TIP3    H116254   5.690   0.706   1.943 -0.0123 -0.2140  0.3746
 5430TIP3    H216255   5.564   0.790   1.951 -0.4470 -0.9485  1.3289
 5431TIP3   OH216256   4.192   5.339   1.814 -0.5441  0.1117 -0.3229
 5431TIP3    H116257   4.135   5.414   1.797  1.3689  1.7919  0.2792
 5431TIP3    H216258   4.280   5.370   1.795  0.3592 -1.9517  0.1308
 5432TIP3   OH216259   6.181   6.634   0.752 -0.0503  0.3298  0.1774
 5432TIP3    H116260   6.115   6.702   0.759 -1.9883 -1.1536 -1.9510
 5432TIP3    H216261   6.135   6.553   0.774  1.1967 -0.6859 -0.7430
 5433TIP3   OH216262   6.970   2.581   4.366 -0.4581  0.0641  0.5422
 5433TIP3    H116263   6.941   2.611   4.280  0.8026  0.8294  0.3501
 5433TIP3    H216264   6.894   2.592   4.423 -0.4890  2.2966  0.1471
 5434TIP3   OH216265   2.577   4.624   5.645  0.6294  0.2029  0.5037
 5434TIP3    H116266   2.524   4.612   5.567  1.6450  0.2888 -0.2216
 5434TIP3    H216267   2.638   4.550   5.646 -0.0776 -0.3971  1.8204
 5435TIP3   OH216268   6.039   3.538   4.221 -0.2160 -0.0606 -0.0503
 5435TIP3    H116269   5.995   3.582   4.293  0.7768 -0.7906  1.0520
 5435TIP3    H216270   6.130   3.568   4.227 -0.2911  0.5139 -1.5372
 5436TIP3   OH216271   6.381   5.072   1.839 -0.4618  0.2859 -0.5197
 5436TIP3    H116272   6.346   4.992   1.880  0.1930  0.3623  0.2145
 5436TIP3    H216273   6.320   5.091   1.768 -0.9298 -0.5656 -0.3626
 5437TIP3   OH216274   6.638   2.869   0.244  0.5060 -0.4650  0.4030
 5437TIP3    H116275   6.707   2.933   0.225 -0.1479  0.6263  1.5512
 5437TIP3    H216276   6.685   2.792   0.276  1.1803  1.1784  3.7594
 5438TIP3   OH216277   6.916   6.293   1.210 -0.6759  0.5006 -0.0696
 5438TIP3    H116278   6.835   6.329   1.247 -0.2127 -0.6290  2.2185
 5438TIP3    H216279   6.889   6.210   1.171 -0.9056  1.0175 -1.0646
 5439TIP3   OH216280   0.017   5.206   0.686 -0.2873 -0.2390  0.0232
 5439TIP3    H116281  -0.014   5.285   0.641  0.2402 -0.7488 -1.2799
 5439TIP3    H216282   0.030   5.234   0.776 -0.1454  1.1688 -0.4057
 5440TIP3   OH216283   2.413   3.052   0.231 -0.3382  0.6513 -0.1552
 5440TIP3    H116284   2.470   3.012   0.297  0.3316  1.8020 -0.0091
 5440TIP3    H216285   2.360   2.979   0.198  0.3398 -0.2142  0.6018
 5441TIP3   OH216286   1.693   5.882   5.587  0.2385  0.3749 -0.3700
 5441TIP3    H116287   1.614   5.864   5.536  0.3590 -0.5350 -0.2480
 5441TIP3    H216288   1.765   5.860   5.528  0.4144  1.2708 -0.5081
 5442TIP3   OH216289   0.635   6.140   0.494 -0.0190  0.6658  0.1165
 5442TIP3    H116290   0.723   6.103   0.505  0.2483  1.0354 -0.6976
 5442TIP3    H216291   0.650   6.233   0.479 -0.6546  1.0111  1.5509
 5443TIP3   OH216292   1.695   0.735   3.108  0.3382 -0.2486 -0.3259
 5443TIP3    H116293   1.691   0.711   3.200  0.4259  0.5834 -0.0988
 5443TIP3    H216294   1.605   0.758   3.085  0.4343  0.1649 -0.2806
 5444TIP3   OH216295   7.018   0.414   1.566 -0.4462  1.1279  0.6560
 5444TIP3    H116296   7.072   0.339   1.541 -0.3688  0.9170  1.4299
 5444TIP3    H216297   7.048   0.485   1.509 -0.1455  0.7152  0.2909
 5445TIP3   OH216298   6.966   5.392   4.848 -0.3379  0.2043 -0.0456
 5445TIP3    H116299   6.915   5.387   4.767  0.3154 -4.4275 -0.4253
 5445TIP3    H216300   7.057   5.389   4.818 -0.0957 -1.9361  0.7407
 5446TIP3   OH216301   0.890   1.335   2.581  0.0366 -0.1604  0.5152
 5446TIP3    H116302   0.972   1.287   2.580  1.0224  1.4433 -0.4177
 5446TIP3    H216303   0.824   1.270   2.604  1.2083 -2.0759 -1.2209
 5447TIP3   OH216304   1.098   3.030   0.783 -0.2951  0.4466 -0.2827
 5447TIP3    H116305   1.047   3.097   0.738  0.4526  1.2653  0.0854
 5447TIP3    H216306   1.110   2.961   0.718 -1.3756  0.4894 -0.5499
 5448TIP3   OH216307   1.839   3.579   4.894 -0.1329 -0.8094 -0.2109
 5448TIP3    H116308   1.897   3.550   4.964 -0.5665 -1.4895 -0.1190
 5448TIP3    H216309   1.831   3.503   4.837 -2.7912 -1.5858  1.0258
 5449TIP3   OH216310   1.648   0.058   5.551 -0.0220 -0.2339 -0.7281
 5449TIP3    H116311   1.567   0.105   5.532  1.0842  1.1856 -2.1883
 5449TIP3    H216312   1.689   0.108   5.622  0.4934  0.2162 -1.3338
 5450TIP3   OH216313   3.400   6.113   4.471  0.8779 -0.2640 -0.5718
 5450TIP3    H116314   3.389   6.202   4.504  0.4728 -0.0854 -1.1727
 5450TIP3    H216315   3.484   6.083   4.508  0.0189 -0.4259  1.3786
 5451TIP3   OH216316   1.614   4.484   4.133 -0.0595 -0.9212  0.1707
 5451TIP3    H116317   1.709   4.496   4.129 -0.1660  0.1212  0.4405
 5451TIP3    H216318   1.592   4.440   4.050  0.3847  0.9082 -0.9752
 5452TIP3   OH216319   3.698   5.370   5.162  0.1103  0.1567  0.0165
 5452TIP3    H116320   3.694   5.425   5.240  0.6184  2.3855 -1.4391
 5452TIP3    H216321   3.781   5.323   5.170  0.5021  0.9092  0.4703
 5453TIP3   OH216322   4.785   2.425   5.519 -0.1771 -0.2588  0.1835
 5453TIP3    H116323   4.696   2.406   5.547 -0.0081 -0.4590  0.6098
 5453TIP3    H216324   4.836   2.427   5.601 -0.1072  1.6908  0.1164
 5454TIP3   OH216325   2.489   4.029   3.012 -0.3790 -0.2025 -0.0297
 5454TIP3    H116326   2.447   3.977   3.080  1.6784 -1.4460  0.4020
 5454TIP3    H216327   2.543   4.092   3.061 -0.8331  0.5848 -0.5371
 5455TIP3   OH216328   3.905   5.605   1.199 -0.1611 -0.4928  0.5105
 5455TIP3    H116329   3.886   5.694   1.169 -2.4274 -0.1320  2.6935
 5455TIP3    H216330   3.943   5.616   1.286  0.7055 -1.6585  0.3106
 5456TIP3   OH216331   3.899   6.560   1.046 -0.4496 -0.1630 -0.4338
 5456TIP3    H116332   3.983   6.514   1.051 -0.0009  0.5979 -0.7550
 5456TIP3    H216333   3.834   6.490   1.035 -0.1044 -0.9393  1.7993
 5457TIP3   OH216334   2.076   3.911   2.681 -0.1259  0.3661 -0.0619
 5457TIP3    H116335   2.043   3.990   2.725  2.5940  2.2238 -1.0914
 5457TIP3    H216336   2.005   3.886   2.621 -1.1491  1.9212  0.4461
 5458TIP3   OH216337   2.567   0.200   3.626  0.0807  0.4089  0.2649
 5458TIP3    H116338   2.529   0.272   3.676  1.2690  1.1200  0.2014
 5458TIP3    H216339   2.649   0.236   3.591  0.0190 -0.5372 -0.9508
 5459TIP3   OH216340   3.353   1.137   0.207  0.5768  0.1243  0.2147
 5459TIP3    H116341   3.360   1.088   0.290 -0.0619 -0.8111 -0.2608
 5459TIP3    H216342   3.436   1.120   0.162  0.4460 -0.3474  0.1487
 5460TIP3   OH216343   2.768   2.151   4.211  0.6351  0.4182  0.0231
 5460TIP3    H116344   2.702   2.095   4.251 -0.4775  0.9382 -1.0432
 5460TIP3    H216345   2.770   2.125   4.119  0.0213  2.1636 -0.5205
 5461TIP3   OH216346   3.142   1.872   3.897  0.1687 -0.1264 -0.2401
 5461TIP3    H116347   3.088   1.838   3.826 -0.3335 -0.3892  0.2573
 5461TIP3    H216348   3.191   1.944   3.858  1.2942 -1.4237 -1.3414
 5462TIP3   OH216349   3.739   1.852   0.580 -0.4419  0.0892 -0.3862
 5462TIP3    H116350   3.671   1.853   0.646  0.2540  0.0772  0.3494
 5462TIP3    H216351   3.751   1.760   0.558  0.7617 -0.1394  1.0282
 5463TIP3   OH216352   1.001   6.109   1.173 -0.2253  0.9379 -0.0961
 5463TIP3    H116353   0.928   6.156   1.212  0.7450  1.1190  1.6181
 5463TIP3    H216354   0.987   6.018   1.199 -0.1639  0.8723 -0.2897
 5464TIP3   OH216355   3.962   1.897   1.520  0.4066  0.0591 -0.0940
 5464TIP3    H116356   4.015   1.914   1.598  0.0680  1.3464 -0.1177
 5464TIP3    H216357   3.937   1.805   1.527 -0.5934  0.4357  1.9302
 5465TIP3   OH216358   4.765   1.429   0.795 -0.8951  0.2578  0.3964
 5465TIP3    H116359   4.857   1.450   0.811 -0.6753 -0.4846  0.1642
 5465TIP3    H216360   4.716   1.505   0.828 -0.1466  1.1104 -0.4294
 5466TIP3   OH216361   1.934   6.315   0.705  0.1130  0.2808  0.3324
 5466TIP3    H116362   1.880   6.309   0.627 -0.4553  0.2599  0.7222
 5466TIP3    H216363   1.949   6.408   0.718 -0.1383  0.3066  0.4344
 5467TIP3   OH216364   4.860   2.110   4.585  0.0704 -0.3356 -0.0895
 5467TIP3    H116365   4.765   2.095   4.591  0.3561 -1.8325  1.4295
 5467TIP3    H216366   4.893   2.035   4.536  0.6692 -0.8871  1.1067
 5468TIP3   OH216367   0.163   2.594   2.794 -0.0342 -0.6926 -0.3186
 5468TIP3    H116368   0.107   2.626   2.723  1.1139  1.6961 -0.2477
 5468TIP3    H216369   0.240   2.559   2.749  1.6592  2.6953 -0.4005
 5469TIP3   OH216370   4.647   6.472   0.717 -0.1172 -0.3014 -0.3296
 5469TIP3    H116371   4.573   6.502   0.769  1.4509  1.0062  1.2860
 5469TIP3    H216372   4.666   6.545   0.658  2.7681  1.5747  2.5801
 5470TIP3   OH216373   5.916   0.052   2.683  0.1197  0.0411 -0.2850
 5470TIP3    H116374   5.997   0.005   2.700  0.0334 -0.0258 -0.0492
 5470TIP3    H216375   5.899   0.100   2.764 -1.9803 -2.7421  1.0886
 5471TIP3   OH216376   7.091   3.595   1.122  0.0838  0.2086  0.7963
 5471TIP3    H116377   7.127   3.651   1.191 -0.9182  0.9345  0.7546
 5471TIP3    H216378   6.998   3.589   1.142  0.0269 -0.7781  0.3174
 5472TIP3   OH216379   4.931   6.256   4.905  0.8041  0.0212  0.1020
 5472TIP3    H116380   4.924   6.351   4.911  0.9263 -0.0274  1.0632
 5472TIP3    H216381   4.950   6.227   4.994 -0.9842 -1.0549  0.1937
 5473TIP3   OH216382   0.675   1.355   4.580 -0.3884 -0.2466 -1.1532
 5473TIP3    H116383   0.660   1.269   4.542 -0.0952 -1.1246  0.6123
 5473TIP3    H216384   0.595   1.404   4.561 -0.6139 -0.9402 -2.0481
 5474TIP3   OH216385   0.422   1.604   4.001  0.4377  0.0604  0.1365
 5474TIP3    H116386   0.434   1.510   4.009  0.8975 -0.0164 -1.2261
 5474TIP3    H216387   0.503   1.642   4.034  0.4257 -0.0430  0.2821
 5475TIP3   OH216388   5.465   6.324   0.077 -0.3988  0.2847 -0.4550
 5475TIP3    H116389   5.521   6.247   0.086  1.5294  1.5253 -1.1608
 5475TIP3    H216390   5.396   6.312   0.142  1.1767 -0.9300  1.0752
 5476TIP3   OH216391   1.022   6.299   3.650 -0.0890  0.3937 -0.2656
 5476TIP3    H116392   0.981   6.244   3.584 -0.3982  1.9433 -1.4227
 5476TIP3    H216393   1.116   6.291   3.633 -0.1322  0.2193 -0.4199
 5477TIP3   OH216394   1.557   4.472   1.605  0.0470  0.2311  0.0352
 5477TIP3    H116395   1.468   4.505   1.615  0.7828  2.3099  0.0934
 5477TIP3    H216396   1.580   4.436   1.690 -1.0224 -1.1845 -0.2302
 5478TIP3   OH216397   3.416   1.351   2.584  0.4000  0.5039 -0.3369
 5478TIP3    H116398   3.502   1.392   2.599  0.2962  0.5540  0.1565
 5478TIP3    H216399   3.354   1.411   2.625  0.1149  0.5350 -0.8133
 5479TIP3   OH216400   6.603   4.895   4.720 -0.0677  0.3960 -0.5381
 5479TIP3    H116401   6.649   4.858   4.795 -1.7724  2.3812  1.6467
 5479TIP3    H216402   6.524   4.841   4.711 -0.1575  0.5177 -0.4916
 5480TIP3   OH216403   2.084   3.082   2.759 -0.0695 -0.2165 -0.4660
 5480TIP3    H116404   2.084   3.055   2.667  0.6209 -0.0480 -0.5218
 5480TIP3    H216405   2.018   3.026   2.800  1.3983 -2.1334 -0.5528
 5481TIP3   OH216406   3.848   4.497   5.184  0.4669  0.6296 -0.4399
 5481TIP3    H116407   3.868   4.416   5.231  1.5957  0.1772 -1.6452
 5481TIP3    H216408   3.860   4.475   5.092  1.5730  2.3754 -0.7495
 5482TIP3   OH216409   5.226   6.777   0.969 -0.4996 -0.1408 -0.2273
 5482TIP3    H116410   5.301   6.788   1.027 -1.1460  0.2739  0.5434
 5482TIP3    H216411   5.180   6.701   1.003 -0.2441 -0.6192 -0.9214
 5483TIP3   OH216412   6.014   6.745   1.834 -0.0265  0.1350  0.0968
 5483TIP3    H116413   6.011   6.673   1.896 -2.4315  0.0421 -0.0513
 5483TIP3    H216414   6.086   6.800   1.865  0.7851 -1.4504  1.1562
 5484TIP3   OH216415   5.848   6.587   4.559  0.0940 -0.3607  0.2321
 5484TIP3    H116416   5.884   6.609   4.645  0.7080 -1.2018  0.2098
 5484TIP3    H216417   5.863   6.665   4.505  0.3667 -0.0936  0.6917
 5485TIP3   OH216418   6.786   3.875   3.700  0.5193 -0.9377  0.4220
 5485TIP3    H116419   6.730   3.827   3.761 -1.1629 -1.8282 -1.6847
 5485TIP3    H216420   6.868   3.888   3.748 -0.4499 -2.1928  2.5780
 5486TIP3   OH216421   1.278   4.691   3.498 -0.3270  0.0060  0.1598
 5486TIP3    H116422   1.285   4.737   3.582  0.9649 -1.6878  1.0456
 5486TIP3    H216423   1.366   4.696   3.461 -0.6751 -0.0158 -0.6850
 5487TIP3   OH216424   3.609   0.890   3.398  0.0613 -1.0666  0.0159
 5487TIP3    H116425   3.593   0.962   3.338 -0.0785  0.3025  1.6111
 5487TIP3    H216426   3.589   0.926   3.485  0.9638 -2.7101  0.9666
 5488TIP3   OH216427   4.610   2.934   5.525  0.4328  0.5628 -0.0116
 5488TIP3    H116428   4.701   2.960   5.535  0.1599  1.9481 -0.8572
 5488TIP3    H216429   4.589   2.953   5.434 -0.4660 -0.5375 -0.0564
 5489TIP3   OH216430   6.445   0.644   4.127 -0.0953 -0.0090 -0.0706
 5489TIP3    H116431   6.425   0.657   4.034 -1.0269 -0.6902  0.0200
 5489TIP3    H216432   6.456   0.549   4.136  0.5736  0.1060  0.4130
 5490TIP3   OH216433   0.750   5.831   3.228 -0.2374  0.5857  0.0163
 5490TIP3    H116434   0.787   5.885   3.159  1.8897 -0.7610  0.0207
 5490TIP3    H216435   0.722   5.751   3.183  0.4367  0.0242  0.5814
 5491TIP3   OH216436   6.660   1.073   1.742  0.1793  0.2500  0.1345
 5491TIP3    H116437   6.732   1.101   1.684  1.0389 -2.4132 -0.2225
 5491TIP3    H216438   6.688   1.099   1.829  1.1826  0.0569 -0.1135
 5492TIP3   OH216439   0.323   2.056   0.115  0.2562  0.0795  0.2675
 5492TIP3    H116440   0.269   2.098   0.180 -1.3442 -0.3031 -0.7583
 5492TIP3    H216441   0.264   1.995   0.070  1.5614 -0.4555 -0.8033
 5493TIP3   OH216442   2.351   3.923   2.729  0.5471  0.1976  0.0899
 5493TIP3    H116443   2.266   3.919   2.686  0.9705 -2.0051 -0.6445
 5493TIP3    H216444   2.333   3.901   2.820  0.3549 -0.4146 -0.0961
 5494TIP3   OH216445   4.789   5.274   2.301  0.0427 -0.2807 -0.1654
 5494TIP3    H116446   4.869   5.326   2.315  0.3856 -0.8935  0.2134
 5494TIP3    H216447   4.732   5.331   2.250  0.0001  0.8635  1.1198
 5495TIP3   OH216448   6.806   5.612   2.589 -0.1472  0.2321  0.3096
 5495TIP3    H116449   6.757   5.543   2.634 -1.6014  2.6785  2.7699
 5495TIP3    H216450   6.760   5.624   2.506 -0.3889 -1.1241  0.2247
 5496TIP3   OH216451   1.584   2.454   2.152  0.2622  0.2634  0.1516
 5496TIP3    H116452   1.597   2.526   2.092  0.9918 -0.2279 -0.2924
 5496TIP3    H216453   1.489   2.443   2.156  0.1205  1.5393  0.5942
 5497TIP3   OH216454   5.156   3.186   2.302  0.0403  0.1617  0.2543
 5497TIP3    H116455   5.165   3.121   2.233  2.5856  0.3578  0.2925
 5497TIP3    H216456   5.088   3.152   2.360 -0.7962 -0.9286 -1.3242
 5498TIP3   OH216457   3.368   0.155   5.109  0.7126 -0.0443  0.1798
 5498TIP3    H116458   3.395   0.078   5.159 -0.4329  0.4235  1.5720
 5498TIP3    H216459   3.403   0.139   5.021  0.3641 -2.2250  0.3828
 5499TIP3   OH216460   5.265   6.568   4.901 -0.3889 -0.2291  0.2971
 5499TIP3    H116461   5.301   6.550   4.815  0.7661 -0.8244  0.8817
 5499TIP3    H216462   5.235   6.658   4.896  1.2575  0.3295 -0.2215
 5500TIP3   OH216463   1.408   3.265   2.084  0.0867  0.1835 -0.2477
 5500TIP3    H116464   1.463   3.198   2.044  0.7646  0.4476  0.2177
 5500TIP3    H216465   1.429   3.262   2.177 -0.1238  0.8080 -0.1715
 5501TIP3   OH216466   6.806   0.739   3.147 -0.4840  0.2990  0.4737
 5501TIP3    H116467   6.875   0.766   3.087  0.6037 -1.7847  0.7115
 5501TIP3    H216468   6.726   0.779   3.111  0.7088  2.3052 -0.1100
 5502TIP3   OH216469   2.007   5.321   2.715  0.7112  0.0664  0.1458
 5502TIP3    H116470   1.971   5.408   2.700 -0.3684 -0.5893 -1.2815
 5502TIP3    H216471   2.008   5.280   2.628  1.1642 -1.3639  0.7926
 5503TIP3   OH216472   3.194   1.351   4.566 -0.2294  0.0641 -0.0911
 5503TIP3    H116473   3.209   1.377   4.657 -0.5653 -1.1110  0.3159
 5503TIP3    H216474   3.120   1.291   4.570  1.4240 -2.1757 -0.7307
 5504TIP3   OH216475   3.885   0.954   4.333 -0.0868  0.2145  0.5427
 5504TIP3    H116476   3.833   0.878   4.307 -0.5551  0.4558  0.7389
 5504TIP3    H216477   3.848   1.027   4.283  0.5525  0.2631  0.1349
 5505TIP3   OH216478   1.473   1.752   5.502  0.8638 -0.0985  0.0255
 5505TIP3    H116479   1.457   1.718   5.590  0.2116  0.8963  0.3078
 5505TIP3    H216480   1.386   1.755   5.461  0.6440  2.5258  0.5132
 5506TIP3   OH216481   2.132   3.805   3.428 -0.3764 -0.0224 -1.0455
 5506TIP3    H116482   2.061   3.782   3.367 -0.8605 -0.3804 -0.3576
 5506TIP3    H216483   2.201   3.741   3.409  0.1601  0.8963 -2.3546
 5507TIP3   OH216484   7.000   3.411   1.416 -0.2614  0.3081  0.5827
 5507TIP3    H116485   7.064   3.427   1.486 -0.2601 -0.5646  0.8014
 5507TIP3    H216486   7.014   3.319   1.392 -0.9715  0.3042  0.1565
 5508TIP3   OH216487   3.313   2.308   3.514  0.1675 -0.2219  0.3833
 5508TIP3    H116488   3.261   2.347   3.444 -1.4210 -4.7239 -1.3131
 5508TIP3    H216489   3.404   2.327   3.490 -0.4488  1.7092 -0.6086
 5509TIP3   OH216490   6.919   1.133   5.863  0.0149 -0.3233 -0.4413
 5509TIP3    H116491   6.891   1.048   5.828 -0.2990 -0.0251 -0.9344
 5509TIP3    H216492   6.854   1.195   5.830  0.4599  0.1677 -0.4158
 5510TIP3   OH216493   4.874   0.514   3.438  0.3308  0.4450  0.6763
 5510TIP3    H116494   4.801   0.566   3.404 -0.6133 -2.4346 -2.1066
 5510TIP3    H216495   4.842   0.480   3.522 -0.4693  1.2450  0.7218
 5511TIP3   OH216496   4.278   4.778   2.943  0.1283  0.7475  0.1110
 5511TIP3    H116497   4.226   4.765   2.864 -0.2140 -0.1429  0.4650
 5511TIP3    H216498   4.303   4.870   2.941  0.4130  0.6545 -1.2075
 5512TIP3   OH216499   5.002   4.198   1.786 -0.0083 -0.6892 -0.3335
 5512TIP3    H116500   5.074   4.207   1.724  0.4442 -0.5456  0.2010
 5512TIP3    H216501   4.992   4.103   1.798  0.0233 -0.7123 -0.4870
 5513TIP3   OH216502   4.222   1.260   2.451 -0.5646  0.6360 -0.1239
 5513TIP3    H116503   4.167   1.196   2.495 -2.1432  0.9390 -1.5488
 5513TIP3    H216504   4.260   1.211   2.377 -0.1598  0.8341 -0.0475
 5514TIP3   OH216505   1.424   4.442   0.283 -0.3150 -0.6472 -0.2471
 5514TIP3    H116506   1.478   4.384   0.230  0.9262  0.6155 -0.4255
 5514TIP3    H216507   1.486   4.494   0.334 -1.4428 -1.2541  1.8907
 5515TIP3   OH216508   5.486   4.855   4.723  0.2732  0.3029  0.3705
 5515TIP3    H116509   5.462   4.889   4.636  1.5846  0.8359  0.1917
 5515TIP3    H216510   5.571   4.894   4.741 -0.0695  0.3677  2.0064
 5516TIP3   OH216511   3.555   0.019   4.125  0.2459 -0.3489  0.0666
 5516TIP3    H116512   3.609  -0.052   4.092 -0.7216 -0.9721 -0.2267
 5516TIP3    H216513   3.576   0.094   4.069  0.2995 -0.7656 -0.4766
 5517TIP3   OH216514   6.272   3.977   4.014 -0.3833  0.7061  0.0408
 5517TIP3    H116515   6.181   3.953   4.034 -0.2585  0.2680  0.0963
 5517TIP3    H216516   6.322   3.946   4.089 -0.2752  1.5984  0.3488
 5518TIP3   OH216517   2.815   2.502   2.620  0.0262  0.4373 -0.4522
 5518TIP3    H116518   2.849   2.427   2.570 -1.0871 -0.4522  0.0872
 5518TIP3    H216519   2.773   2.557   2.554  0.5148  0.3953 -0.8036
 5519TIP3   OH216520   3.603   4.671   5.817 -0.5449  0.3269 -0.1359
 5519TIP3    H116521   3.570   4.597   5.765 -0.6948  1.0628 -1.1210
 5519TIP3    H216522   3.696   4.651   5.830  0.0208  1.0639 -2.4762
 5520TIP3   OH216523   4.834   4.122   1.012  0.2795  0.0597 -0.5509
 5520TIP3    H116524   4.913   4.068   1.011  0.9622  1.0315 -0.2232
 5520TIP3    H216525   4.808   4.130   0.920  0.2168 -0.7419 -0.6073
 5521TIP3   OH216526   5.212   6.625   5.180 -0.4541  0.8581  0.2632
 5521TIP3    H116527   5.144   6.669   5.129 -0.1166  3.4188  1.8346
 5521TIP3    H216528   5.294   6.656   5.141 -0.0583 -1.8971 -1.3702
 5522TIP3   OH216529   1.743   0.600   1.561  0.1539  0.1039 -0.7296
 5522TIP3    H116530   1.783   0.545   1.628 -0.3439 -0.1053 -0.6049
 5522TIP3    H216531   1.814   0.618   1.499  0.4468 -0.2391 -0.4923
 5523TIP3   OH216532   5.978   4.246   4.268 -0.0613 -0.4165 -0.1815
 5523TIP3    H116533   5.943   4.248   4.179 -0.9022 -0.2967  0.1384
 5523TIP3    H216534   6.069   4.220   4.258  0.3007  1.0934 -1.2249
 5524TIP3   OH216535   5.283   1.470   4.589  0.0054 -0.1911  0.2424
 5524TIP3    H116536   5.326   1.512   4.514 -1.4012  0.4182 -0.2604
 5524TIP3    H216537   5.231   1.400   4.550 -3.0943  1.9577  0.1846
 5525TIP3   OH216538   0.510   0.656   0.029  0.0642  0.3915 -0.2078
 5525TIP3    H116539   0.421   0.662   0.062 -0.0555  0.8502 -0.5987
 5525TIP3    H216540   0.538   0.747   0.018 -0.9486  0.4361 -4.0733
 5526TIP3   OH216541   3.590   4.564   2.840 -0.3657  0.4670 -0.4976
 5526TIP3    H116542   3.505   4.519   2.849  0.1755 -0.5853 -0.5028
 5526TIP3    H216543   3.605   4.604   2.925 -0.8577  0.6413 -0.4890
 5527TIP3   OH216544   5.222   2.995   0.585  0.4990  0.3848  0.6369
 5527TIP3    H116545   5.222   3.087   0.613  0.1893 -0.3235  3.1117
 5527TIP3    H216546   5.132   2.978   0.558  1.0029  1.3413 -2.0457
 5528TIP3   OH216547   4.259   4.023   5.601  0.3984  0.0560 -0.3336
 5528TIP3    H116548   4.272   4.011   5.507  1.6801 -0.5499 -0.1004
 5528TIP3    H216549   4.239   3.935   5.634 -0.9921  0.4046 -0.1426
 5529TIP3   OH216550   7.192   3.128   0.676 -0.4186  0.4791  0.0726
 5529TIP3    H116551   7.229   3.125   0.588 -1.4180  2.0873 -0.4518
 5529TIP3    H216552   7.169   3.037   0.695 -1.2101  0.2142 -1.8135
 5530TIP3   OH216553   0.459   0.623   2.273 -0.1584 -0.6192 -0.1355
 5530TIP3    H116554   0.395   0.672   2.222 -1.7739 -0.1885  2.1206
 5530TIP3    H216555   0.534   0.682   2.280 -0.3847 -0.2182 -1.0156
 5531TIP3   OH216556   0.171   2.598   0.111 -0.3493 -0.4511  0.4341
 5531TIP3    H116557   0.171   2.503   0.112 -0.3509 -0.5152 -1.2869
 5531TIP3    H216558   0.078   2.622   0.101 -0.1659 -0.3979 -1.5813
 5532TIP3   OH216559   0.202   3.332   4.454 -0.9686 -0.4243 -0.1799
 5532TIP3    H116560   0.123   3.310   4.503  0.0291 -0.4974  1.4818
 5532TIP3    H216561   0.273   3.289   4.502  0.0234 -0.9560 -2.0239
 5533TIP3   OH216562   1.260   4.993   0.458  0.0990  0.2106  0.1528
 5533TIP3    H116563   1.276   4.900   0.446 -1.8869 -0.2010  0.2911
 5533TIP3    H216564   1.285   5.011   0.549 -1.4831 -0.7234  0.8281
 5534TIP3   OH216565   1.166   5.599   0.830  0.1314 -0.5260 -0.1491
 5534TIP3    H116566   1.186   5.686   0.795  1.8544 -1.7315 -2.4323
 5534TIP3    H216567   1.249   5.552   0.828 -1.1382 -2.9498 -1.2409
 5535TIP3   OH216568   2.505   3.975   3.492 -0.2322 -0.3226  0.2807
 5535TIP3    H116569   2.497   3.889   3.533  1.4713 -0.1985  0.9773
 5535TIP3    H216570   2.462   4.035   3.553 -0.6971 -0.5631  0.1944
 5536TIP3   OH216571   2.188   5.463   4.563 -0.1068  0.2096 -0.0714
 5536TIP3    H116572   2.215   5.372   4.552 -0.6484  0.1022 -0.5715
 5536TIP3    H216573   2.241   5.495   4.636 -1.4808 -1.1570  1.6322
 5537TIP3   OH216574   6.886   1.707   4.620 -0.3511 -0.2174 -0.3482
 5537TIP3    H116575   6.970   1.752   4.613 -0.1497 -0.8063 -2.5427
 5537TIP3    H216576   6.827   1.757   4.563 -0.8550 -1.0929 -0.6166
 5538TIP3   OH216577   5.319   0.723   5.358  0.2016 -0.1715  0.1765
 5538TIP3    H116578   5.253   0.660   5.385 -1.6902  1.3241 -0.7356
 5538TIP3    H216579   5.360   0.752   5.439 -2.3483  1.0278  1.1391
 5539TIP3   OH216580   2.797   2.741   4.749  0.1421 -0.2039 -0.5985
 5539TIP3    H116581   2.874   2.698   4.711  0.5669 -0.0973  0.1283
 5539TIP3    H216582   2.724   2.707   4.698  0.3905 -2.3059  0.3444
 5540TIP3   OH216583   0.661   0.366   1.474  0.1288  0.0159 -0.9901
 5540TIP3    H116584   0.627   0.435   1.531 -0.2062 -0.1716 -0.9591
 5540TIP3    H216585   0.746   0.344   1.510  0.1052  0.2004 -0.8203
 5541TIP3   OH216586   6.962   1.185   0.716 -0.6719 -0.0328  0.1406
 5541TIP3    H116587   6.984   1.276   0.696 -0.5880 -0.0562  0.1289
 5541TIP3    H216588   7.035   1.153   0.768  0.8685 -1.0249 -2.4312
 5542TIP3   OH216589   0.995   3.423   2.040  0.6986  0.0310  0.1931
 5542TIP3    H116590   0.957   3.511   2.040  1.6570  0.6160  3.8531
 5542TIP3    H216591   1.088   3.437   2.026  1.0667 -0.1618  2.1509
 5543TIP3   OH216592   0.475   1.661   5.286 -0.0017  0.3237 -0.1236
 5543TIP3    H116593   0.559   1.665   5.332 -1.1106  1.5532  1.9381
 5543TIP3    H216594   0.457   1.567   5.277  2.3651 -0.0508 -2.2843
 5544TIP3   OH216595   5.549   0.972   1.935  0.0763 -0.3073 -0.0453
 5544TIP3    H116596   5.528   1.056   1.896 -0.2246  1.6099  3.8028
 5544TIP3    H216597   5.644   0.975   1.950  0.1248 -0.8140 -0.2169
 5545TIP3   OH216598   3.194   1.683   5.240  0.7587 -0.3696  0.3228
 5545TIP3    H116599   3.106   1.647   5.238  0.9234 -0.8313  0.9890
 5545TIP3    H216600   3.219   1.682   5.333  1.6724 -0.7782  0.0921
 5546TIP3   OH216601   1.884   4.253   3.447  0.4634 -0.0748 -0.3130
 5546TIP3    H116602   1.880   4.332   3.501 -0.8757  2.0689 -3.2733
 5546TIP3    H216603   1.944   4.276   3.376  0.8198 -2.1224 -0.7208
 5547TIP3   OH216604   3.865   5.523   1.815 -0.4488  1.2133  0.3153
 5547TIP3    H116605   3.839   5.456   1.878  0.1259  1.3486  0.7050
 5547TIP3    H216606   3.803   5.513   1.743 -0.7122  0.6279  0.6117
 5548TIP3   OH216607   1.968   6.480   5.503  0.4564  0.0833 -0.1654
 5548TIP3    H116608   1.873   6.487   5.503  0.4976  0.8733 -1.5980
 5548TIP3    H216609   1.997   6.538   5.433  1.9217 -1.0784 -0.5798
 5549TIP3   OH216610   3.411   4.651   5.278 -0.5204  0.4905  0.0381
 5549TIP3    H116611   3.374   4.693   5.356 -1.0995 -1.1011  0.6672
 5549TIP3    H216612   3.495   4.695   5.265  0.0289  0.2183  2.1350
 5550TIP3   OH216613   6.560   6.351   3.964  0.0796  0.4025  0.0489
 5550TIP3    H116614   6.472   6.358   3.927 -0.3166  0.6577  1.0072
 5550TIP3    H216615   6.592   6.266   3.934  0.7171  1.5506 -2.8221
 5551TIP3   OH216616   5.984   5.989   5.775 -0.6402 -0.3817  0.4564
 5551TIP3    H116617   5.897   6.029   5.785 -0.1443  0.7304  0.4590
 5551TIP3    H216618   6.010   6.011   5.686 -1.2727 -2.6163 -0.3338
 5552TIP3   OH216619   4.929   1.941   2.021  0.3636 -0.6485  0.3504
 5552TIP3    H116620   4.929   1.880   1.947 -0.1603 -1.0723  0.6988
 5552TIP3    H216621   4.997   1.906   2.080 -0.8008 -1.6431  1.1487
 5553TIP3   OH216622   4.424   5.223   2.198 -0.6983  0.0029  0.1219
 5553TIP3    H116623   4.421   5.130   2.178 -0.3629  0.1965 -0.9178
 5553TIP3    H216624   4.348   5.239   2.253 -0.8239 -0.8585  0.2042
 5554TIP3   OH216625   1.526   4.702   3.358  0.6368  0.0700  0.5371
 5554TIP3    H116626   1.537   4.699   3.263 -0.1127  2.0191  0.3350
 5554TIP3    H216627   1.558   4.789   3.383  0.5125 -0.2858  2.0274
 5555TIP3   OH216628   4.554   2.598   3.326  0.4256  0.1834 -0.0217
 5555TIP3    H116629   4.516   2.661   3.265 -0.0023 -1.2552 -1.2903
 5555TIP3    H216630   4.625   2.556   3.278 -0.2470 -1.3452  0.2425
 5556TIP3   OH216631   3.575   1.027   4.945  0.1589 -0.0799 -0.8212
 5556TIP3    H116632   3.601   1.057   5.032 -1.9159  1.0822 -0.5367
 5556TIP3    H216633   3.509   1.090   4.917  1.1455 -0.1301 -3.4980
 5557TIP3   OH216634   7.152   2.748   2.659  0.0259  0.2104  0.2034
 5557TIP3    H116635   7.129   2.801   2.583  1.4808  1.0640  0.3172
 5557TIP3    H216636   7.165   2.812   2.729  1.6817 -0.2854  0.3854
 5558TIP3   OH216637   4.236   5.070   5.333  0.7464  0.1259 -0.2993
 5558TIP3    H116638   4.202   5.078   5.244 -0.7266  0.0589  0.2210
 5558TIP3    H216639   4.303   5.138   5.339 -0.0088  0.9728 -1.0808
 5559TIP3   OH216640   1.029   3.028   4.974  0.5062 -0.2694  0.0341
 5559TIP3    H116641   1.100   3.007   5.035 -0.9043  0.4194  2.0010
 5559TIP3    H216642   0.949   2.999   5.019 -0.6529  0.8404 -1.2273
 5560TIP3   OH216643   5.829   2.891   2.238 -0.1778  0.7960 -0.2216
 5560TIP3    H116644   5.811   2.952   2.309  2.0386  0.9742  0.2539
 5560TIP3    H216645   5.907   2.927   2.194 -0.8640  0.1360 -2.1097
 5561TIP3   OH216646   4.902   4.395   3.046 -0.3023  0.1739  0.5239
 5561TIP3    H116647   4.863   4.352   3.122 -1.8173 -0.0263 -0.3198
 5561TIP3    H216648   4.868   4.484   3.049 -1.8322 -0.3023 -0.8280
 5562TIP3   OH216649   1.933   5.535   1.066  0.2950 -0.4667  0.2685
 5562TIP3    H116650   1.960   5.463   1.124  1.8238  0.3528  0.6181
 5562TIP3    H216651   2.011   5.555   1.015 -1.0865 -1.4293 -2.4465
 5563TIP3   OH216652   6.933   2.437   2.734 -0.6526 -0.2680  0.1474
 5563TIP3    H116653   6.894   2.370   2.791  0.2390 -1.2272 -0.3513
 5563TIP3    H216654   6.973   2.499   2.795  0.3444 -1.3156  0.5893
 5564TIP3   OH216655   2.610   1.174   2.316  0.1583  0.2556 -0.2979
 5564TIP3    H116656   2.661   1.197   2.238  0.4130 -1.7799 -0.7892
 5564TIP3    H216657   2.523   1.208   2.299 -0.1639 -1.3569 -2.1542
 5565TIP3   OH216658   5.986   3.724   1.474 -0.0332 -0.1525 -0.5249
 5565TIP3    H116659   6.065   3.733   1.528 -0.6781  0.3412  0.3774
 5565TIP3    H216660   5.961   3.632   1.484  0.3290 -0.2697 -0.6769
 5566TIP3   OH216661   1.652   1.168   0.881  0.2194 -0.3188  0.6164
 5566TIP3    H116662   1.718   1.109   0.845  0.0112  0.0141 -0.3573
 5566TIP3    H216663   1.692   1.255   0.877  0.9340 -0.4603  3.0231
 5567TIP3   OH216664   1.379   3.313   4.473 -0.0372  0.1849 -0.0784
 5567TIP3    H116665   1.399   3.231   4.518 -0.7595 -0.0200 -0.1156
 5567TIP3    H216666   1.287   3.330   4.494  0.1235  1.0325 -0.0039
 5568TIP3   OH216667   6.843   5.851   0.870  0.9761 -0.2102  0.6250
 5568TIP3    H116668   6.880   5.797   0.801  1.0190  0.4925  0.0883
 5568TIP3    H216669   6.767   5.893   0.830  0.4420 -0.5212  1.2884
 5569TIP3   OH216670   2.069   0.616   3.487  0.3470 -0.4795 -0.2644
 5569TIP3    H116671   2.094   0.643   3.576 -2.7181  0.1253  0.5359
 5569TIP3    H216672   2.007   0.544   3.501 -0.0729 -0.4633 -1.9096
 5570TIP3   OH216673   4.783   2.412   1.883 -0.4719 -0.8227  0.3230
 5570TIP3    H116674   4.692   2.425   1.857 -0.2178 -1.6396 -1.0910
 5570TIP3    H216675   4.801   2.320   1.860  0.7498 -0.6262  0.4321
 5571TIP3   OH216676   6.844   2.300   1.322  0.4040  0.1587 -0.4635
 5571TIP3    H116677   6.763   2.334   1.282 -0.1086 -0.2218  0.2317
 5571TIP3    H216678   6.822   2.211   1.348  0.9884  0.1233 -0.0748
 5572TIP3   OH216679   3.620   2.739   5.462 -0.1024 -0.1743 -0.3406
 5572TIP3    H116680   3.618   2.652   5.502 -1.4793 -0.6848 -1.4278
 5572TIP3    H216681   3.712   2.756   5.446  0.3086 -0.8065  1.1852
 5573TIP3   OH216682   6.584   1.020   2.940 -0.3365 -0.2899 -0.6555
 5573TIP3    H116683   6.639   1.065   3.004  1.1820 -0.6986 -1.6093
 5573TIP3    H216684   6.517   0.977   2.992 -1.3128  2.2703  0.3529
 5574TIP3   OH216685   2.693   0.826   5.804  0.5340  0.5515  0.2803
 5574TIP3    H116686   2.721   0.800   5.716  0.2570 -0.0196  0.3614
 5574TIP3    H216687   2.622   0.889   5.788  0.4291  0.3874  0.0925
 5575TIP3   OH216688   6.397   6.355   1.650 -0.2855 -0.0068  0.1933
 5575TIP3    H116689   6.451   6.277   1.648  0.5956  0.6052 -1.7123
 5575TIP3    H216690   6.355   6.358   1.564 -0.2467  1.6421  0.1993
 5576TIP3   OH216691   0.782   4.949   0.141 -0.0557 -0.4034 -0.0018
 5576TIP3    H116692   0.756   4.976   0.053  0.0468  2.5967  0.7954
 5576TIP3    H216693   0.869   4.911   0.130 -0.5008 -1.0851 -1.3084
 5577TIP3   OH216694   5.391   5.486   3.358 -0.2051  0.9516 -0.6280
 5577TIP3    H116695   5.312   5.530   3.390  0.2701  2.4171 -1.4032
 5577TIP3    H216696   5.458   5.508   3.422 -0.1400  0.6977 -0.6081
 5578TIP3   OH216697   5.825   4.359   4.764  0.0422 -0.3461 -0.6721
 5578TIP3    H116698   5.792   4.443   4.731 -0.5672 -1.0498 -1.9637
 5578TIP3    H216699   5.894   4.335   4.703 -0.2494 -1.0940 -0.7160
 5579TIP3   OH216700   3.453   6.073   3.344 -0.2492 -0.0407 -0.7171
 5579TIP3    H116701   3.467   6.054   3.437  0.7843 -1.3969 -1.1316
 5579TIP3    H216702   3.366   6.037   3.325 -0.1862 -0.3366 -0.4376
 5580TIP3   OH216703   2.736   3.701   3.169  0.2197  0.5510  0.3202
 5580TIP3    H116704   2.762   3.707   3.077 -1.0776 -1.8377 -0.2964
 5580TIP3    H216705   2.651   3.657   3.166  0.0819  0.5611  2.6822
 5581TIP3   OH216706   5.871   5.970   1.762  0.4009  0.2545  0.2780
 5581TIP3    H116707   5.924   6.016   1.698 -0.9478 -0.1094 -1.1710
 5581TIP3    H216708   5.847   6.037   1.826  0.3168  1.0564 -0.5719
 5582TIP3   OH216709   0.269   1.631   4.948  0.2171 -0.1638  0.1514
 5582TIP3    H116710   0.312   1.546   4.936 -1.8212 -1.1903 -0.2743
 5582TIP3    H216711   0.176   1.611   4.945 -0.3130  2.0408  0.5769
 5583TIP3   OH216712   5.499   1.984   1.240  0.3236  0.2751 -0.1510
 5583TIP3    H116713   5.465   1.981   1.151 -0.0887  1.3517 -0.0384
 5583TIP3    H216714   5.430   2.026   1.291  0.2187 -1.0452  0.8455
 5584TIP3   OH216715   3.248   0.935   1.689 -0.5799 -0.0523 -0.4181
 5584TIP3    H116716   3.261   0.989   1.768  0.5574 -0.4672 -0.3084
 5584TIP3    H216717   3.297   0.855   1.706 -2.5188 -1.3147 -0.4469
 5585TIP3   OH216718   4.581   1.589   4.209 -0.1263 -0.2771  0.0410
 5585TIP3    H116719   4.492   1.625   4.217  0.1735  0.8275 -1.1115
 5585TIP3    H216720   4.638   1.665   4.223  0.6821 -1.1116  1.4672
 5586TIP3   OH216721   6.121   6.456   2.284  0.2516 -0.1297  0.5698
 5586TIP3    H116722   6.202   6.406   2.273 -0.7377 -1.4552 -1.1598
 5586TIP3    H216723   6.051   6.392   2.274 -1.0672  1.4989 -1.6652
 5587TIP3   OH216724   6.354   6.379   2.464  0.3035 -0.5534 -0.5957
 5587TIP3    H116725   6.340   6.295   2.421 -0.2168 -0.6717 -0.2000
 5587TIP3    H216726   6.439   6.409   2.430  0.3317 -1.0713 -0.9989
 5588TIP3   OH216727   7.043   0.551   3.242 -0.5874 -0.5055  0.0233
 5588TIP3    H116728   6.960   0.513   3.268 -0.9755 -0.6463 -1.3091
 5588TIP3    H216729   7.038   0.642   3.271 -0.4043 -0.9822  1.6197
 5589TIP3   OH216730   1.443   5.389   5.156  0.1883  0.1875 -0.1663
 5589TIP3    H116731   1.418   5.359   5.069  1.2341 -0.3100 -0.3192
 5589TIP3    H216732   1.372   5.360   5.213  0.3931 -1.1763 -0.5702
 5590TIP3   OH216733   5.825   5.020   5.432  0.4637 -0.0517  0.4941
 5590TIP3    H116734   5.820   5.060   5.518  0.0880 -0.6597  0.7626
 5590TIP3    H216735   5.900   4.960   5.438  0.2860 -0.2768  0.4778
 5591TIP3   OH216736   5.043   2.640   3.174 -0.4230 -0.1586 -0.0675
 5591TIP3    H116737   4.978   2.576   3.145 -0.2920  0.1655 -1.1059
 5591TIP3    H216738   5.070   2.685   3.094  2.3785 -1.4717  0.0023
 5592TIP3   OH216739   3.292   0.423   4.775  0.4463 -0.1977  0.0799
 5592TIP3    H116740   3.231   0.360   4.737  1.0295 -0.0401 -1.1765
 5592TIP3    H216741   3.341   0.457   4.700  2.1489 -0.3942  1.0425
 5593TIP3   OH216742   5.368   5.271   2.280 -0.1958 -0.2830  0.0711
 5593TIP3    H116743   5.391   5.263   2.373 -0.3110 -0.6779  0.0671
 5593TIP3    H216744   5.372   5.365   2.263  1.4573 -0.3133  0.0712
 5594TIP3   OH216745   2.216   5.545   2.234  0.9806  0.0507 -0.4599
 5594TIP3    H116746   2.127   5.573   2.256  1.1704  0.1079  0.2542
 5594TIP3    H216747   2.272   5.596   2.292  1.3602 -1.4791  0.5856
 5595TIP3   OH216748   1.995   1.738   4.050  0.2555  0.2959  0.3043
 5595TIP3    H116749   1.995   1.667   3.986  0.9496  1.2006 -0.7279
 5595TIP3    H216750   2.044   1.809   4.009 -0.8924  1.6056  1.0715
 5596TIP3   OH216751   5.680   1.448   4.580  0.2072  0.4123  0.1332
 5596TIP3    H116752   5.615   1.421   4.515  1.5470 -1.7575 -0.4260
 5596TIP3    H216753   5.629   1.489   4.650 -1.6724 -0.4888 -0.6407
 5597TIP3   OH216754   2.708   6.025   3.954 -0.1172 -0.3879  0.9879
 5597TIP3    H116755   2.632   5.966   3.945  0.6975 -1.1656 -1.6179
 5597TIP3    H216756   2.758   5.987   4.026 -0.5783 -1.8151  0.6064
 5598TIP3   OH216757   4.433   3.417   1.321  0.2948 -0.3956 -0.2695
 5598TIP3    H116758   4.373   3.352   1.284 -2.1387  1.7059 -0.3031
 5598TIP3    H216759   4.381   3.497   1.324  2.9012  1.3582  0.5359
 5599TIP3   OH216760   6.666   4.277   5.124 -0.3222  0.1836 -0.8480
 5599TIP3    H116761   6.724   4.202   5.137 -1.4531 -0.2434  2.8986
 5599TIP3    H216762   6.720   4.342   5.079  2.3966 -0.9992  0.4908
 5600TIP3   OH216763   6.105   5.113   5.826 -0.3965 -0.1054  0.3550
 5600TIP3    H116764   6.124   5.171   5.900 -1.4861  0.3817  0.2701
 5600TIP3    H216765   6.118   5.025   5.861 -0.2086  0.1467  0.9283
 5601TIP3   OH216766   5.952   2.443   3.039  0.1432 -0.6358  0.2379
 5601TIP3    H116767   5.966   2.353   3.010  1.3262  0.1126 -1.6902
 5601TIP3    H216768   5.959   2.439   3.135  3.0342 -2.1764  0.0722
 5602TIP3   OH216769   7.074   5.570   1.516 -0.0808 -0.4090 -0.4523
 5602TIP3    H116770   7.056   5.509   1.444  3.6694  0.1744 -2.0996
 5602TIP3    H216771   7.112   5.516   1.585  1.2523 -0.3077 -1.0741
 5603TIP3   OH216772   5.476   0.686   1.452 -0.4274  0.4311  0.1766
 5603TIP3    H116773   5.382   0.702   1.460 -0.4027 -0.1174  2.1882
 5603TIP3    H216774   5.495   0.622   1.521  1.5056  0.8564  0.0940
 5604TIP3   OH216775   0.953   0.885   2.721 -0.1210 -0.4257  0.0950
 5604TIP3    H116776   0.930   0.843   2.804  2.4560  0.9088  1.5797
 5604TIP3    H216777   0.934   0.978   2.734  1.9237  0.0635 -0.1281
 5605TIP3   OH216778   4.573   2.790   0.888 -0.3022  0.2898  0.0763
 5605TIP3    H116779   4.662   2.795   0.853 -0.5005  2.9366 -0.2431
 5605TIP3    H216780   4.522   2.747   0.819  0.4978 -0.2728 -0.1787
 5606TIP3   OH216781   5.392   6.755   2.235  0.1974 -0.0536  0.2482
 5606TIP3    H116782   5.423   6.821   2.297  1.7451 -0.0727 -0.4472
 5606TIP3    H216783   5.415   6.792   2.149  1.3698 -1.6075 -0.1436
 5607TIP3   OH216784   6.403   5.643   0.021 -0.2258  0.0146 -0.5384
 5607TIP3    H116785   6.345   5.589   0.075  1.7449 -1.1655  0.5115
 5607TIP3    H216786   6.377   5.623  -0.069 -0.6609 -1.4060 -0.1315
 5608TIP3   OH216787   2.344   3.698   0.716 -0.0577 -0.0741 -0.0008
 5608TIP3    H116788   2.274   3.676   0.654  0.5064  1.5507 -1.2934
 5608TIP3    H216789   2.324   3.646   0.794 -2.6928  0.3094 -0.3268
 5609TIP3   OH216790   4.855   0.149   2.673  0.2688  0.6364  0.0787
 5609TIP3    H116791   4.769   0.107   2.677  0.1110  0.6552 -1.8928
 5609TIP3    H216792   4.871   0.182   2.761 -1.1985 -0.4302  0.7780
 5610TIP3   OH216793   4.830   3.594   0.148 -0.1479  0.2454 -0.1552
 5610TIP3    H116794   4.894   3.652   0.107 -1.5440  1.3365 -0.9182
 5610TIP3    H216795   4.835   3.513   0.098  1.2015  0.0057  0.3380
 5611TIP3   OH216796   2.768   6.747   0.424  0.1951 -0.4098  0.4251
 5611TIP3    H116797   2.806   6.682   0.484 -0.7644 -0.9511  0.4674
 5611TIP3    H216798   2.741   6.818   0.482 -1.9873 -1.5123  0.8855
 5612TIP3   OH216799   4.112   4.837   4.895 -0.6261  0.3740  0.4672
 5612TIP3    H116800   4.198   4.875   4.911 -0.5797  0.1346  0.7993
 5612TIP3    H216801   4.101   4.772   4.964 -1.1169  0.4724  0.4857
 5613TIP3   OH216802   5.546   3.979   3.518 -0.1726  0.0518 -0.4177
 5613TIP3    H116803   5.518   4.032   3.592 -1.5536 -1.1407 -0.0389
 5613TIP3    H216804   5.517   4.027   3.441 -0.2826  0.4523 -0.1293
 5614TIP3   OH216805   2.245   6.546   4.306 -0.0052  0.2212 -0.0559
 5614TIP3    H116806   2.324   6.518   4.351 -0.1829  0.3885  0.3616
 5614TIP3    H216807   2.245   6.497   4.224  0.1680 -0.2963  0.2534
 5615TIP3   OH216808   2.801   0.692   0.284  0.5503  0.0954 -0.1707
 5615TIP3    H116809   2.713   0.718   0.311  0.1057  0.3270 -1.7209
 5615TIP3    H216810   2.808   0.722   0.193  1.6400 -1.3319 -0.5974
 5616TIP3   OH216811   2.380  -0.003   3.678  0.1293  0.4406 -0.2992
 5616TIP3    H116812   2.335   0.019   3.759  0.5057  0.0510  0.0174
 5616TIP3    H216813   2.432   0.075   3.657  0.5363  0.3035  0.1842
 5617TIP3   OH216814   0.176   0.404   3.639  0.5132  0.2113 -0.3556
 5617TIP3    H116815   0.220   0.402   3.725 -0.8562  1.2796  0.4096
 5617TIP3    H216816   0.220   0.475   3.592  0.1476  0.7596  0.1156
 5618TIP3   OH216817   6.536   0.665   2.109 -0.1604 -0.3857  0.3973
 5618TIP3    H116818   6.610   0.640   2.053  0.1191  0.8413  0.1939
 5618TIP3    H216819   6.544   0.607   2.186 -0.1880 -1.6519 -0.5157
 5619TIP3   OH216820   5.439   3.400   1.271 -0.1506 -0.9105 -0.0725
 5619TIP3    H116821   5.348   3.370   1.262  0.1996 -2.0004 -0.1314
 5619TIP3    H216822   5.447   3.471   1.207 -1.5068  0.5727  1.3232
 5620TIP3   OH216823   4.335   4.223   2.413 -0.1999 -0.0205 -0.2619
 5620TIP3    H116824   4.357   4.301   2.463 -0.0554 -0.6615  0.6962
 5620TIP3    H216825   4.415   4.203   2.364 -0.5262  0.9448 -1.2524
 5621TIP3   OH216826   3.605   5.591   3.644 -0.0779 -0.5995 -0.0912
 5621TIP3    H116827   3.665   5.516   3.651  0.8786  0.1772  0.2445
 5621TIP3    H216828   3.527   5.555   3.603 -0.0893 -2.0473  1.1013
 5622TIP3   OH216829   6.252   3.751   2.444 -0.2074  0.1640  0.2858
 5622TIP3    H116830   6.305   3.800   2.506 -1.2930  0.1573  1.2569
 5622TIP3    H216831   6.188   3.815   2.412 -0.8670 -0.2959  0.6468
 5623TIP3   OH216832   0.050   3.593   4.479 -0.1524 -0.2835 -0.3412
 5623TIP3    H116833  -0.015   3.544   4.430 -1.8606  0.1087  1.4333
 5623TIP3    H216834   0.127   3.536   4.482 -0.0162 -0.3832 -3.2354
 5624TIP3   OH216835   6.975   1.623   2.230 -0.1015 -0.3847  0.2416
 5624TIP3    H116836   6.971   1.560   2.302  0.7276 -0.3058  0.3715
 5624TIP3    H216837   6.888   1.619   2.190  0.2209 -2.3301 -0.3645
 5625TIP3   OH216838   4.334   2.600   5.808 -0.0111 -0.1956  0.2737
 5625TIP3    H116839   4.256   2.556   5.774  1.3225 -1.3822 -1.4310
 5625TIP3    H216840   4.363   2.655   5.736  0.3619  0.7608  1.1357
 5626TIP3   OH216841   4.916   3.198   3.821  0.2574  0.5508 -0.0145
 5626TIP3    H116842   4.912   3.136   3.894  0.3744  1.5574  0.8712
 5626TIP3    H216843   4.983   3.261   3.847  2.1852 -0.4762 -2.1505
 5627TIP3   OH216844   3.234   1.711   0.628 -1.0479  0.2051 -0.0146
 5627TIP3    H116845   3.289   1.691   0.704 -0.7791 -1.4239 -0.5981
 5627TIP3    H216846   3.283   1.778   0.580  0.6370 -1.3918 -0.6601
 5628TIP3   OH216847   5.753   3.363   1.102 -0.4538 -0.0541 -0.0594
 5628TIP3    H116848   5.709   3.318   1.030  0.8905 -0.3594 -0.7328
 5628TIP3    H216849   5.721   3.321   1.181 -1.2444 -0.3564 -0.5392
 5629TIP3   OH216850   0.817   0.495   1.087 -0.1445  0.6994  0.3227
 5629TIP3    H116851   0.736   0.492   1.036 -0.0023  1.2557  0.0591
 5629TIP3    H216852   0.832   0.404   1.114  0.1439  0.2605 -1.1958
 5630TIP3   OH216853   3.556   1.833   4.086 -0.5830  0.4721  0.4418
 5630TIP3    H116854   3.646   1.821   4.057 -1.0845  1.5978 -1.7879
 5630TIP3    H216855   3.515   1.748   4.073 -0.5666  0.7202 -1.4908
 5631TIP3   OH216856   6.871   6.336   4.215  0.4673  0.2452 -0.2556
 5631TIP3    H116857   6.858   6.398   4.144 -2.6328 -0.3235 -0.3101
 5631TIP3    H216858   6.881   6.390   4.293  1.3148  0.8229 -0.7472
 5632TIP3   OH216859   5.064   3.500   1.523 -0.3934 -0.3195 -0.3458
 5632TIP3    H116860   5.078   3.476   1.431 -0.7910 -0.2021 -0.4375
 5632TIP3    H216861   5.096   3.424   1.572  2.1699  0.5896 -0.4559
 5633TIP3   OH216862   4.376   5.233   1.413  0.1503  0.0619  0.2315
 5633TIP3    H116863   4.439   5.249   1.483 -0.0946  0.0643  0.4568
 5633TIP3    H216864   4.337   5.319   1.395  0.1148  0.0366  0.1865
 5634TIP3   OH216865   3.014   2.252   4.364  0.1797  0.0959 -0.1267
 5634TIP3    H116866   3.076   2.315   4.328 -0.9206  1.5882  0.4629
 5634TIP3    H216867   2.940   2.254   4.303 -0.1432 -0.1022  0.2517
 5635TIP3   OH216868   2.010   6.041   3.481  0.2774 -0.2860 -0.1424
 5635TIP3    H116869   2.043   5.954   3.457  1.2109  0.4471 -1.6336
 5635TIP3    H216870   1.927   6.050   3.434 -1.4180 -1.4970  2.3717
 5636TIP3   OH216871   3.384   6.058   0.069 -0.3568 -0.1662 -0.3704
 5636TIP3    H116872   3.450   6.084   0.134  0.3770 -0.1066 -1.1173
 5636TIP3    H216873   3.432   6.001   0.008 -0.2449  2.0335 -2.4861
 5637TIP3   OH216874   7.236   0.069   2.275 -0.2668  0.2940 -0.0758
 5637TIP3    H116875   7.141   0.068   2.286 -0.3787 -2.2749 -0.5028
 5637TIP3    H216876   7.250   0.036   2.187  1.0344  0.7240 -0.0453
 5638TIP3   OH216877   2.240   1.717   2.760 -0.7389  0.1187 -0.3812
 5638TIP3    H116878   2.243   1.813   2.759  0.2934  0.1557  1.8642
 5638TIP3    H216879   2.194   1.694   2.679 -2.3052  2.5364 -0.2641
 5639TIP3   OH216880   0.367   0.866   2.135  0.1382  0.2909  0.3912
 5639TIP3    H116881   0.319   0.911   2.205  0.2235 -2.0514  2.0894
 5639TIP3    H216882   0.457   0.896   2.144 -0.1393  1.1965  0.2316
 5640TIP3   OH216883   5.440   2.040   5.082  0.0231 -0.1272  0.1292
 5640TIP3    H116884   5.437   2.007   5.171  0.1400 -0.5967 -0.0366
 5640TIP3    H216885   5.422   2.134   5.090  0.1606 -0.1447  0.6552
 5641TIP3   OH216886   5.254   6.273   2.675 -0.7602  0.1899 -0.0110
 5641TIP3    H116887   5.198   6.278   2.598 -0.9297  1.6138  0.1740
 5641TIP3    H216888   5.208   6.216   2.736 -1.7174  0.8450 -0.1040
 5642TIP3   OH216889   3.840   2.370   2.838  0.7370 -0.1993 -0.2391
 5642TIP3    H116890   3.837   2.355   2.744 -2.1096 -2.7277  0.0948
 5642TIP3    H216891   3.921   2.328   2.866  2.2633  1.6772 -1.6363
 5643TIP3   OH216892   1.813   0.708   2.438 -0.0589  0.0510 -0.0225
 5643TIP3    H116893   1.785   0.791   2.477  0.0642 -0.6158  1.5200
 5643TIP3    H216894   1.750   0.693   2.367 -1.4142  0.3919  1.0741
 5644TIP3   OH216895   0.890   6.300   4.432  0.0440 -0.6235  0.3745
 5644TIP3    H116896   0.852   6.258   4.354 -3.2159 -1.9098  2.4501
 5644TIP3    H216897   0.869   6.393   4.420  0.4414 -0.6565 -0.7107
 5645TIP3   OH216898   5.567   5.261   4.727 -0.0525 -0.1465  0.3383
 5645TIP3    H116899   5.619   5.295   4.799  0.4917  1.1322 -0.6118
 5645TIP3    H216900   5.627   5.205   4.678 -0.6814 -1.7898  1.3602
 5646TIP3   OH216901   3.185   6.144   1.513  0.1467  0.1345 -0.0843
 5646TIP3    H116902   3.159   6.082   1.581 -1.0258 -1.0905 -1.5804
 5646TIP3    H216903   3.280   6.146   1.517  0.0848  1.2152  2.5052
 5647TIP3   OH216904   2.788   2.019   3.965  0.3407 -0.1484 -0.0429
 5647TIP3    H116905   2.759   2.053   3.880  0.7705 -1.4828 -0.7418
 5647TIP3    H216906   2.875   2.057   3.977 -0.3016  1.2441  0.5393
 5648TIP3   OH216907   5.946   5.079   2.146 -0.0860  0.3300 -0.5128
 5648TIP3    H116908   6.015   5.145   2.159  0.9622 -0.8560  0.1683
 5648TIP3    H216909   5.880   5.102   2.211 -0.4197  1.5491 -1.2421
 5649TIP3   OH216910   4.479   0.801   1.552 -0.6430  0.3676 -0.8453
 5649TIP3    H116911   4.479   0.878   1.497  0.1633  1.2287  0.3167
 5649TIP3    H216912   4.395   0.758   1.534 -1.8089  2.3496 -0.3795
 5650TIP3   OH216913   3.167   5.325   4.799 -0.2205  0.3169 -0.2337
 5650TIP3    H116914   3.084   5.292   4.833  0.3455 -0.9099  0.0053
 5650TIP3    H216915   3.229   5.315   4.871  0.1715  1.1141 -0.4471
 5651TIP3   OH216916   2.441   1.413   1.434  0.0303 -0.0710  0.2938
 5651TIP3    H116917   2.491   1.485   1.395 -0.6278 -0.6237 -1.7259
 5651TIP3    H216918   2.496   1.380   1.504  3.7693 -2.1713 -3.1987
 5652TIP3   OH216919   4.484   1.152   2.878 -0.4345 -0.3046  0.0206
 5652TIP3    H116920   4.565   1.135   2.926  0.2636  1.9550 -0.2743
 5652TIP3    H216921   4.509   1.211   2.808 -2.4169  0.8837  0.2254
 5653TIP3   OH216922   2.511   6.520   4.666  0.0331  0.4643  0.5481
 5653TIP3    H116923   2.453   6.535   4.741  1.4470  2.3096  1.3781
 5653TIP3    H216924   2.582   6.467   4.701 -0.7423 -1.1955 -0.2880
 5654TIP3   OH216925   2.152   1.002   2.842 -0.3290  0.1357 -0.2119
 5654TIP3    H116926   2.215   1.069   2.869 -0.2754  0.5346 -1.2528
 5654TIP3    H216927   2.151   1.008   2.746 -0.6752 -1.0453 -0.2955
 5655TIP3   OH216928   2.342   5.776   3.647  0.1844 -0.0225 -0.3963
 5655TIP3    H116929   2.345   5.832   3.569 -0.7599  0.0965 -0.3678
 5655TIP3    H216930   2.372   5.833   3.718 -2.0003  0.9119 -0.1439
 5656TIP3   OH216931   6.011   4.535   3.766  0.0121  0.3511  0.6580
 5656TIP3    H116932   5.987   4.496   3.682 -0.6251  0.3432  0.8404
 5656TIP3    H216933   6.100   4.503   3.782 -1.1243 -2.6176  1.7067
 5657TIP3   OH216934   5.309   0.427   5.848  0.2793  0.2414 -0.4394
 5657TIP3    H116935   5.364   0.368   5.899 -0.3512 -0.0276 -0.0709
 5657TIP3    H216936   5.372   0.487   5.807  0.9269 -0.6359 -0.7818
 5658TIP3   OH216937   1.284   0.571   5.697 -0.5540 -0.1745 -0.0088
 5658TIP3    H116938   1.200   0.615   5.710 -0.7842  0.3101 -2.5885
 5658TIP3    H216939   1.343   0.640   5.668 -0.5115 -1.1937 -2.6169
 5659TIP3   OH216940   4.667   1.346   1.454 -0.8175  0.0413  0.4779
 5659TIP3    H116941   4.672   1.314   1.364  0.2367 -0.1513  0.5865
 5659TIP3    H216942   4.687   1.270   1.508  0.3843  0.5421  0.7888
 5660TIP3   OH216943   6.503   5.704   2.938 -0.3204  0.2828 -0.0133
 5660TIP3    H116944   6.451   5.727   3.015  0.2907  0.2011  0.4377
 5660TIP3    H216945   6.504   5.783   2.885 -0.0479  0.6096  0.4721
 5661TIP3   OH216946   0.085   4.069   0.733 -0.0478  0.5520 -0.1858
 5661TIP3    H116947  -0.008   4.088   0.721 -0.8242 -0.8426  2.6152
 5661TIP3    H216948   0.115   4.134   0.796  0.3857 -0.0726  0.2671
 5662TIP3   OH216949   0.358   0.951   5.837 -0.1743 -0.3835  0.8656
 5662TIP3    H116950   0.361   0.870   5.785 -1.5165  0.4063 -0.5352
 5662TIP3    H216951   0.336   0.922   5.925 -0.9721 -1.5282  0.3143
 5663TIP3   OH216952   6.910   3.519   3.752  0.4374  0.0888  0.3217
 5663TIP3    H116953   6.917   3.522   3.657  1.6063  1.6821  0.4111
 5663TIP3    H216954   6.993   3.556   3.783  0.1366 -0.5382  1.9667
 5664TIP3   OH216955   5.243   1.033   4.668  0.5993 -0.2566 -0.0664
 5664TIP3    H116956   5.262   1.007   4.758 -0.1945 -0.3210  0.0910
 5664TIP3    H216957   5.152   1.006   4.654  1.3322 -2.0940 -1.5621
 5665TIP3   OH216958   1.515   5.071   1.236 -0.0501 -0.1468 -0.0534
 5665TIP3    H116959   1.545   4.990   1.195  0.3024 -0.2887  0.4671
 5665TIP3    H216960   1.494   5.129   1.163  0.1393 -0.5464 -0.4300
 5666TIP3   OH216961   1.543   3.048   5.061  0.3903  1.1946  0.1318
 5666TIP3    H116962   1.590   3.067   5.142  0.5909 -2.2202  0.9527
 5666TIP3    H216963   1.453   3.032   5.089  0.2395  0.9861 -0.4604
 5667TIP3   OH216964   5.991   4.008   1.856 -0.4412 -0.7615 -0.7611
 5667TIP3    H116965   6.066   3.968   1.900 -0.7080 -1.5322 -0.9768
 5667TIP3    H216966   5.915   3.979   1.907 -0.5690  0.3455 -0.3067
 5668TIP3   OH216967   2.178   1.031   4.202  0.3017 -0.1777 -0.2963
 5668TIP3    H116968   2.199   1.121   4.223  2.3130 -0.2827 -1.5503
 5668TIP3    H216969   2.196   0.982   4.282  0.5385  0.3648 -0.0182
 5669TIP3   OH216970   5.561   0.565   1.692  0.4235  0.3618  0.6316
 5669TIP3    H116971   5.583   0.628   1.761 -0.2960  0.1783  1.0400
 5669TIP3    H216972   5.562   0.480   1.737 -0.5518  0.2939  0.5328
 5670TIP3   OH216973   0.607   5.971   3.881 -0.3542 -0.2394  0.0906
 5670TIP3    H116974   0.681   5.942   3.933 -1.0700  0.8339  1.7780
 5670TIP3    H216975   0.616   6.066   3.877 -1.6235 -0.0901  0.3498
 5671TIP3   OH216976   5.420   2.165   3.113  0.5968  0.1107  0.2189
 5671TIP3    H116977   5.503   2.192   3.075  0.6271 -1.6317 -1.0255
 5671TIP3    H216978   5.360   2.237   3.092  1.3477  0.5637 -0.4323
 5672TIP3   OH216979   3.320   5.207   2.966  0.6672 -0.3523 -0.0856
 5672TIP3    H116980   3.258   5.236   3.033  1.3945  0.0577  0.4380
 5672TIP3    H216981   3.317   5.112   2.969 -0.5104 -0.3535 -0.6318
 5673TIP3   OH216982   2.964   5.219   1.460 -0.1912  0.1009  0.2601
 5673TIP3    H116983   3.017   5.149   1.498  1.0943 -0.0876 -1.7662
 5673TIP3    H216984   2.961   5.286   1.529  0.2735 -1.0659  1.4650
 5674TIP3   OH216985   6.573   3.073   1.949 -0.0569  0.7755 -0.0533
 5674TIP3    H116986   6.627   3.152   1.946 -2.6441  2.7053 -0.2780
 5674TIP3    H216987   6.528   3.071   1.865 -0.7769 -0.3826  0.3261
 5675TIP3   OH216988   3.837   6.288   1.221 -0.6750  0.1475  0.2601
 5675TIP3    H116989   3.815   6.363   1.275 -3.1194  0.3317 -0.8635
 5675TIP3    H216990   3.762   6.229   1.228 -0.4705 -0.4554 -1.7612
 5676TIP3   OH216991   3.247   5.200   1.817  0.1141 -0.2562  0.3107
 5676TIP3    H116992   3.159   5.166   1.834 -0.2191  0.3050 -0.2588
 5676TIP3    H216993   3.290   5.130   1.770 -0.1232 -0.4241  0.3384
 5677TIP3   OH216994   5.106   4.823   3.515 -0.1472  0.2358 -0.2326
 5677TIP3    H116995   5.163   4.749   3.495 -1.2335 -0.2325 -1.8468
 5677TIP3    H216996   5.124   4.887   3.446 -0.2543  0.8801  0.3186
 5678TIP3   OH216997   0.650   3.667   1.346  0.5553  0.2233 -0.4204
 5678TIP3    H116998   0.721   3.604   1.330 -1.3649 -1.4648 -3.0415
 5678TIP3    H216999   0.620   3.692   1.259 -0.3764  2.9674  0.6015
 5679TIP3   OH217000   6.529   4.156   1.176  0.2043 -0.6109 -0.2686
 5679TIP3    H117001   6.573   4.087   1.226  0.5312 -0.2283 -0.0236
 5679TIP3    H217002   6.587   4.173   1.103 -0.4210 -1.3869 -0.9644
 5680TIP3   OH217003   1.020   5.568   2.013  0.4959  0.1019  0.2265
 5680TIP3    H117004   0.954   5.605   1.955  0.4789 -0.0307  0.1617
 5680TIP3    H217005   1.047   5.487   1.970  0.2898 -0.1330  0.5352
 5681TIP3   OH217006   0.668   6.298   2.314  0.2521  0.3453  0.1407
 5681TIP3    H117007   0.751   6.265   2.348  0.3245 -1.0112 -1.1871
 5681TIP3    H217008   0.603   6.272   2.379  0.6814  0.0167  0.4410
 5682TIP3   OH217009   0.818   6.721   0.074 -0.1134 -0.1188  0.0336
 5682TIP3    H117010   0.835   6.815   0.085 -3.1234  0.6999 -1.1518
 5682TIP3    H217011   0.820   6.686   0.163 -0.2334  1.3480  0.6449
 5683TIP3   OH217012   7.135   5.642   4.028 -0.2072  0.4385 -0.1179
 5683TIP3    H117013   7.062   5.597   4.070 -1.6137  0.5488 -2.2853
 5683TIP3    H217014   7.148   5.721   4.081 -0.0392 -0.7325  1.6630
 5684TIP3   OH217015   3.351   1.137   1.509 -0.9296  0.0996 -0.3368
 5684TIP3    H117016   3.330   1.090   1.590  1.2574  0.6407  0.6209
 5684TIP3    H217017   3.436   1.103   1.483  0.0877  2.4513 -0.3665
 5685TIP3   OH217018   6.234   5.115   1.506 -0.4755  0.2937  0.0199
 5685TIP3    H117019   6.186   5.102   1.425 -1.5202  0.6682  0.5544
 5685TIP3    H217020   6.170   5.155   1.566 -0.2962 -1.6849  1.6290
 5686TIP3   OH217021   6.546   0.574   3.088 -0.0324 -0.4276  0.2964
 5686TIP3    H117022   6.542   0.489   3.131  1.2435  0.0558  1.4551
 5686TIP3    H217023   6.619   0.566   3.027 -0.0932 -0.2522  0.2014
 5687TIP3   OH217024   3.171   1.331   5.320  0.1534  0.1174 -0.3693
 5687TIP3    H117025   3.122   1.405   5.358 -1.8288 -0.9872 -0.6456
 5687TIP3    H217026   3.191   1.359   5.231 -0.6698  0.2972 -0.5073
 5688TIP3   OH217027   3.604   3.123   1.908  0.2079 -0.5971  0.2624
 5688TIP3    H117028   3.583   3.107   1.817  0.3868  1.4201 -0.1952
 5688TIP3    H217029   3.675   3.188   1.905 -0.5202  0.3404  1.8146
 5689TIP3   OH217030   1.512   1.031   2.204 -0.2030  1.0154 -0.3179
 5689TIP3    H117031   1.569   0.973   2.253  1.3975  3.3391  0.7171
 5689TIP3    H217032   1.424   1.009   2.234  0.3978 -0.4111  0.4884
 5690TIP3   OH217033   0.914   1.595   0.505 -0.2517  0.0057  0.2637
 5690TIP3    H117034   0.972   1.570   0.577 -0.6207  0.7963  0.8490
 5690TIP3    H217035   0.860   1.518   0.490  0.5337 -0.5279  0.1229
 5691TIP3   OH217036   4.194   2.138   1.249 -0.5765 -0.1378 -0.7050
 5691TIP3    H117037   4.209   2.066   1.188 -0.7537  0.6370 -1.6878
 5691TIP3    H217038   4.123   2.107   1.306  0.4542 -1.3572 -0.0592
 5692TIP3   OH217039   0.365   4.632   1.532 -0.0061 -0.3662 -0.1834
 5692TIP3    H117040   0.428   4.701   1.548 -0.3109 -0.1586  0.1235
 5692TIP3    H217041   0.416   4.562   1.489 -0.1302  0.9462 -2.6786
 5693TIP3   OH217042   1.195   1.517   1.375  0.0457 -0.4768 -0.1938
 5693TIP3    H117043   1.206   1.557   1.289  1.1217  0.7043  0.4649
 5693TIP3    H217044   1.100   1.515   1.388 -0.0835  1.1956 -0.5796
 5694TIP3   OH217045   1.467   1.891   0.858 -0.1659 -0.0110  0.5016
 5694TIP3    H117046   1.403   1.894   0.786 -1.0201 -0.4951  1.2309
 5694TIP3    H217047   1.416   1.909   0.936  0.4722 -1.0906  1.1805
 5695TIP3   OH217048   5.117   5.381   5.489 -0.3732 -0.0015  0.2626
 5695TIP3    H117049   5.110   5.288   5.470  0.0736  0.0090  0.0299
 5695TIP3    H217050   5.085   5.424   5.409 -1.2682  0.0531  0.6355
 5696TIP3   OH217051   5.654   5.727   4.904  0.4735 -0.0392 -0.1432
 5696TIP3    H117052   5.724   5.769   4.853  1.3415 -0.8720  0.3138
 5696TIP3    H217053   5.692   5.716   4.991  0.1877 -1.5334 -0.1905
 5697TIP3   OH217054   0.073   2.126   1.485 -0.2036  0.2417 -0.2823
 5697TIP3    H117055   0.056   2.140   1.391 -0.0826  2.8846  0.0030
 5697TIP3    H217056   0.134   2.053   1.487  0.8193  0.9418 -2.3825
 5698TIP3   OH217057   2.263   5.199   0.983 -0.5669  0.1120  0.1418
 5698TIP3    H117058   2.247   5.229   0.893  1.0070  0.0021 -0.2114
 5698TIP3    H217059   2.183   5.221   1.031 -1.1842  0.7544 -1.1406
 5699TIP3   OH217060   5.879   3.965   1.407 -0.0461 -0.1446  0.2752
 5699TIP3    H117061   5.954   4.017   1.379 -0.8960  0.8644 -0.1762
 5699TIP3    H217062   5.915   3.878   1.424  1.3439  0.4866  0.7109
 5700TIP3   OH217063   1.137   1.656   2.791 -0.0179 -0.1275  0.3514
 5700TIP3    H117064   1.224   1.643   2.752 -0.9543  0.5409 -2.1896
 5700TIP3    H217065   1.135   1.750   2.811 -0.2673 -0.0681  0.0546
 5701TIP3   OH217066   0.270   1.857   2.143 -0.3001  0.0735 -0.8634
 5701TIP3    H117067   0.315   1.790   2.091 -1.5632  0.2132 -2.1813
 5701TIP3    H217068   0.181   1.859   2.109 -0.4820  1.9466 -0.3833
 5702TIP3   OH217069   0.236   0.964   1.195  0.0812  0.2472 -0.4077
 5702TIP3    H117070   0.174   0.982   1.266 -0.1158 -1.0642 -0.2186
 5702TIP3    H217071   0.262   1.050   1.163 -0.1097  0.8517  1.0084
 5703TIP3   OH217072   3.199   4.026   3.114  0.5624 -0.0116  0.4211
 5703TIP3    H117073   3.293   4.044   3.106  0.6025 -0.4204 -0.1274
 5703TIP3    H217074   3.183   4.023   3.208  1.0460  0.3253  0.5204
 5704TIP3   OH217075   5.727   2.834   3.282 -0.3042 -0.4329  0.0279
 5704TIP3    H117076   5.759   2.826   3.372  0.9324 -0.1158 -0.3519
 5704TIP3    H217077   5.790   2.893   3.240  0.6568 -2.5302 -1.6943
 5705TIP3   OH217078   4.106   6.007   3.474  0.2385  0.4843  0.2858
 5705TIP3    H117079   4.127   5.964   3.557  0.6551  2.3699  1.2087
 5705TIP3    H217080   4.072   5.937   3.418  0.8751 -1.0080  1.7094
 5706TIP3   OH217081   3.301   2.970   1.318 -0.3238  0.7984  0.6291
 5706TIP3    H117082   3.390   3.005   1.330 -0.4452  1.8622 -1.1309
 5706TIP3    H217083   3.314   2.878   1.294  0.2355  0.6513  1.4634
 5707TIP3   OH217084   5.292   6.532   1.203  0.0162 -0.0052 -0.2711
 5707TIP3    H117085   5.327   6.471   1.137  1.0210  0.0745  0.1633
 5707TIP3    H217086   5.275   6.477   1.280  1.0554  0.2611  0.1689
 5708TIP3   OH217087   3.934   1.698   4.560 -0.1169  0.0621 -0.2034
 5708TIP3    H117088   3.936   1.722   4.467 -1.1848  0.7095 -0.0699
 5708TIP3    H217089   3.848   1.727   4.591  0.8141  1.2939  1.3727
 5709TIP3   OH217090   2.681   6.338   5.458  0.0076  0.4731  0.4599
 5709TIP3    H117091   2.625   6.332   5.536 -0.1786 -0.1895  0.2777
 5709TIP3    H217092   2.746   6.406   5.481 -1.8343  2.4696  0.0499
 5710TIP3   OH217093   1.575   3.954   5.461  0.9986  0.4096 -0.0709
 5710TIP3    H117094   1.528   3.898   5.400  0.5620  1.7008 -0.9673
 5710TIP3    H217095   1.599   4.031   5.409  1.9369  0.8765  1.0105
 5711TIP3   OH217096   1.825   3.639   3.403 -0.0558  0.0031  0.4645
 5711TIP3    H117097   1.829   3.706   3.334  1.2185 -0.6475 -0.1271
 5711TIP3    H217098   1.736   3.605   3.397 -0.2174  0.5294 -0.3270
 5712TIP3   OH217099   2.769   5.872   4.636 -0.0071 -0.4896  0.3767
 5712TIP3    H117100   2.741   5.893   4.547 -0.1382 -0.5223  0.4095
 5712TIP3    H217101   2.851   5.919   4.647 -0.0750 -0.3506  0.2958
 5713TIP3   OH217102   4.820   6.481   0.123  0.3066 -0.1977  0.0243
 5713TIP3    H117103   4.873   6.454   0.198 -0.3912  0.8082  0.9204
 5713TIP3    H217104   4.781   6.564   0.151 -0.9391 -0.4125 -0.9898
 5714TIP3   OH217105   1.827   4.561   5.108 -0.5433 -0.0217 -0.3191
 5714TIP3    H117106   1.843   4.471   5.079  0.0364 -0.3638  0.9904
 5714TIP3    H217107   1.801   4.608   5.029 -1.0588 -1.3882 -0.9846
 5715TIP3   OH217108   3.007   3.491   5.182  0.0406 -0.2799 -0.4409
 5715TIP3    H117109   2.962   3.416   5.220 -1.0920 -0.0321 -1.2507
 5715TIP3    H217110   3.093   3.491   5.224  0.3218 -2.4199 -0.9027
 5716TIP3   OH217111   1.539   5.621   5.704  0.4236 -0.2127 -0.3673
 5716TIP3    H117112   1.565   5.575   5.624 -1.4581  0.3755 -1.3946
 5716TIP3    H217113   1.515   5.709   5.674 -0.8005 -0.1439  0.7303
 5717TIP3   OH217114   5.977   3.791   0.700 -0.1885  0.4410 -0.4294
 5717TIP3    H117115   5.883   3.794   0.717  0.0112  0.5731  0.7627
 5717TIP3    H217116   6.003   3.883   0.694  0.2047  0.5076  1.4843
 5718TIP3   OH217117   6.910   4.101   1.185  0.1762  0.0795 -0.4797
 5718TIP3    H117118   6.994   4.058   1.171  1.1504  1.4490  0.8129
 5718TIP3    H217119   6.855   4.034   1.226  1.0005 -0.5151 -0.3320
 5719TIP3   OH217120   1.308   3.274   5.761  0.0758 -0.7437  0.4164
 5719TIP3    H117121   1.330   3.220   5.837 -0.0045 -1.1157  0.1805
 5719TIP3    H217122   1.254   3.217   5.706 -0.0075 -0.4224  0.1578
 5720TIP3   OH217123   2.825   0.542   4.752  0.3957 -0.2582  0.4005
 5720TIP3    H117124   2.842   0.520   4.844 -2.2432 -0.1369  0.9852
 5720TIP3    H217125   2.744   0.593   4.754 -0.1361 -0.8795 -2.0692
 5721TIP3   OH217126   3.755   3.773   1.333  0.2757  0.5165 -0.0414
 5721TIP3    H117127   3.844   3.746   1.355 -0.6258 -1.5748  1.4016
 5721TIP3    H217128   3.699   3.721   1.392 -1.9482  0.8061 -1.7656
 5722TIP3   OH217129   1.033   0.249   3.927  0.6292 -0.0446  0.0849
 5722TIP3    H117130   0.944   0.214   3.930  1.1659 -1.4611  1.6154
 5722TIP3    H217131   1.031   0.325   3.985 -0.0293  1.2184 -1.5217
 5723TIP3   OH217132   4.487   0.151   2.804  0.4116 -0.6459 -0.1219
 5723TIP3    H117133   4.403   0.173   2.844  0.1395 -0.9760 -0.5017
 5723TIP3    H217134   4.534   0.103   2.871 -0.2968 -1.7582 -0.3991
 5724TIP3   OH217135   5.070   0.323   0.759 -0.0567  0.5066 -0.4110
 5724TIP3    H117136   5.025   0.280   0.832  1.6482 -2.1033 -0.8078
 5724TIP3    H217137   5.105   0.404   0.797  0.1305 -0.4106  1.4634
 5725TIP3   OH217138   1.582   5.963   3.080 -0.0567 -0.0683  0.0125
 5725TIP3    H117139   1.664   5.997   3.044 -1.3215  1.8382 -1.2322
 5725TIP3    H217140   1.609   5.889   3.134  2.5768  1.0008  0.3256
 5726TIP3   OH217141   3.006   4.373   0.708  0.6645 -0.2732 -0.3309
 5726TIP3    H117142   2.929   4.319   0.693 -0.1977  0.8672 -0.1796
 5726TIP3    H217143   3.041   4.342   0.792 -1.0854  0.7747  0.8769
 5727TIP3   OH217144   2.238   3.938   2.422  0.0683  0.1590  0.2993
 5727TIP3    H117145   2.201   3.908   2.505 -1.0391 -0.2072 -0.3001
 5727TIP3    H217146   2.248   4.032   2.433  3.0370 -0.2459  1.9973
 5728TIP3   OH217147   7.126   0.525   1.782 -0.2220  0.2285 -0.0021
 5728TIP3    H117148   7.125   0.465   1.856 -0.0964 -1.4052 -1.2622
 5728TIP3    H217149   7.073   0.482   1.715  0.0460  1.4331 -1.0423
 5729TIP3   OH217150   1.720   3.396   4.711 -0.3213  0.3094  0.3799
 5729TIP3    H117151   1.717   3.304   4.685 -2.0571 -0.5653  3.2321
 5729TIP3    H217152   1.683   3.443   4.637 -1.8304 -1.5871 -0.1419
 5730TIP3   OH217153   3.647   6.004   5.525  0.6335 -0.1711  0.2509
 5730TIP3    H117154   3.629   5.913   5.501 -1.2857  0.7377 -2.1271
 5730TIP3    H217155   3.576   6.029   5.583  0.3822  0.1727 -0.1911
 5731TIP3   OH217156   4.894   6.046   4.139 -0.4155 -0.4487 -0.2774
 5731TIP3    H117157   4.987   6.024   4.141 -0.7143 -1.7981 -0.0155
 5731TIP3    H217158   4.866   6.040   4.231 -0.2964  2.2623  0.0178
 5732TIP3   OH217159   5.337   5.696   0.777  0.0991  0.1787 -0.0858
 5732TIP3    H117160   5.374   5.672   0.692  1.9734  0.8675  0.4717
 5732TIP3    H217161   5.302   5.784   0.765 -2.8892 -1.0179 -1.0074
 5733TIP3   OH217162   6.987   1.377   2.414 -0.2809 -0.2370 -0.0692
 5733TIP3    H117163   7.005   1.288   2.445 -1.5573 -0.7685 -0.7883
 5733TIP3    H217164   6.919   1.409   2.473  1.9075  1.2752  1.8169
 5734TIP3   OH217165   2.639   5.405   1.386  0.2006 -0.5234  0.3879
 5734TIP3    H117166   2.629   5.443   1.298  0.4114 -0.6350  0.3155
 5734TIP3    H217167   2.702   5.463   1.429  1.1574 -1.2642  0.0002
 5735TIP3   OH217168   3.934   2.246   1.957 -1.2865  0.5212 -0.0451
 5735TIP3    H117169   3.876   2.313   1.921 -1.2418 -0.0128 -1.1449
 5735TIP3    H217170   4.021   2.270   1.924 -1.0686  0.6154  0.5816
 5736TIP3   OH217171   5.892   5.367   2.779 -0.3993 -0.0627 -0.3065
 5736TIP3    H117172   5.878   5.428   2.852  0.2758 -1.1225  0.7494
 5736TIP3    H217173   5.819   5.305   2.785 -0.2875 -0.2090 -0.4629
 5737TIP3   OH217174   2.259   0.894   2.326 -0.6231  0.7975  0.1743
 5737TIP3    H117175   2.338   0.947   2.318 -1.2590  1.6930 -0.5557
 5737TIP3    H217176   2.191   0.948   2.284 -1.7287  0.3099  1.2859
 5738TIP3   OH217177   6.191   0.593   2.735 -0.0591  0.3776  0.6443
 5738TIP3    H117178   6.236   0.508   2.744  0.0116  0.5682  2.4342
 5738TIP3    H217179   6.243   0.653   2.788 -1.1154  1.1487  0.8270
 5739TIP3   OH217180   4.075   1.099   2.603  0.0392 -0.2067 -0.2161
 5739TIP3    H117181   4.001   1.106   2.542  0.1363 -2.9147 -0.7730
 5739TIP3    H217182   4.066   1.175   2.660 -1.0504  1.5278 -2.5192
 5740TIP3   OH217183   5.437   6.722   0.609  0.3784 -0.0268  0.1025
 5740TIP3    H117184   5.346   6.753   0.602 -0.3395 -2.0591 -0.3414
 5740TIP3    H217185   5.474   6.735   0.522 -0.0822 -0.8388 -0.2261
 5741TIP3   OH217186   3.122   5.131   0.129  0.1211 -0.5267  0.1490
 5741TIP3    H117187   3.033   5.099   0.115 -0.1757  0.5307 -0.4295
 5741TIP3    H217188   3.117   5.184   0.209  0.8820 -2.8749  1.8735
 5742TIP3   OH217189   0.915   3.512   4.881  0.4404  0.2994 -0.2853
 5742TIP3    H117190   0.898   3.603   4.858  1.2932  0.2318 -1.2093
 5742TIP3    H217191   0.981   3.483   4.819  0.1853 -0.9555  0.0013
 5743TIP3   OH217192   2.266   5.468   2.967 -0.0369  0.6361 -0.3271
 5743TIP3    H117193   2.174   5.495   2.958 -0.2162  0.0585 -0.2286
 5743TIP3    H217194   2.313   5.551   2.980 -0.1918  1.2068 -2.8703
 5744TIP3   OH217195   5.584   4.315   2.051  0.1149 -0.0696  0.6093
 5744TIP3    H117196   5.525   4.301   2.125 -0.0403  0.8127  0.6575
 5744TIP3    H217197   5.581   4.409   2.035 -0.4490 -0.3391 -1.0358
 5745TIP3   OH217198   2.902   0.489   4.999 -0.0508  0.3649  0.3902
 5745TIP3    H117199   2.949   0.409   5.023 -1.6419 -0.4660  0.9532
 5745TIP3    H217200   2.948   0.558   5.045  0.5555 -0.4268  1.0088
 5746TIP3   OH217201   3.024   4.478   3.484 -0.1789  0.1462  0.1345
 5746TIP3    H117202   3.014   4.496   3.391  0.5296  3.7825  0.5928
 5746TIP3    H217203   2.934   4.469   3.517 -0.5023  0.5172 -0.6413
 5747TIP3   OH217204   1.737   5.816   2.765 -0.0560  0.9171 -0.2389
 5747TIP3    H117205   1.667   5.805   2.701 -1.0306  0.8120  0.8150
 5747TIP3    H217206   1.815   5.833   2.713 -0.1003 -2.4984 -1.6600
 5748TIP3   OH217207   6.484   1.334   1.489 -0.3654 -0.0369  0.3359
 5748TIP3    H117208   6.570   1.312   1.526 -0.2909 -0.6451 -0.1700
 5748TIP3    H217209   6.478   1.280   1.410 -0.1675  1.7838 -0.9963
 5749TIP3   OH217210   0.135   1.162   3.680 -0.4952 -0.8805 -0.7700
 5749TIP3    H117211   0.168   1.084   3.635 -0.3786 -0.3075 -1.6951
 5749TIP3    H217212   0.120   1.132   3.770  0.8229 -1.6296 -0.7635
 5750TIP3   OH217213   0.898   5.022   1.247 -0.0848  0.2555 -0.2599
 5750TIP3    H117214   0.853   5.089   1.298 -1.4614 -1.4664  0.9058
 5750TIP3    H217215   0.840   5.004   1.173  0.3920  0.5087 -0.7009
 5751TIP3   OH217216   5.649   3.206   4.864 -0.2436  0.0502 -0.4276
 5751TIP3    H117217   5.610   3.294   4.869 -0.3716 -0.0525  0.6371
 5751TIP3    H217218   5.718   3.214   4.798 -1.6862  0.3777 -1.9626
 5752TIP3   OH217219   5.780   1.659   0.137 -0.2753  0.1435  0.0436
 5752TIP3    H117220   5.714   1.634   0.201  0.1134 -0.7910  0.0946
 5752TIP3    H217221   5.749   1.624   0.054 -0.6849  1.1928 -0.2646
 5753TIP3   OH217222   3.086   4.093   0.656 -0.2319  0.2008 -0.0457
 5753TIP3    H117223   3.007   4.040   0.659 -1.6904  2.2672  1.4926
 5753TIP3    H217224   3.148   4.048   0.713 -0.8788 -0.6151  0.0300
 5754TIP3   OH217225   0.410   4.595   0.150 -0.4542  0.3514 -0.3111
 5754TIP3    H117226   0.503   4.589   0.172 -0.4982  0.2147 -0.1620
 5754TIP3    H217227   0.409   4.603   0.054 -0.2824  0.5189 -0.3004
 5755TIP3   OH217228   6.213   1.433   0.738  0.5323 -0.0648  0.3844
 5755TIP3    H117229   6.241   1.462   0.652  0.2700 -0.4990  0.1458
 5755TIP3    H217230   6.269   1.481   0.799  0.3964  0.6009 -0.0060
 5756TIP3   OH217231   6.243   4.482   1.131 -0.1838 -0.3392  0.1174
 5756TIP3    H117232   6.186   4.530   1.071 -0.1119 -0.7000 -0.2444
 5756TIP3    H217233   6.223   4.518   1.218  1.5345  2.0385 -0.3807
 5757TIP3   OH217234   4.943   0.713   5.650  0.0564  0.4435 -0.1077
 5757TIP3    H117235   4.879   0.769   5.694 -1.0016 -0.2105 -0.7632
 5757TIP3    H217236   5.015   0.772   5.627 -1.1121  1.5992 -0.9607
 5758TIP3   OH217237   2.111   4.291   1.826 -0.8040  0.3396  0.5948
 5758TIP3    H117238   2.184   4.237   1.857 -0.7888 -0.6934 -1.1204
 5758TIP3    H217239   2.068   4.320   1.906  1.2942  0.7554  1.6641
 5759TIP3   OH217240   2.501   4.339   0.600 -0.6625  0.6507  0.0424
 5759TIP3    H117241   2.473   4.413   0.545 -0.1136  0.9227  0.1181
 5759TIP3    H217242   2.500   4.374   0.689  0.3628  0.8106 -0.0012
 5760TIP3   OH217243   5.527   2.393   1.863  0.0452  0.1208  0.3696
 5760TIP3    H117244   5.506   2.419   1.774  1.2632  0.3692  0.1337
 5760TIP3    H217245   5.539   2.475   1.910  1.2872  0.0204  0.2732
 5761TIP3   OH217246   3.114   0.712   2.767  0.1125 -0.2193 -0.3436
 5761TIP3    H117247   3.169   0.791   2.770 -0.9386  0.5101  0.9671
 5761TIP3    H217248   3.160   0.653   2.708  3.2344 -0.3316  1.9260
 5762TIP3   OH217249   3.645   4.584   0.028  0.4423  0.1356 -0.0272
 5762TIP3    H117250   3.705   4.652  -0.004  1.3117 -1.0904 -1.1158
 5762TIP3    H217251   3.558   4.619   0.012  0.8741  1.1186 -0.2874
 5763TIP3   OH217252   0.583   5.039   3.436 -0.2273  0.0927  0.7517
 5763TIP3    H117253   0.673   5.070   3.440 -0.1466  0.0816 -0.6273
 5763TIP3    H217254   0.570   4.992   3.519  0.4949  1.4696  1.6915
 5764TIP3   OH217255   7.137   4.255   2.705  0.3997 -0.0861  0.1232
 5764TIP3    H117256   7.229   4.278   2.701 -0.1025  1.9775 -0.7560
 5764TIP3    H217257   7.131   4.193   2.779  2.2681  0.7666  1.0527
 5765TIP3   OH217258   2.918   1.501   2.949 -0.1251  0.1298 -0.6156
 5765TIP3    H117259   2.912   1.473   3.040 -1.9956 -2.2546 -1.3526
 5765TIP3    H217260   2.993   1.560   2.946  1.7025 -1.8488  1.9435
 5766TIP3   OH217261   1.869   5.397   4.167  1.1984  0.0118 -0.4460
 5766TIP3    H117262   1.888   5.446   4.247  2.7348  0.2465 -0.9313
 5766TIP3    H217263   1.882   5.305   4.192  1.3074  0.0558 -0.3417
 5767TIP3   OH217264   3.254   4.499   4.531  1.0519  0.0361 -0.4479
 5767TIP3    H117265   3.295   4.530   4.611  1.2249  0.8944 -0.8595
 5767TIP3    H217266   3.321   4.509   4.463  0.3033  1.1719 -1.0663
 5768TIP3   OH217267   4.791   6.256   2.524 -0.7431  0.5796 -0.0140
 5768TIP3    H117268   4.804   6.289   2.613  1.2543 -1.1553  0.4233
 5768TIP3    H217269   4.818   6.328   2.467  0.6381  0.7814  0.8526
 5769TIP3   OH217270   2.244   1.674   1.968  0.5289  0.4995  0.6028
 5769TIP3    H117271   2.260   1.656   1.875  3.4543  0.9898  0.9182
 5769TIP3    H217272   2.166   1.729   1.969  0.3074  0.2982 -1.5387
 5770TIP3   OH217273   5.542   2.103   0.946 -0.8559  0.5745 -0.3326
 5770TIP3    H117274   5.632   2.081   0.922 -0.4744 -0.0596  1.4784
 5770TIP3    H217275   5.548   2.187   0.991 -0.9907 -0.0014  0.7856
 5771TIP3   OH217276   3.156   4.674   5.148  0.1019  0.0433 -0.5373
 5771TIP3    H117277   3.228   4.614   5.167  0.3315  0.8720  1.4076
 5771TIP3    H217278   3.109   4.683   5.231 -1.4292  0.6112 -1.4241
 5772TIP3   OH217279   4.792   5.696   0.611  0.8897  0.0250 -0.1970
 5772TIP3    H117280   4.751   5.654   0.687  0.1889 -0.1073 -0.6384
 5772TIP3    H217281   4.885   5.675   0.619  1.3239  2.2902  2.1216
 5773TIP3   OH217282   0.078   1.064   3.940 -0.9946 -0.5658  0.3419
 5773TIP3    H117283   0.049   0.973   3.931  1.5166 -1.5487  1.1897
 5773TIP3    H217284   0.045   1.091   4.025 -1.3662 -0.8401  0.2901
 5774TIP3   OH217285   6.683   1.995   1.014  0.2260  0.2506  0.0247
 5774TIP3    H117286   6.647   1.937   0.947  2.3342  0.7906 -1.6861
 5774TIP3    H217287   6.651   2.082   0.990  0.7227  0.4036 -0.0949
 5775TIP3   OH217288   7.242   5.366   3.796  0.1009  0.0618 -0.3627
 5775TIP3    H117289   7.165   5.408   3.758  0.9326  1.6345 -0.3715
 5775TIP3    H217290   7.206   5.296   3.851 -1.4193  1.4869  0.5340
 5776TIP3   OH217291   2.834   4.357   1.164 -0.1137  0.3196 -0.5080
 5776TIP3    H117292   2.850   4.445   1.196  1.5750  0.0063 -0.3862
 5776TIP3    H217293   2.772   4.319   1.226  0.2004  0.9703  0.2150
 5777TIP3   OH217294   2.627   4.756   5.892 -0.0781  0.0865  0.2035
 5777TIP3    H117295   2.549   4.806   5.917 -0.2931 -0.5331  0.8137
 5777TIP3    H217296   2.604   4.714   5.809 -0.3648 -0.0227  0.3374
 5778TIP3   OH217297   5.898   3.640   4.454  0.7103 -0.2838 -0.5186
 5778TIP3    H117298   5.885   3.709   4.519  2.5688  0.7325 -1.1327
 5778TIP3    H217299   5.886   3.559   4.502  1.0989  0.4469  0.8778
 5779TIP3   OH217300   0.910   3.137   2.929 -0.1268 -0.2799 -0.0117
 5779TIP3    H117301   0.861   3.061   2.959 -1.1992  0.3943 -0.0047
 5779TIP3    H217302   0.874   3.156   2.842 -0.2231  0.4984  0.1876
 5780TIP3   OH217303   5.158   4.479   0.471 -0.1014  0.0006 -0.2894
 5780TIP3    H117304   5.105   4.445   0.544  1.3019 -0.9367  0.3238
 5780TIP3    H217305   5.226   4.531   0.513  1.6368 -1.7701 -0.7672
 5781TIP3   OH217306   1.839   3.741   1.007 -0.4232 -0.1414 -0.3138
 5781TIP3    H117307   1.889   3.818   0.979 -1.0816  0.2564 -0.4209
 5781TIP3    H217308   1.880   3.715   1.089  1.5170 -1.3075 -1.5664
 5782TIP3   OH217309   0.689   1.742   4.036 -0.3213  0.6860 -0.4240
 5782TIP3    H117310   0.669   1.835   4.047  0.3047  0.9083 -1.0511
 5782TIP3    H217311   0.778   1.732   4.071 -0.7040  0.1383  0.4360
 5783TIP3   OH217312   0.734   0.582   3.973 -0.2961 -0.5472 -0.3078
 5783TIP3    H117313   0.763   0.496   4.003 -0.0905 -1.3476 -2.5829
 5783TIP3    H217314   0.811   0.620   3.931 -0.3350  0.8708  0.8273
 5784TIP3   OH217315   0.697   1.105   5.300  0.2217  0.1172 -0.4797
 5784TIP3    H117316   0.695   1.200   5.303  1.1975  0.1216  0.4811
 5784TIP3    H217317   0.785   1.083   5.269  0.8653 -0.4754  1.6415
 5785TIP3   OH217318   2.763   3.276   4.830  0.0125  0.5176 -0.1170
 5785TIP3    H117319   2.853   3.257   4.857 -0.1947 -0.2929  0.0312
 5785TIP3    H217320   2.735   3.198   4.783 -0.5799  0.8096 -0.2619
 5786TIP3   OH217321   2.000   2.384   2.485 -0.0356 -0.0924 -0.0100
 5786TIP3    H117322   1.939   2.343   2.423 -1.9563 -0.6798  2.1462
 5786TIP3    H217323   2.043   2.311   2.528  2.1434  0.3167 -1.3212
 5787TIP3   OH217324   5.472   2.897   2.880 -0.2165  0.1461 -0.3630
 5787TIP3    H117325   5.407   2.832   2.852  0.6127 -0.6468 -0.4912
 5787TIP3    H217326   5.484   2.953   2.804  0.8972 -1.0774 -1.1357
 5788TIP3   OH217327   1.153   2.301   0.218  0.1417 -0.0150  0.0119
 5788TIP3    H117328   1.076   2.246   0.206 -0.8867  1.2032  0.7305
 5788TIP3    H217329   1.206   2.255   0.283  0.4801 -1.2786 -1.0986
 5789TIP3   OH217330   4.967   2.012   1.492  0.1998 -0.0662  0.1989
 5789TIP3    H117331   4.885   2.015   1.441 -0.4630 -0.5140  1.2059
 5789TIP3    H217332   4.974   2.100   1.529 -0.4819 -0.3611  1.0768
 5790TIP3   OH217333   0.333   4.924   5.608  0.9382  0.2379  0.2382
 5790TIP3    H117334   0.355   4.894   5.696  2.0111  0.0314 -0.0831
 5790TIP3    H217335   0.393   4.996   5.591  0.8632  0.1621 -0.3895
 5791TIP3   OH217336   2.943   1.979   5.635  0.0053 -0.7007 -0.4706
 5791TIP3    H117337   2.932   1.934   5.551  0.8028 -0.8420 -0.5096
 5791TIP3    H217338   2.998   2.055   5.613  0.4796 -0.9109 -0.0280
 5792TIP3   OH217339   3.458   0.663   2.752 -0.1241 -0.1488 -0.1531
 5792TIP3    H117340   3.425   0.645   2.664  1.4350  0.5096 -0.9095
 5792TIP3    H217341   3.416   0.746   2.776  1.6189  1.2582 -1.5525
 5793TIP3   OH217342   2.619   1.946   4.294  0.3790 -0.0871  0.2468
 5793TIP3    H117343   2.654   1.877   4.238 -0.9468  1.2977 -2.4965
 5793TIP3    H217344   2.561   1.900   4.355 -0.3528 -1.4715 -1.4030
 5794TIP3   OH217345   3.424   3.922   5.073 -0.5301 -0.1374 -0.3353
 5794TIP3    H117346   3.438   3.908   4.980  1.9938  1.3691 -0.2534
 5794TIP3    H217347   3.510   3.912   5.113 -1.2965  0.5903  1.6613
 5795TIP3   OH217348   1.976   3.079   4.737 -0.2868  0.7237 -0.1328
 5795TIP3    H117349   1.977   3.129   4.818 -0.0543  0.2816  0.1410
 5795TIP3    H217350   1.908   3.013   4.750 -0.1585  0.5678 -0.2478
 5796TIP3   OH217351   0.753   0.281   2.917 -0.5937  0.7733  0.0030
 5796TIP3    H117352   0.837   0.249   2.885 -0.3541  0.2459  1.0975
 5796TIP3    H217353   0.767   0.375   2.930 -0.0078  0.6133  0.6185
 5797TIP3   OH217354   1.472   1.913   0.451 -0.1971  0.6832 -0.1278
 5797TIP3    H117355   1.453   2.005   0.431  3.1041  1.6500  0.5270
 5797TIP3    H217356   1.423   1.895   0.531  0.1397  2.3372  0.4996
 5798TIP3   OH217357   6.567   6.435   2.641 -0.0094  0.5226 -0.2124
 5798TIP3    H117358   6.477   6.417   2.613  0.1301  1.3883 -1.2622
 5798TIP3    H217359   6.594   6.510   2.588 -0.0138  2.8549  2.8051
 5799TIP3   OH217360   1.751   3.463   1.205 -0.0992 -0.5774 -0.2238
 5799TIP3    H117361   1.774   3.475   1.297 -1.5643  0.5455  0.0433
 5799TIP3    H217362   1.715   3.374   1.201 -2.4985  0.2459  0.9158
 5800TIP3   OH217363   4.796   4.306   3.277  0.7273  0.4831  0.4451
 5800TIP3    H117364   4.828   4.387   3.315 -0.5152  1.1698  0.0896
 5800TIP3    H217365   4.729   4.275   3.339  0.8482 -0.0137  0.3338
 5801TIP3   OH217366   4.182   3.747   3.778  0.1521 -0.7032 -0.0408
 5801TIP3    H117367   4.155   3.714   3.692  2.1085  1.3977 -1.5724
 5801TIP3    H217368   4.259   3.802   3.760 -0.4721  1.3349  2.8032
 5802TIP3   OH217369   0.988   4.402   3.249 -0.4612 -0.0864 -0.2873
 5802TIP3    H117370   1.018   4.489   3.275 -0.2994  0.2890 -1.6554
 5802TIP3    H217371   1.044   4.378   3.176 -0.0731 -1.6417  0.4729
 5803TIP3   OH217372   1.309   0.727   1.044 -0.3152  1.0294 -0.1791
 5803TIP3    H117373   1.293   0.662   0.976 -1.7724  1.7025 -0.5246
 5803TIP3    H217374   1.392   0.768   1.020  0.7069 -0.7818  0.1361
 5804TIP3   OH217375   6.595   3.525   4.596 -0.2580 -0.1017  0.6318
 5804TIP3    H117376   6.675   3.568   4.628 -0.0880  0.9503 -1.0944
 5804TIP3    H217377   6.617   3.432   4.594  0.7637  0.1229  0.6506
 5805TIP3   OH217378   4.365   0.564   3.756 -0.6330  0.6349 -0.0881
 5805TIP3    H117379   4.427   0.492   3.747 -0.9757  0.2700  0.3779
 5805TIP3    H217380   4.415   0.635   3.797 -0.4462  0.4540 -0.0045
 5806TIP3   OH217381   2.546   3.703   5.159  0.0085  0.2380  0.1772
 5806TIP3    H117382   2.581   3.739   5.078 -0.8203  0.5396 -0.0543
 5806TIP3    H217383   2.519   3.780   5.210  0.2675  0.0386  0.6245
 5807TIP3   OH217384   4.520   4.866   1.900  0.3092 -0.2873  0.2011
 5807TIP3    H117385   4.512   4.865   1.805  1.0002 -0.3895  0.1417
 5807TIP3    H217386   4.611   4.892   1.917  0.2797 -0.5641  0.8251
 5808TIP3   OH217387   5.186   1.215   0.792  0.6254  0.3445 -0.4989
 5808TIP3    H117388   5.256   1.157   0.762  1.4631 -0.4032  2.5110
 5808TIP3    H217389   5.231   1.293   0.822  0.1326  0.1591  0.7954
 5809TIP3   OH217390   5.405   0.909   0.852  0.6477 -0.1726 -0.4074
 5809TIP3    H117391   5.424   0.988   0.902  0.9036  0.1210 -0.9747
 5809TIP3    H217392   5.482   0.895   0.797 -0.7155  1.0435 -2.7556
 5810TIP3   OH217393   6.617   6.220   2.359  0.0806 -0.3089 -0.5037
 5810TIP3    H117394   6.548   6.197   2.297  0.3989 -0.3690 -0.8388
 5810TIP3    H217395   6.658   6.299   2.322  0.7351 -0.7516 -0.7413
 5811TIP3   OH217396   4.888   4.811   1.749  0.2630  0.3346 -0.1019
 5811TIP3    H117397   4.847   4.840   1.831  0.9828  0.6242  0.1688
 5811TIP3    H217398   4.920   4.892   1.709 -1.3046  0.3751 -1.3752
 5812TIP3   OH217399   0.697   5.102   1.408  0.1014 -0.3629  0.7215
 5812TIP3    H117400   0.675   5.160   1.335  0.3390  0.1520  1.0562
 5812TIP3    H217401   0.629   5.120   1.474  1.0370  0.6669  1.4447
 5813TIP3   OH217402   4.136   3.291   0.300  0.1333 -0.1144 -0.1242
 5813TIP3    H117403   4.078   3.349   0.350  0.8476  0.3372  0.2085
 5813TIP3    H217404   4.224   3.311   0.334  0.2633 -2.5915  1.2320
 5814TIP3   OH217405   2.890   0.226   5.884 -0.1036 -0.2197  0.4729
 5814TIP3    H117406   2.968   0.281   5.894  0.8995 -1.6600  0.8505
 5814TIP3    H217407   2.908   0.173   5.807 -0.8235 -0.3821  0.4158
 5815TIP3   OH217408   5.980   3.200   1.607 -0.0755 -0.3789  0.6452
 5815TIP3    H117409   5.909   3.196   1.671 -0.1835 -1.1715  0.4923
 5815TIP3    H217410   5.960   3.130   1.545 -0.0300  0.4298 -0.3179
 5816TIP3   OH217411   0.039   5.176   4.418  0.0029 -0.3855  0.1115
 5816TIP3    H117412   0.081   5.262   4.420  0.3532 -0.5406 -0.3855
 5816TIP3    H217413   0.087   5.125   4.483  0.1250 -0.3539  0.0464
 5817TIP3   OH217414   4.947   2.736   3.415 -0.1065 -0.0747 -0.4546
 5817TIP3    H117415   5.020   2.798   3.420  0.3745 -0.7239  1.9893
 5817TIP3    H217416   4.938   2.716   3.322  0.3382  2.8950 -1.2577
 5818TIP3   OH217417   4.547   6.036   3.734  0.3825  0.0045 -0.1489
 5818TIP3    H117418   4.610   6.106   3.750 -0.4394  0.5745  0.6359
 5818TIP3    H217419   4.557   5.977   3.809  1.9495 -1.4345 -1.3900
 5819TIP3   OH217420   2.574   1.807   5.127 -0.5206  0.4686  0.1012
 5819TIP3    H117421   2.533   1.724   5.101 -1.2649  0.4437  1.2590
 5819TIP3    H217422   2.663   1.801   5.095 -0.0547 -1.5160  1.5553
 5820TIP3   OH217423   1.607   5.883   0.874 -0.6678 -0.3347 -0.4078
 5820TIP3    H117424   1.538   5.940   0.908 -1.0114 -0.3974 -0.9867
 5820TIP3    H217425   1.688   5.933   0.888 -0.7316 -0.5970  0.9888
 5821TIP3   OH217426   4.897   1.243   5.262  0.0951  0.0246 -0.5724
 5821TIP3    H117427   4.834   1.213   5.196 -0.9937 -0.2054  0.5357
 5821TIP3    H217428   4.933   1.324   5.226 -0.7295  0.0818 -1.2973
 5822TIP3   OH217429   6.551   6.097   3.791  0.5890 -0.0559  0.3972
 5822TIP3    H117430   6.519   6.137   3.710 -0.7145 -0.1959  0.8235
 5822TIP3    H217431   6.474   6.058   3.831  1.1864  0.0970  1.7708
 5823TIP3   OH217432   2.825   2.673   0.223 -0.0725  0.3723 -0.0805
 5823TIP3    H117433   2.841   2.613   0.150  0.0356 -0.7974  0.8837
 5823TIP3    H217434   2.744   2.641   0.263 -0.6137  1.5411 -0.2012
 5824TIP3   OH217435   0.476   3.285   2.963 -0.0973  0.2248  0.0909
 5824TIP3    H117436   0.438   3.233   2.892 -1.0105  1.8518 -0.6590
 5824TIP3    H217437   0.470   3.228   3.040 -1.3773 -0.6600 -0.6293
 5825TIP3   OH217438   2.678   6.430   2.718 -0.0888 -0.0061 -0.0825
 5825TIP3    H117439   2.769   6.408   2.697 -0.4593 -2.9139  0.8631
 5825TIP3    H217440   2.685   6.493   2.790  1.2272 -0.7566  0.4939
 5826TIP3   OH217441   2.477   0.959   1.711 -0.6219  0.7046 -0.1207
 5826TIP3    H117442   2.450   1.046   1.741 -2.3243  0.2918 -0.3746
 5826TIP3    H217443   2.485   0.907   1.791 -0.5794  0.8314 -0.0419
 5827TIP3   OH217444   2.905   3.379   1.774 -0.2636 -0.3351 -0.0831
 5827TIP3    H117445   2.962   3.304   1.794  1.0661  0.5916 -0.2655
 5827TIP3    H217446   2.820   3.353   1.808  0.3026 -1.6879  0.4032
 5828TIP3   OH217447   5.153   6.033   4.929 -0.0009  0.0239 -0.8435
 5828TIP3    H117448   5.210   5.958   4.942 -1.7926 -1.3805 -0.6580
 5828TIP3    H217449   5.186   6.074   4.849  2.6044  0.6319  0.4364
 5829TIP3   OH217450   2.300   6.404   5.618  0.6813  0.3172  0.0277
 5829TIP3    H117451   2.355   6.352   5.559  1.0457  1.9147 -1.0985
 5829TIP3    H217452   2.362   6.461   5.663  0.4140 -0.8729  2.0446
 5830TIP3   OH217453   3.519   5.211   3.383  0.2902  0.5084 -0.0373
 5830TIP3    H117454   3.425   5.227   3.383  0.1528 -0.0072 -1.8865
 5830TIP3    H217455   3.550   5.255   3.304  1.5477  0.3977  0.3808
 5831TIP3   OH217456   3.692   2.155   5.782 -0.0296  0.1683  0.0113
 5831TIP3    H117457   3.635   2.184   5.711  1.1818 -0.3874 -1.2405
 5831TIP3    H217458   3.779   2.150   5.742  0.7580  0.2204  1.6500
 5832TIP3   OH217459   3.286   3.417   5.148  0.4450  0.5285  0.0282
 5832TIP3    H117460   3.236   3.340   5.174  0.3917  0.4685 -0.2494
 5832TIP3    H217461   3.301   3.406   5.055 -0.7096  1.4990 -0.2977
 5833TIP3   OH217462   1.440   1.543   5.714  0.5065  0.7730 -0.4254
 5833TIP3    H117463   1.352   1.580   5.711  1.0546  2.0441 -1.2935
 5833TIP3    H217464   1.471   1.563   5.803  0.9776  2.8933 -1.0181
 5834TIP3   OH217465   4.492   4.249   0.230  0.4636 -0.4667  0.2043
 5834TIP3    H117466   4.556   4.301   0.278  0.1856  0.3057 -0.2478
 5834TIP3    H217467   4.512   4.159   0.254  2.7461 -0.3772 -1.1606
 5835TIP3   OH217468   3.214   1.517   4.807  0.2358  0.1962  0.5902
 5835TIP3    H117469   3.190   1.497   4.897 -1.6131  1.7164  0.4945
 5835TIP3    H217470   3.274   1.591   4.815 -0.8544  1.1144  0.5747
 5836TIP3   OH217471   6.029   6.031   5.503  0.1021  0.3130 -0.4015
 5836TIP3    H117472   6.009   6.003   5.414 -2.3673 -0.4001  0.2722
 5836TIP3    H217473   5.988   6.118   5.510 -0.6755 -0.0972  0.3178
 5837TIP3   OH217474   0.354   5.086   4.776  0.4649 -0.5538  0.1051
 5837TIP3    H117475   0.373   5.020   4.709  0.6471 -1.2652  0.8373
 5837TIP3    H217476   0.297   5.041   4.838 -1.0478  0.5914 -0.4010
 5838TIP3   OH217477   0.400   3.600   5.669  0.2334 -0.3651 -0.0240
 5838TIP3    H117478   0.430   3.626   5.756  0.5859 -0.2219 -0.1878
 5838TIP3    H217479   0.480   3.582   5.620  0.0299 -2.3621  0.2640
 5839TIP3   OH217480   6.993   6.749   2.004 -0.0238  0.2798  0.2399
 5839TIP3    H117481   6.950   6.833   2.018 -2.0706 -0.9534  2.0417
 5839TIP3    H217482   7.049   6.737   2.081  0.8058  0.2721 -0.3520
 5840TIP3   OH217483   1.564   1.444   3.775  0.9028  0.0680 -0.1080
 5840TIP3    H117484   1.619   1.428   3.698  1.2157 -0.2986  0.1859
 5840TIP3    H217485   1.478   1.467   3.739  0.9562 -0.4316 -0.5699
 5841TIP3   OH217486   5.544   6.266   2.736 -0.7381  0.3896 -0.0802
 5841TIP3    H117487   5.489   6.250   2.813  0.4772 -4.6071  0.1359
 5841TIP3    H217488   5.488   6.245   2.662  0.2713 -3.9400  0.1098
 5842TIP3   OH217489   7.140   1.530   1.766  0.0608  0.1680  0.5716
 5842TIP3    H117490   7.215   1.582   1.738  1.0993 -2.6663 -2.7168
 5842TIP3    H217491   7.099   1.581   1.835  2.2224  4.1407 -0.7798
 5843TIP3   OH217492   1.797   6.200   4.090 -0.2682  0.0363  0.1201
 5843TIP3    H117493   1.802   6.274   4.029  0.1485  0.4371  0.6307
 5843TIP3    H217494   1.840   6.128   4.044  0.8677  0.5834  0.2882
 5844TIP3   OH217495   4.006   2.967   0.524 -0.2203 -0.7597  0.0611
 5844TIP3    H117496   3.976   2.878   0.509  1.5178 -0.8910 -3.9832
 5844TIP3    H217497   4.102   2.960   0.526 -0.0671  0.8482  1.7735
 5845TIP3   OH217498   5.708   4.729   4.325 -0.5139  0.2877  0.1195
 5845TIP3    H117499   5.734   4.655   4.271  2.1898  1.1378  0.1435
 5845TIP3    H217500   5.761   4.802   4.295 -1.6706  1.7477  1.4175
 5846TIP3   OH217501   6.902   1.902   5.460 -0.3126  0.2542  0.6304
 5846TIP3    H117502   6.831   1.893   5.396 -0.2532 -1.0555  0.7105
 5846TIP3    H217503   6.894   1.991   5.492 -1.3605  0.4213 -0.0234
 5847TIP3   OH217504   6.338   1.196   5.313  0.0554 -1.0967 -0.2713
 5847TIP3    H117505   6.361   1.275   5.264  0.3923 -0.2883  1.1601
 5847TIP3    H217506   6.329   1.128   5.245  2.4224 -0.4709 -1.3068
 5848TIP3   OH217507   2.101   6.354   5.793 -0.5420  0.1478 -0.7384
 5848TIP3    H117508   2.165   6.368   5.723 -0.6633  0.8057 -0.7151
 5848TIP3    H217509   2.024   6.402   5.765  0.1450  2.3103  0.8867
 5849TIP3   OH217510   1.753   6.437   4.282  0.3051 -0.0609  0.2441
 5849TIP3    H117511   1.774   6.345   4.270  1.1000  0.1043  0.3221
 5849TIP3    H217512   1.823   6.471   4.337 -1.6520 -0.1253  2.9804
 5850TIP3   OH217513   4.719   3.881   0.803 -0.0101 -0.3583  0.4608
 5850TIP3    H117514   4.638   3.878   0.855 -0.3039  0.9577  0.1017
 5850TIP3    H217515   4.737   3.974   0.792 -0.1313 -0.5637 -2.0412
 5851TIP3   OH217516   0.945   2.777   4.002 -0.1403  0.1006  0.9993
 5851TIP3    H117517   0.904   2.712   3.945  1.8746 -0.4610  0.0742
 5851TIP3    H217518   0.873   2.813   4.054 -2.0895  0.6446 -1.8602
 5852TIP3   OH217519   2.751   2.752   2.968  0.2480  0.5811  0.2886
 5852TIP3    H117520   2.739   2.843   2.944 -0.7557  0.4747  0.3250
 5852TIP3    H217521   2.759   2.752   3.063 -1.9957  0.4740  0.5501
 5853TIP3   OH217522   6.503   5.134   1.434 -0.3767 -0.4961 -0.3017
 5853TIP3    H117523   6.492   5.214   1.484 -0.4699 -0.4591 -0.3829
 5853TIP3    H217524   6.415   5.110   1.405 -0.1774  0.2653 -1.6665
 5854TIP3   OH217525   3.224   5.795   3.876  0.0661 -0.0489  0.4059
 5854TIP3    H117526   3.284   5.813   3.948  0.3320 -0.0274  0.1858
 5854TIP3    H217527   3.212   5.701   3.878  1.1343 -0.2240 -0.3277
 5855TIP3   OH217528   2.574   5.521   5.572  0.2643 -0.6016  0.2422
 5855TIP3    H117529   2.627   5.543   5.496 -0.3679  0.4170  0.0758
 5855TIP3    H217530   2.637   5.494   5.639  0.8736 -0.8081 -0.4021
 5856TIP3   OH217531   2.038   3.480   4.130 -0.2556  0.0357  0.1302
 5856TIP3    H117532   2.011   3.572   4.125 -0.8783 -0.1248  0.4245
 5856TIP3    H217533   2.017   3.454   4.220  0.3359 -0.2727  0.1847
 5857TIP3   OH217534   6.128   0.739   3.308  0.3178  0.0156  0.0277
 5857TIP3    H117535   6.096   0.799   3.375 -0.0129 -0.9170  0.7404
 5857TIP3    H217536   6.164   0.795   3.240  0.4619  0.9960  0.8854
 5858TIP3   OH217537   3.717   1.393   4.451  0.1499 -0.0009 -0.1038
 5858TIP3    H117538   3.800   1.410   4.405  0.0807 -0.2587 -0.3276
 5858TIP3    H217539   3.651   1.437   4.398 -0.1663 -1.7649 -1.2493
 5859TIP3   OH217540   2.192   3.600   1.891 -0.2863 -0.0624  0.6613
 5859TIP3    H117541   2.186   3.669   1.825 -0.8233 -0.3727  0.3772
 5859TIP3    H217542   2.280   3.564   1.880 -0.5080 -0.3809 -0.1725
 5860TIP3   OH217543   2.128   1.868   4.456  1.0594 -0.3506  0.2873
 5860TIP3    H117544   2.062   1.880   4.524  0.1708 -1.2188 -0.3998
 5860TIP3    H217545   2.130   1.953   4.410  1.7248  0.2656  1.4166
 5861TIP3   OH217546   6.012   0.329   1.317  0.3478 -0.2607  0.3682
 5861TIP3    H117547   5.946   0.260   1.319  0.8390 -0.7274  0.7665
 5861TIP3    H217548   5.979   0.392   1.253  1.4724 -2.4192 -2.5323
 5862TIP3   OH217549   4.185   3.756   0.982 -0.0852  0.8117  0.2070
 5862TIP3    H117550   4.235   3.687   1.027 -1.2214  0.2343  0.6096
 5862TIP3    H217551   4.109   3.711   0.946  0.3013  1.4398 -1.5141
 5863TIP3   OH217552   5.536   6.737   0.359  0.0155 -0.2283  0.3678
 5863TIP3    H117553   5.566   6.646   0.351 -0.0333 -0.1664 -0.6613
 5863TIP3    H217554   5.601   6.787   0.309 -1.1150  0.0470 -0.8710
 5864TIP3   OH217555   0.576   6.237   2.764  0.1536  0.1913 -0.4506
 5864TIP3    H117556   0.604   6.268   2.851 -0.6914  1.4991 -0.6251
 5864TIP3    H217557   0.614   6.150   2.757  2.7641  1.1818  0.0256
 5865TIP3   OH217558   7.127   4.115   4.816 -0.1407  0.4253 -0.6802
 5865TIP3    H117559   7.111   4.206   4.842 -0.1972 -0.0458  1.0198
 5865TIP3    H217560   7.048   4.068   4.841  0.9075 -0.5640  0.9414
 5866TIP3   OH217561   4.247  -0.023   2.884  0.2228  0.0335  0.4642
 5866TIP3    H117562   4.227   0.043   2.950 -0.3373  0.0892  0.2448
 5866TIP3    H217563   4.236   0.021   2.800  0.4471 -0.1709  0.3242
 5867TIP3   OH217564   3.900   2.601   1.218  0.2380 -0.1830  0.1361
 5867TIP3    H117565   3.870   2.515   1.248 -0.3697 -0.5163 -1.3240
 5867TIP3    H217566   3.990   2.607   1.250 -0.0157 -0.9524  1.0510
 5868TIP3   OH217567   4.616   4.429   4.286  0.3414 -0.0702  0.6594
 5868TIP3    H117568   4.689   4.434   4.225  1.5291 -0.6019  1.9842
 5868TIP3    H217569   4.582   4.518   4.291 -0.2170 -0.1369 -1.2511
 5869TIP3   OH217570   2.259   1.964   3.148 -0.3857  0.0071 -0.5202
 5869TIP3    H117571   2.204   1.886   3.156 -1.5754  0.8296 -0.3555
 5869TIP3    H217572   2.337   1.934   3.102 -0.7038 -1.3294 -0.2294
 5870TIP3   OH217573   1.883   2.595   2.384  0.2516  0.0188 -0.3742
 5870TIP3    H117574   1.957   2.539   2.405  1.6067  2.2936  1.4242
 5870TIP3    H217575   1.806   2.545   2.410  1.4830 -0.2955  3.2374
 5871TIP3   OH217576   5.577   4.952   2.106 -0.0759 -0.4682 -1.0635
 5871TIP3    H117577   5.491   4.971   2.069  0.2158  2.8297 -0.3466
 5871TIP3    H217578   5.565   4.871   2.154 -3.3236  0.7598  0.4860
 5872TIP3   OH217579   6.577   6.163   3.367 -0.4312 -0.1257  0.0633
 5872TIP3    H117580   6.578   6.080   3.319 -2.0098  0.8219 -1.7306
 5872TIP3    H217581   6.668   6.175   3.395  0.0651 -1.8878 -0.6298
 5873TIP3   OH217582   4.078   3.169   2.412 -0.0946 -0.1710  0.0088
 5873TIP3    H117583   4.115   3.088   2.377  1.3032 -0.0147  1.0451
 5873TIP3    H217584   4.152   3.230   2.415 -1.3156  1.4900 -1.6687
 5874TIP3   OH217585   6.797   6.058   2.096 -0.1711 -0.1968 -0.1032
 5874TIP3    H117586   6.809   6.097   2.182 -1.5709  0.3678 -0.1287
 5874TIP3    H217587   6.792   6.133   2.036 -3.1159 -0.2869 -0.1287
 5875TIP3   OH217588   5.367   1.793   0.565  0.3919  0.4271 -0.4966
 5875TIP3    H117589   5.454   1.833   0.569  0.2709  0.5931  1.2026
 5875TIP3    H217590   5.384   1.699   0.562  0.6277  0.4849 -1.2778
 5876TIP3   OH217591   6.884   1.846   5.732 -0.0157  0.4201  0.3110
 5876TIP3    H117592   6.951   1.898   5.777  0.0454  0.8458 -0.2634
 5876TIP3    H217593   6.920   1.832   5.644  0.1229 -0.8970  0.5696
 5877TIP3   OH217594   3.110   1.604   1.582 -0.5216 -0.0586  0.2737
 5877TIP3    H117595   3.102   1.612   1.487 -1.6433 -0.0983  0.3508
 5877TIP3    H217596   3.189   1.552   1.595  0.3893  1.0765 -0.5891
 5878TIP3   OH217597   2.718   3.756   1.108 -0.1626  0.6150 -0.2153
 5878TIP3    H117598   2.741   3.747   1.015 -1.6199  1.3323 -0.6828
 5878TIP3    H217599   2.748   3.843   1.133 -1.1002  1.0297 -0.4647
 5879TIP3   OH217600   2.081   6.240   2.207 -0.4752 -0.0901 -0.7288
 5879TIP3    H117601   2.043   6.258   2.121 -2.7357  0.4823  0.3143
 5879TIP3    H217602   2.007   6.247   2.268  1.3758  1.4342  1.5125
 5880TIP3   OH217603   0.663   0.968   1.170 -0.2713  0.1009  0.4045
 5880TIP3    H117604   0.716   0.924   1.237  0.1202 -0.4684 -0.2565
 5880TIP3    H217605   0.671   0.911   1.093  2.7995  2.7614 -1.5169
 5881TIP3   OH217606   6.795   5.495   0.234 -0.7707  0.0969 -0.3592
 5881TIP3    H117607   6.717   5.534   0.274 -1.0945  0.6554 -1.4825
 5881TIP3    H217608   6.799   5.534   0.147  0.3909 -0.4407 -0.5656
 5882TIP3   OH217609   4.653   5.703   3.082 -0.2163 -0.3841 -0.3528
 5882TIP3    H117610   4.697   5.782   3.113 -1.1917  0.6569 -1.5126
 5882TIP3    H217611   4.562   5.713   3.108 -0.3140 -1.2324 -0.3312
 5883TIP3   OH217612   5.539   3.102   5.502  0.3493  0.5266 -0.1389
 5883TIP3    H117613   5.517   3.094   5.595  0.6298 -1.5007 -0.2193
 5883TIP3    H217614   5.632   3.127   5.502  1.7452 -3.8339  0.2477
 5884TIP3   OH217615   1.181   3.590   1.201  0.7206 -0.4801 -0.0459
 5884TIP3    H117616   1.186   3.546   1.286  0.4051 -0.0565  0.1939
 5884TIP3    H217617   1.091   3.623   1.196  0.8528 -0.1664 -0.3764
 5885TIP3   OH217618   0.669   4.851   5.583 -0.1568 -0.4776  0.2915
 5885TIP3    H117619   0.631   4.821   5.665  0.8066 -0.9559  0.5805
 5885TIP3    H217620   0.698   4.771   5.539  0.4199 -0.1409  0.0417
 5886TIP3   OH217621   6.301   5.200   4.640  0.4584 -0.8364 -0.2868
 5886TIP3    H117622   6.395   5.182   4.646  0.7833  1.0266  1.8108
 5886TIP3    H217623   6.260   5.114   4.632  2.2519 -1.8715  0.9854
 5887TIP3   OH217624   2.810   4.140   1.627  0.2853 -0.5837  0.2415
 5887TIP3    H117625   2.757   4.139   1.706 -1.2061 -0.5380 -0.7224
 5887TIP3    H217626   2.851   4.226   1.626  2.3573 -1.4386  2.2077
 5888TIP3   OH217627   5.067   2.504   3.503 -0.2765  0.3005  0.5701
 5888TIP3    H117628   5.134   2.550   3.454  0.5765 -0.3915  1.0663
 5888TIP3    H217629   4.985   2.548   3.479 -0.1438 -1.0275 -2.7093
 5889TIP3   OH217630   4.849   1.715   3.171  0.0941 -0.9809 -0.1913
 5889TIP3    H117631   4.891   1.629   3.177 -1.1220 -1.5931 -0.3045
 5889TIP3    H217632   4.792   1.719   3.248 -0.8659 -0.8437 -0.9007
 5890TIP3   OH217633   4.093   1.769   3.436  0.4996 -0.3294  0.3781
 5890TIP3    H117634   4.072   1.723   3.354 -0.1756 -0.3260  0.5364
 5890TIP3    H217635   4.158   1.834   3.411  0.8913 -0.8534 -0.0027
 5891TIP3   OH217636   5.356   6.256   1.086  0.4786  0.4666 -0.0375
 5891TIP3    H117637   5.330   6.258   0.994 -0.0697  0.9555  0.1237
 5891TIP3    H217638   5.331   6.168   1.115 -0.6325  0.7755 -0.0004
 5892TIP3   OH217639   2.831   3.490   1.230  0.4190  0.3005 -0.1364
 5892TIP3    H117640   2.743   3.519   1.255 -0.2762 -0.8369 -1.1289
 5892TIP3    H217641   2.839   3.517   1.138  0.8220 -0.2383 -0.2607
 5893TIP3   OH217642   0.597   5.519   1.037 -0.1878 -0.4333 -0.1728
 5893TIP3    H117643   0.660   5.576   1.081 -1.7242  0.3429  1.1059
 5893TIP3    H217644   0.632   5.508   0.949  0.6168  1.7584 -0.1788
 5894TIP3   OH217645   5.649   2.631   4.890 -0.5173  0.5180  0.1059
 5894TIP3    H117646   5.621   2.711   4.846  0.5398  1.1555  0.5588
 5894TIP3    H217647   5.578   2.612   4.952 -0.5964  1.3373  0.2827
 5895TIP3   OH217648   5.914   0.310   1.890 -0.5283  0.3284  0.3799
 5895TIP3    H117649   5.952   0.391   1.924 -2.4186  0.9659  1.1227
 5895TIP3    H217650   5.957   0.297   1.805 -0.2294  2.1423  0.2128
 5896TIP3   OH217651   2.856   4.253   3.370  0.1253 -0.0258 -0.2981
 5896TIP3    H117652   2.787   4.316   3.391 -1.2474 -0.7707 -2.2963
 5896TIP3    H217653   2.838   4.178   3.427 -0.6295 -0.1639 -0.7193
 5897TIP3   OH217654   4.759   3.905   1.155  0.0570  0.6990 -0.7283
 5897TIP3    H117655   4.683   3.874   1.106 -0.5923  0.1009  0.6211
 5897TIP3    H217656   4.788   3.983   1.108  0.4383 -0.7199 -2.9946
 5898TIP3   OH217657   6.509   3.409   2.005  0.5712  0.5894 -0.0448
 5898TIP3    H117658   6.597   3.391   2.038  0.0957  0.8667  1.4870
 5898TIP3    H217659   6.463   3.444   2.081 -1.6429 -2.0118 -0.0803
 5899TIP3   OH217660   3.308   2.213   4.542  0.4022  0.1845  0.1674
 5899TIP3    H117661   3.214   2.200   4.553  0.3479  0.8673  0.5719
 5899TIP3    H217662   3.345   2.124   4.544 -0.1501 -0.0398  0.7985
 5900TIP3   OH217663   5.651   3.550   5.370  0.2860 -0.5494  0.2433
 5900TIP3    H117664   5.670   3.458   5.388 -3.6473 -1.3100  1.4622
 5900TIP3    H217665   5.607   3.549   5.285 -0.8139 -0.0398  0.7767
 5901TIP3   OH217666   1.380   4.874   2.846 -0.1366 -0.0101  0.0050
 5901TIP3    H117667   1.310   4.858   2.783 -1.7344  0.1246  1.6700
 5901TIP3    H217668   1.443   4.928   2.797 -0.9864 -0.4330 -1.6523
 5902TIP3   OH217669   5.548   2.867   5.812  0.6518  0.2607 -0.3101
 5902TIP3    H117670   5.517   2.831   5.895 -0.4622  1.3212 -0.2359
 5902TIP3    H217671   5.477   2.924   5.783  1.1907  0.2116 -1.8070
 5903TIP3   OH217672   3.744   4.206   1.152  0.1437 -0.1871  0.3005
 5903TIP3    H117673   3.726   4.115   1.126  2.0998 -0.2141 -1.2325
 5903TIP3    H217674   3.707   4.213   1.240 -2.2951 -1.6742 -0.5027
 5904TIP3   OH217675   0.129   0.264   0.313  0.1257  0.2136 -0.2702
 5904TIP3    H117676   0.216   0.234   0.338  0.2422  0.0059 -0.8964
 5904TIP3    H217677   0.122   0.241   0.220 -0.3415  0.8194 -0.3903
 5905TIP3   OH217678   1.566   4.132   5.814  0.6352 -0.4485  0.1454
 5905TIP3    H117679   1.544   4.143   5.722  3.5429 -0.9239 -0.7106
 5905TIP3    H217680   1.499   4.074   5.849 -0.4045 -0.4250 -1.7138
 5906TIP3   OH217681   0.463   2.105   2.953 -0.6051 -0.6030 -0.3903
 5906TIP3    H117682   0.467   2.124   3.047 -1.2417 -1.1063 -0.2583
 5906TIP3    H217683   0.486   2.012   2.947  0.4757 -0.3220 -0.8416
 5907TIP3   OH217684   6.148   1.482   2.912 -0.0183  0.1560 -0.0873
 5907TIP3    H117685   6.117   1.568   2.883  1.4464  0.3370 -1.2134
 5907TIP3    H217686   6.202   1.502   2.989  0.3662  0.2681 -0.3802
 5908TIP3   OH217687   6.739   0.163   2.003  0.0411  0.3690  0.2301
 5908TIP3    H117688   6.683   0.193   1.931  1.6627 -0.3544 -1.4188
 5908TIP3    H217689   6.689   0.095   2.046  0.8902 -3.0399 -3.5535
 5909TIP3   OH217690   4.574   6.523   5.557 -0.2295 -0.2683  0.3422
 5909TIP3    H117691   4.482   6.546   5.544  0.0815  0.3845 -0.8373
 5909TIP3    H217692   4.593   6.460   5.487  0.9494  1.7692 -1.2942
 5910TIP3   OH217693   4.848   0.055  -0.001  0.3099 -0.1722 -0.3978
 5910TIP3    H117694   4.874   0.084   0.086 -1.3043 -0.2222  0.1248
 5910TIP3    H217695   4.849  -0.041   0.004 -2.0602 -0.2178  0.3383
 5911TIP3   OH217696   2.350   0.946   1.475  0.2424 -0.0767 -0.0834
 5911TIP3    H117697   2.259   0.957   1.502  0.3581 -3.4417  2.3433
 5911TIP3    H217698   2.402   0.972   1.552  1.2185 -0.2378 -0.6674
 5912TIP3   OH217699   4.194   4.338   5.186  0.6735  1.0709 -0.3021
 5912TIP3    H117700   4.121   4.332   5.125  0.7028  0.3978 -0.2766
 5912TIP3    H217701   4.261   4.279   5.149  0.5297  0.3308  0.5967
 5913TIP3   OH217702   1.857   1.017   4.986 -0.0215 -0.2959 -0.5657
 5913TIP3    H117703   1.817   0.961   5.053 -0.0426 -0.2758 -0.5617
 5913TIP3    H217704   1.791   1.024   4.918 -0.3826  0.4984 -0.1378
 5914TIP3   OH217705   5.432   4.992   5.096 -0.1126 -0.2953  0.0266
 5914TIP3    H117706   5.510   4.937   5.082 -0.8700 -1.3672 -0.1095
 5914TIP3    H217707   5.452   5.042   5.175  0.8705 -0.2624 -0.2300
 5915TIP3   OH217708   6.494   5.953   3.209 -0.1444  0.4393 -0.8489
 5915TIP3    H117709   6.454   5.946   3.122 -1.4846  0.3622 -0.2481
 5915TIP3    H217710   6.420   5.962   3.269  0.6369 -1.2208  0.4660
 5916TIP3   OH217711   4.355   0.814   2.385 -0.0712  0.1257 -0.0516
 5916TIP3    H117712   4.327   0.904   2.398 -3.6079 -0.6210 -1.2325
 5916TIP3    H217713   4.402   0.814   2.302  1.0565  1.0190  0.5642
 5917TIP3   OH217714   5.546   3.738   1.245 -1.0545  0.0510 -0.2587
 5917TIP3    H117715   5.584   3.735   1.333  0.8359 -3.5279 -0.9984
 5917TIP3    H217716   5.452   3.739   1.260 -0.7695  0.4304  1.7753
 5918TIP3   OH217717   3.978   5.687   3.612  0.5969  0.1786  0.1048
 5918TIP3    H117718   3.979   5.647   3.525  1.5727  1.7835 -0.6579
 5918TIP3    H217719   4.043   5.637   3.662  0.9756  0.0732 -0.4856
 5919TIP3   OH217720   0.147   4.378   3.234  0.3198  0.5882  0.5946
 5919TIP3    H117721   0.237   4.358   3.210  0.1081 -0.2624  0.4905
 5919TIP3    H217722   0.154   4.416   3.322  0.7791  0.5623  0.5705
 5920TIP3   OH217723   5.448   0.586   4.475 -0.5122  0.0381  0.0843
 5920TIP3    H117724   5.397   0.666   4.462  0.4525  0.4187 -1.7160
 5920TIP3    H217725   5.539   0.615   4.472 -0.1383 -1.1360 -0.8260
 5921TIP3   OH217726   5.059   6.197   2.459 -0.0230 -0.1645 -0.3137
 5921TIP3    H117727   4.996   6.155   2.518  0.4883 -1.0215 -0.3677
 5921TIP3    H217728   5.015   6.197   2.374 -0.9559  1.4923  0.1192
 5922TIP3   OH217729   1.938   5.794   5.462  0.0968 -0.3571  0.1228
 5922TIP3    H117730   1.964   5.845   5.385 -0.8885  0.6880  0.4518
 5922TIP3    H217731   2.016   5.743   5.485  0.7109  0.0619 -0.9719
 5923TIP3   OH217732   6.164   4.156   3.524 -0.2754  0.1035  0.3325
 5923TIP3    H117733   6.113   4.235   3.507 -0.6881 -0.3671 -0.6916
 5923TIP3    H217734   6.177   4.156   3.619 -3.0378 -0.2723  0.7781
 5924TIP3   OH217735   0.057   4.858   3.987 -0.0855 -0.3283 -0.1043
 5924TIP3    H117736   0.099   4.858   4.073  1.3091 -0.6146 -0.7503
 5924TIP3    H217737  -0.033   4.828   4.004  0.1241 -0.2489  1.2571
 5925TIP3   OH217738   0.334   6.000   5.104 -0.0503  0.3079 -0.0221
 5925TIP3    H117739   0.422   6.009   5.066  0.1300 -1.1418 -0.0178
 5925TIP3    H217740   0.335   5.913   5.145 -1.3511  0.4529  0.3420
 5926TIP3   OH217741   3.722   0.323   1.214  0.3718 -0.1766  0.0242
 5926TIP3    H117742   3.816   0.304   1.224  0.0459 -1.8262  0.1356
 5926TIP3    H217743   3.679   0.265   1.276 -0.9356 -1.9102 -2.3715
 5927TIP3   OH217744   4.055   4.739   1.164  0.1475 -0.0351  0.0196
 5927TIP3    H117745   3.975   4.777   1.128 -0.0342 -0.8097 -0.4013
 5927TIP3    H217746   4.025   4.670   1.223  0.4840  0.3177  0.6210
 5928TIP3   OH217747   0.241   4.565   3.044  0.7867 -0.1278  0.0295
 5928TIP3    H117748   0.337   4.569   3.038  0.8393  0.0334  0.8558
 5928TIP3    H217749   0.223   4.482   3.088  0.4975 -0.5922 -0.9473
 5929TIP3   OH217750   3.235   4.728   4.709  0.4802  0.2375 -0.3748
 5929TIP3    H117751   3.141   4.708   4.715  0.8008 -1.2322  0.4297
 5929TIP3    H217752   3.261   4.744   4.799  1.1856 -0.3737 -0.4621
 5930TIP3   OH217753   1.562   4.110   4.796  0.0190 -0.0797 -0.4798
 5930TIP3    H117754   1.559   4.176   4.866 -1.2549 -0.2825 -0.3185
 5930TIP3    H217755   1.500   4.043   4.824  0.2623 -0.6663 -1.3233
 5931TIP3   OH217756   0.332   2.999   2.858 -0.7450  0.6096 -0.1705
 5931TIP3    H117757   0.359   2.912   2.889 -0.1795  0.3954 -1.2297
 5931TIP3    H217758   0.276   3.032   2.928 -2.0065 -1.1197 -0.2958
 5932TIP3   OH217759   1.271   5.658   4.433 -0.0813  0.2767 -0.2418
 5932TIP3    H117760   1.255   5.623   4.521  0.5038 -1.2764 -0.7219
 5932TIP3    H217761   1.359   5.695   4.438  0.3196 -0.6326 -0.4020
 5933TIP3   OH217762   2.381   1.782   1.377  0.2398 -0.0384  0.3696
 5933TIP3    H117763   2.460   1.832   1.399 -1.3788  1.9420  2.2410
 5933TIP3    H217764   2.384   1.772   1.282  2.5422  0.2692  0.3632
 5934TIP3   OH217765   4.386   4.299   4.682 -0.0901  0.3140 -0.2468
 5934TIP3    H117766   4.454   4.247   4.725 -0.6452 -0.1762  0.0507
 5934TIP3    H217767   4.390   4.272   4.590 -0.3228 -0.1935 -0.1078
 5935TIP3   OH217768   4.417   4.604   0.744  0.0276  0.5142 -0.1458
 5935TIP3    H117769   4.342   4.658   0.771 -0.2750 -0.2622  0.6262
 5935TIP3    H217770   4.387   4.561   0.664 -0.5149 -0.0955  0.3721
 5936TIP3   OH217771   1.278   4.221   3.046  0.0013  0.0654 -0.2897
 5936TIP3    H117772   1.323   4.165   3.109 -1.2092  0.3707  0.8735
 5936TIP3    H217773   1.323   4.305   3.052 -0.6778  0.3717  0.8776
 5937TIP3   OH217774   2.133   6.016   4.618  0.3032  0.0697 -0.0186
 5937TIP3    H117775   2.144   6.003   4.712 -0.5958 -0.5742  0.0104
 5937TIP3    H217776   2.193   5.953   4.577  0.1834 -0.1390  0.1268
 5938TIP3   OH217777   3.905   4.755   5.873 -0.6705 -0.4079 -0.3138
 5938TIP3    H117778   3.976   4.719   5.926 -1.5472 -0.4478  0.8984
 5938TIP3    H217779   3.941   4.834   5.835 -0.3952  0.3902  1.4922
 5939TIP3   OH217780   3.769   1.859   1.074  0.6051 -0.0022 -0.6730
 5939TIP3    H117781   3.674   1.850   1.070  0.3289  2.5341 -1.2658
 5939TIP3    H217782   3.794   1.889   0.987  1.5372  2.2262  0.2762
 5940TIP3   OH217783   1.400   5.498   0.759  0.0252 -0.3758 -0.3170
 5940TIP3    H117784   1.470   5.441   0.727  0.8793  1.1457 -1.2318
 5940TIP3    H217785   1.438   5.544   0.834 -0.7267 -1.0929  0.5456
 5941TIP3   OH217786   5.626   1.839   0.534 -0.6924 -0.4106  0.1681
 5941TIP3    H117787   5.690   1.844   0.463 -0.2892 -2.7444  0.3118
 5941TIP3    H217788   5.678   1.845   0.614 -1.2254  3.2156  0.4220
 5942TIP3   OH217789   5.296   0.290   3.373 -0.5136 -0.5232 -0.4924
 5942TIP3    H117790   5.243   0.221   3.413 -0.4390 -0.9389 -1.0878
 5942TIP3    H217791   5.302   0.358   3.440 -0.4871 -1.1450  0.1475
 5943TIP3   OH217792   6.796   3.080   1.744 -0.3540 -0.0196  0.2065
 5943TIP3    H117793   6.759   3.040   1.823 -0.4282 -1.2549 -0.4311
 5943TIP3    H217794   6.769   3.022   1.673 -0.6900  1.3231 -0.8024
 5944TIP3   OH217795   3.427   4.620   2.027 -0.4921 -0.4055 -0.8636
 5944TIP3    H117796   3.416   4.601   1.934 -0.4716 -2.4090 -0.5046
 5944TIP3    H217797   3.338   4.637   2.059 -0.5065  0.2236 -1.2275
 5945TIP3   OH217798   2.957   0.220   1.217 -0.2273 -0.3403 -0.4991
 5945TIP3    H117799   3.005   0.222   1.135  1.0513 -0.2509  0.2220
 5945TIP3    H217800   2.941   0.312   1.238 -0.6204 -0.3658 -0.6811
 5946TIP3   OH217801   5.567   4.444   3.171 -0.1002 -0.2341 -0.4659
 5946TIP3    H117802   5.491   4.396   3.204 -0.2161  0.2104 -0.0720
 5946TIP3    H217803   5.532   4.528   3.143 -0.0331 -0.6881 -1.9641
 5947TIP3   OH217804   5.617   6.197   4.114  0.1742  0.1508  0.0459
 5947TIP3    H117805   5.530   6.203   4.152  0.0720  0.8191 -0.2936
 5947TIP3    H217806   5.609   6.235   4.027  0.9459  0.8352  0.2551
 5948TIP3   OH217807   3.911   3.930   5.636  0.0866 -0.1325 -0.5868
 5948TIP3    H117808   3.937   3.866   5.702  0.8006 -1.2472 -1.8981
 5948TIP3    H217809   3.820   3.906   5.614 -1.2302  2.0346  1.9882
 5949TIP3   OH217810   2.994   4.566   2.370 -0.7473  0.2543  0.5343
 5949TIP3    H117811   3.019   4.503   2.438 -1.1692 -1.2393 -0.6551
 5949TIP3    H217812   2.909   4.600   2.399 -0.7951 -0.1622  0.8920
 5950TIP3   OH217813   1.766   5.326   5.694  0.4199 -0.0215 -0.0832
 5950TIP3    H117814   1.738   5.282   5.613 -1.2391  1.1295 -0.2005
 5950TIP3    H217815   1.817   5.401   5.663 -3.0352  2.4601 -0.4310
 5951TIP3   OH217816   0.732   2.824   1.850  0.1390  0.0790 -0.4741
 5951TIP3    H117817   0.672   2.849   1.780  1.0841 -0.4314 -1.5188
 5951TIP3    H217818   0.796   2.895   1.853  1.8102 -1.2313 -2.2329
 5952TIP3   OH217819   4.347   4.772   0.079 -0.4509  0.2961 -0.0868
 5952TIP3    H117820   4.416   4.730   0.028 -1.0571 -1.1290  0.2171
 5952TIP3    H217821   4.387   4.853   0.111  1.4526 -0.9480  0.9368
 5953TIP3   OH217822   6.278   4.282   0.702  0.0995 -0.5855 -0.0510
 5953TIP3    H117823   6.278   4.187   0.689 -0.0946 -0.5327 -0.4795
 5953TIP3    H217824   6.338   4.297   0.774 -1.3079 -1.2093  1.3216
 5954TIP3   OH217825   3.422   4.947   3.743 -0.1073 -0.0386  0.0741
 5954TIP3    H117826   3.476   4.887   3.794 -1.3045  0.7173  2.3939
 5954TIP3    H217827   3.462   5.033   3.758  0.2034  0.0849 -1.2915
 5955TIP3   OH217828   6.124   5.240   5.591  0.0894  0.0170 -0.1645
 5955TIP3    H117829   6.135   5.200   5.677 -0.5692 -1.1457 -0.5977
 5955TIP3    H217830   6.031   5.262   5.585 -0.1436 -1.1107 -1.0559
 5956TIP3   OH217831   0.263   3.744   5.430  0.0429  0.7927 -0.1938
 5956TIP3    H117832   0.267   3.706   5.343  0.0507 -0.3027  0.2705
 5956TIP3    H217833   0.346   3.721   5.471 -0.8404 -0.6962  0.8784
 5957TIP3   OH217834   1.610   1.089   5.758  0.6331  0.5978  0.4302
 5957TIP3    H117835   1.684   1.029   5.749  0.8976  0.8986  0.5526
 5957TIP3    H217836   1.595   1.121   5.669  0.0252 -0.1837  0.2386
 5958TIP3   OH217837   0.916   5.834   4.416 -0.6330 -0.6462  0.2083
 5958TIP3    H117838   0.940   5.915   4.461  1.5456 -1.2350  0.1720
 5958TIP3    H217839   0.821   5.843   4.401 -0.4206  1.9665 -0.0014
 5959TIP3   OH217840   1.118   4.878   3.638  0.0719  0.6348 -0.1645
 5959TIP3    H117841   1.207   4.891   3.670  1.0284 -1.7210 -1.6577
 5959TIP3    H217842   1.066   4.861   3.717  1.6210 -1.3060  0.4978
 5960TIP3   OH217843   1.388   2.692   5.395 -0.4694  0.4816  0.9643
 5960TIP3    H117844   1.367   2.600   5.406 -1.2389  0.6045  0.5563
 5960TIP3    H217845   1.303   2.737   5.400 -0.0221  1.2517  2.0490
 5961TIP3   OH217846   1.202   4.552   2.671  0.8256 -0.2008 -0.2593
 5961TIP3    H117847   1.290   4.517   2.684  0.9274  0.7102  1.7946
 5961TIP3    H217848   1.150   4.511   2.740  0.1082  0.8276 -0.1801
 5962TIP3   OH217849   0.229   2.669   5.855 -0.4346 -0.3431 -0.4685
 5962TIP3    H117850   0.236   2.677   5.950  0.7867  1.5798 -0.6717
 5962TIP3    H217851   0.255   2.579   5.836  0.3601 -0.4310  0.9323
 5963TIP3   OH217852   3.369   5.010   0.081 -0.4837  0.4843 -0.0224
 5963TIP3    H117853   3.287   5.049   0.111  0.3864  1.2554  1.4766
 5963TIP3    H217854   3.414   5.082   0.036 -0.4396  0.1761 -0.4830
 5964TIP3   OH217855   5.902   0.510   4.379  0.0208 -0.3199 -0.2239
 5964TIP3    H117856   5.872   0.566   4.307  0.6510  0.0649 -0.1935
 5964TIP3    H217857   5.880   0.559   4.458  1.7016  0.5054 -0.2168
 5965TIP3   OH217858   0.656   2.214   2.787 -0.4039 -0.3688 -0.3431
 5965TIP3    H117859   0.745   2.203   2.821  0.0730 -0.2892 -1.5214
 5965TIP3    H217860   0.599   2.181   2.857  0.5292 -0.1040  0.5639
 5966TIP3   OH217861   1.228   5.383   0.363 -0.3770  0.4580 -0.2775
 5966TIP3    H117862   1.269   5.466   0.340  3.3431 -0.9019  0.6191
 5966TIP3    H217863   1.214   5.389   0.458 -1.3525  0.5210 -0.4181
 5967TIP3   OH217864   4.692   3.593   3.997  0.4419 -0.0509 -0.2023
 5967TIP3    H117865   4.685   3.504   3.964  1.0690 -0.4265  0.6491
 5967TIP3    H217866   4.608   3.634   3.974  0.1995 -0.8160 -0.7025
 5968TIP3   OH217867   0.952   4.047   1.341  0.0779  0.3997  0.2938
 5968TIP3    H117868   1.037   4.033   1.300 -0.5734  1.2741 -1.4866
 5968TIP3    H217869   0.910   4.115   1.287 -1.4719  0.5037  1.5292
 5969TIP3   OH217870   2.198   0.929   0.148  0.9332  0.2228  0.0873
 5969TIP3    H117871   2.164   0.982   0.220  1.9597  0.2653  0.5444
 5969TIP3    H217872   2.199   0.840   0.181 -0.7010 -0.1156 -0.6507
 5970TIP3   OH217873   5.697   5.951   5.577 -0.6608 -0.0925  0.3501
 5970TIP3    H117874   5.644   6.004   5.518  1.4831 -0.1554 -1.7679
 5970TIP3    H217875   5.767   5.916   5.522 -0.5444 -3.0938  2.2005
 5971TIP3   OH217876   6.825   4.554   1.934 -0.0433 -0.0589 -0.0456
 5971TIP3    H117877   6.895   4.564   1.998 -1.5759 -0.1081  1.7271
 5971TIP3    H217878   6.855   4.605   1.858  4.0455 -3.8151 -1.3738
 5972TIP3   OH217879   5.659   6.831   3.880 -0.2208 -0.1477 -1.1108
 5972TIP3    H117880   5.737   6.825   3.824 -1.2215 -0.6769 -2.4976
 5972TIP3    H217881   5.646   6.742   3.912 -0.5587 -0.1666 -1.3033
 5973TIP3   OH217882   5.113   5.601   2.449  0.2859  0.0875  0.2528
 5973TIP3    H117883   5.128   5.523   2.396 -0.8421  0.9796 -1.4451
 5973TIP3    H217884   5.182   5.661   2.424  1.3383 -0.4072  1.7825
 5974TIP3   OH217885   5.166   2.401   4.402  0.0896  0.4638 -0.0672
 5974TIP3    H117886   5.225   2.425   4.331  1.6487 -0.2328  0.9305
 5974TIP3    H217887   5.146   2.309   4.385 -0.3259  0.5674 -0.1364
 5975TIP3   OH217888   2.371   4.760   4.273 -0.1694  0.0369  0.1234
 5975TIP3    H117889   2.380   4.666   4.258  1.1543  0.1378  0.2187
 5975TIP3    H217890   2.280   4.770   4.303 -2.4007 -0.4402 -5.3894
 5976TIP3   OH217891   6.614   1.918   5.680 -0.0183 -0.3427 -0.0096
 5976TIP3    H117892   6.710   1.918   5.684 -0.0381  1.0397  0.9821
 5976TIP3    H217893   6.594   1.912   5.586  1.0395 -0.3248 -0.2464
 5977TIP3   OH217894   3.084   5.359   4.291  0.6477  0.3497 -0.9536
 5977TIP3    H117895   3.128   5.430   4.338  1.5914 -0.6763 -0.2457
 5977TIP3    H217896   3.096   5.382   4.199  1.1776  0.9790 -0.7419
 5978TIP3   OH217897   1.959   5.919   4.843 -0.2838 -0.6680 -0.2489
 5978TIP3    H117898   1.909   5.966   4.776  1.6707 -0.4639 -1.6615
 5978TIP3    H217899   2.024   5.982   4.872  3.3634 -2.6437 -3.2166
 5979TIP3   OH217900   5.235   0.113   1.801  0.4913  0.5427  0.1280
 5979TIP3    H117901   5.282   0.030   1.804 -1.5929 -0.8477 -2.0768
 5979TIP3    H217902   5.261   0.152   1.718 -1.9245 -0.1941 -1.0853
 5980TIP3   OH217903   2.062   5.008   2.291 -0.7185  0.2097  0.0190
 5980TIP3    H117904   2.138   4.962   2.325 -1.7202 -0.5225  1.4064
 5980TIP3    H217905   2.069   4.999   2.196  0.4934 -0.5359  0.1535
 5981TIP3   OH217906   4.689   5.801   2.766 -0.1147  0.1862  0.4969
 5981TIP3    H117907   4.710   5.723   2.715 -0.9681  0.2307  0.0520
 5981TIP3    H217908   4.654   5.767   2.848  0.2162  0.1105  0.6093
 5982TIP3   OH217909   0.516   2.160   0.818 -0.4488 -0.5746  0.1671
 5982TIP3    H117910   0.462   2.238   0.819  1.4075  0.8170 -0.9392
 5982TIP3    H217911   0.602   2.190   0.849  0.0996 -2.3649  0.5091
 5983TIP3   OH217912   6.513   2.000   0.258 -0.3681 -0.0075  1.0984
 5983TIP3    H117913   6.445   2.052   0.216 -0.0600 -0.5797 -0.1507
 5983TIP3    H217914   6.464   1.932   0.306 -0.7099  0.4311  1.3842
 5984TIP3   OH217915   3.510   2.498   3.903 -0.1178  0.4106 -0.3667
 5984TIP3    H117916   3.508   2.408   3.872 -0.4089  0.1865  0.2740
 5984TIP3    H217917   3.600   2.511   3.935 -0.4046 -0.0576  0.6687
 5985TIP3   OH217918   1.743   4.797   0.754  0.4637 -0.0135 -0.2491
 5985TIP3    H117919   1.665   4.793   0.698  0.5258  0.0286 -0.3382
 5985TIP3    H217920   1.813   4.825   0.696  0.3054  1.1292  0.0769
 5986TIP3   OH217921   4.963   0.555   2.257  0.1330  0.1920  0.1132
 5986TIP3    H117922   4.903   0.496   2.303  1.8914 -0.6490  1.4394
 5986TIP3    H217923   4.919   0.640   2.262 -1.5561 -0.6056 -0.1411
 5987TIP3   OH217924   4.843   4.658   3.007  0.3313  0.5927 -0.4759
 5987TIP3    H117925   4.817   4.750   3.005  1.9505  1.0777 -1.8034
 5987TIP3    H217926   4.831   4.627   2.917  0.2798 -0.3531 -0.1574
 5988TIP3   OH217927   2.777   6.628   5.793 -1.1172 -0.0393  0.1569
 5988TIP3    H117928   2.746   6.716   5.771  0.4791  0.6446  0.4872
 5988TIP3    H217929   2.741   6.611   5.880 -0.8942  0.5816  0.3779
 5989TIP3   OH217930   4.579   3.427   2.158  0.1624  0.4910 -0.2412
 5989TIP3    H117931   4.511   3.388   2.104  0.2070  0.5251 -0.3208
 5989TIP3    H217932   4.595   3.513   2.119 -0.2464  0.7712  0.1871
 5990TIP3   OH217933   2.572   3.153   5.529 -0.0511 -0.2751  0.0071
 5990TIP3    H117934   2.533   3.119   5.610 -1.6475  2.2562  0.4193
 5990TIP3    H217935   2.650   3.200   5.558 -1.7633  2.5189  0.5605
 5991TIP3   OH217936   5.287   5.743   1.772 -0.1456  0.0581  0.1321
 5991TIP3    H117937   5.301   5.815   1.710  0.6495  0.6262  0.9395
 5991TIP3    H217938   5.230   5.781   1.839 -0.6443 -0.4183 -0.0186
 5992TIP3   OH217939   0.111   2.018   1.799  0.0774  0.7767  0.0523
 5992TIP3    H117940   0.091   2.051   1.887  0.1543 -0.5572  0.6036
 5992TIP3    H217941   0.182   2.073   1.768 -1.2421  2.5330  0.0139
 5993TIP3   OH217942   4.569   3.506   5.067  0.1000 -0.4244  0.0222
 5993TIP3    H117943   4.543   3.427   5.020  0.5920  0.1417 -1.2495
 5993TIP3    H217944   4.655   3.527   5.032  0.3126  0.2471  0.9180
 5994TIP3   OH217945   7.228   5.560   2.853  0.1433  0.5138  0.3531
 5994TIP3    H117946   7.190   5.472   2.852  0.4580  0.3388  1.6014
 5994TIP3    H217947   7.153   5.619   2.853 -0.1160  0.1994  1.1368
 5995TIP3   OH217948   3.055   4.535   4.795  0.0648  0.6652 -0.3965
 5995TIP3    H117949   3.093   4.447   4.805  0.4263  0.8726  0.0766
 5995TIP3    H217950   2.990   4.542   4.865  0.6332  1.0805  0.1041
 5996TIP3   OH217951   2.385   2.685   0.671  0.2955 -0.2148  0.6461
 5996TIP3    H117952   2.328   2.741   0.724 -0.3479  0.2421 -0.4895
 5996TIP3    H217953   2.335   2.669   0.590  1.2295 -0.9181  0.1842
 5997TIP3   OH217954   1.183   1.987   4.572 -0.0601 -0.1282 -0.1218
 5997TIP3    H117955   1.224   1.995   4.486  0.3782  1.3513  0.1962
 5997TIP3    H217956   1.103   2.039   4.565  0.1812  0.3334  0.4665
 5998TIP3   OH217957   2.907   2.500   0.569  0.5115 -0.3448 -0.6349
 5998TIP3    H117958   2.863   2.585   0.574 -0.0369 -0.5780 -1.2810
 5998TIP3    H217959   3.000   2.521   0.558  0.6065  0.1544  0.8832
 5999TIP3   OH217960   5.211   3.921   1.748 -0.3923 -0.3286  0.1521
 5999TIP3    H117961   5.248   3.844   1.704 -1.2622 -0.4989 -0.2985
 5999TIP3    H217962   5.284   3.957   1.797  1.0454  0.7018 -2.5223
 6000TIP3   OH217963   5.853   0.615   0.034  0.2051 -0.0366  0.1896
 6000TIP3    H117964   5.822   0.531   0.001  1.1585 -0.1402 -0.5080
 6000TIP3    H217965   5.947   0.603   0.045  0.3420  0.9033  0.1617
 6001TIP3   OH217966   6.826   5.863   5.400  0.0404  0.3066  0.2865
 6001TIP3    H117967   6.753   5.888   5.457 -0.3870 -0.2539  0.0013
 6001TIP3    H217968   6.784   5.830   5.321  0.6300  2.3725 -0.9436
 6002TIP3   OH217969   4.787   4.548   2.750  0.2354 -0.3144  0.3029
 6002TIP3    H117970   4.740   4.561   2.668 -0.7707 -0.4759  0.8394
 6002TIP3    H217971   4.816   4.457   2.747  0.5885 -0.1940 -0.0591
 6003TIP3   OH217972   0.858   5.451   1.749  0.2671 -0.3462  0.4770
 6003TIP3    H117973   0.773   5.478   1.783 -0.3902 -0.6765 -0.8568
 6003TIP3    H217974   0.861   5.356   1.764 -1.2402 -1.0270 -2.7738
 6004TIP3   OH217975   1.287   3.160   3.940 -0.2561 -0.3663  0.0230
 6004TIP3    H117976   1.301   3.066   3.953  0.0407 -0.1800  1.1625
 6004TIP3    H217977   1.369   3.201   3.969 -0.1860  0.2203 -0.9540
 6005TIP3   OH217978   6.143   5.247   5.001  0.1463 -0.0928 -0.1401
 6005TIP3    H117979   6.073   5.296   4.957  2.1529  0.7418 -2.6440
 6005TIP3    H217980   6.135   5.158   4.967 -2.8120 -1.5340  3.5866
 6006TIP3   OH217981   3.453   5.345   5.013  0.8650 -0.2751  0.4567
 6006TIP3    H117982   3.534   5.354   5.063 -0.5096  1.0986  2.5862
 6006TIP3    H217983   3.424   5.256   5.031  2.9115 -1.6199 -2.1352
 6007TIP3   OH217984   0.038   2.784   4.425  0.3915 -0.2152 -0.4628
 6007TIP3    H117985   0.029   2.846   4.352 -1.4117  0.5569  0.3619
 6007TIP3    H217986   0.120   2.811   4.468 -1.1133  2.7785  0.8444
 6008TIP3   OH217987   5.704   0.778   4.443  0.3222 -0.3276  0.0315
 6008TIP3    H117988   5.633   0.837   4.468 -0.0447  0.0782 -1.8176
 6008TIP3    H217989   5.760   0.831   4.385  0.8253 -1.3380 -0.4309
 6009TIP3   OH217990   3.740   2.846   0.720 -0.6747 -0.1840 -0.3056
 6009TIP3    H117991   3.742   2.883   0.808 -0.9995  0.0901 -0.4106
 6009TIP3    H217992   3.715   2.919   0.664  0.4331 -0.1313 -0.7486
 6010TIP3   OH217993   3.239   1.781   2.668  0.7678  0.1679  0.3663
 6010TIP3    H117994   3.245   1.857   2.725 -0.3283 -0.8574  1.9306
 6010TIP3    H217995   3.148   1.752   2.676  1.6396 -2.6081  1.6277
 6011TIP3   OH217996   1.386   5.416   2.857 -0.1585  1.0441  0.2418
 6011TIP3    H117997   1.345   5.452   2.935 -1.2331 -1.1044  0.7440
 6011TIP3    H217998   1.440   5.344   2.889 -0.5452  0.1808 -0.9697
 6012TIP3   OH217999   1.865   0.405   2.911  0.2215 -0.3473  0.3429
 6012TIP3    H118000   1.793   0.417   2.973 -1.8581  1.6148 -2.1926
 6012TIP3    H218001   1.935   0.461   2.945 -0.2703 -0.4993  1.6863
 6013TIP3   OH218002   5.298   6.175   5.598  0.3694  0.5248  1.0133
 6013TIP3    H118003   5.237   6.165   5.525  0.2385 -0.6274  1.2711
 6013TIP3    H218004   5.270   6.256   5.641 -1.1232 -0.0870  1.2488
 6014TIP3   OH218005   5.419   4.868   5.429  0.0357  0.2484 -0.0337
 6014TIP3    H118006   5.473   4.937   5.391 -0.6028 -0.0453 -1.5580
 6014TIP3    H218007   5.480   4.815   5.480  1.0416  0.3836 -1.0590
 6015TIP3   OH218008   0.378   0.901   3.369 -0.1482 -0.7511  0.7890
 6015TIP3    H118009   0.469   0.924   3.390 -0.2365  1.6672 -0.9944
 6015TIP3    H218010   0.386   0.834   3.301  0.2261 -1.9749  1.9973
 6016TIP3   OH218011   1.605   6.798   0.660 -0.2687  0.1969 -0.8107
 6016TIP3    H118012   1.588   6.718   0.610  0.9592 -0.9268  0.4796
 6016TIP3    H218013   1.677   6.775   0.718  0.3652  2.3757 -0.6483
 6017TIP3   OH218014   7.197   2.482   1.035 -0.1084 -0.4885  0.4002
 6017TIP3    H118015   7.198   2.422   0.960  0.8750 -0.4620  0.3867
 6017TIP3    H218016   7.151   2.559   1.004 -0.2803 -0.7364  0.0338
 6018TIP3   OH218017   1.973   4.695   5.306 -0.1206 -0.4185 -0.0570
 6018TIP3    H118018   2.056   4.683   5.260 -0.6301  0.2700 -1.2133
 6018TIP3    H218019   1.911   4.640   5.258 -0.8399  0.9448 -0.7515
 6019TIP3   OH218020   1.530   3.807   3.354  0.0169  0.0914  0.2386
 6019TIP3    H118021   1.450   3.805   3.302 -0.0323  0.5924  0.2910
 6019TIP3    H218022   1.544   3.716   3.380 -0.4476 -0.0241  0.0944
 6020TIP3   OH218023   5.736   4.702   0.887 -0.5953 -0.5116  0.3920
 6020TIP3    H118024   5.661   4.727   0.942 -0.9402 -0.2864 -0.1767
 6020TIP3    H218025   5.717   4.740   0.801 -0.0147 -0.7856  0.1378
 6021TIP3   OH218026   3.435   0.489   3.479 -0.2615  0.1626  0.4055
 6021TIP3    H118027   3.351   0.483   3.525 -0.4678 -1.6729 -0.1275
 6021TIP3    H218028   3.411   0.493   3.386  0.2305  0.1582  0.2772
 6022TIP3   OH218029   2.458   6.797   5.575 -0.0697 -0.4616  0.1286
 6022TIP3    H118030   2.364   6.781   5.581  0.0118 -1.9268 -1.8105
 6022TIP3    H218031   2.475   6.812   5.482  1.6113 -0.0754  0.4607
 6023TIP3   OH218032   0.037   4.106   3.732  0.0635 -0.1332 -0.4501
 6023TIP3    H118033   0.046   4.168   3.659  0.4943 -0.8415 -1.0113
 6023TIP3    H218034   0.125   4.102   3.771  0.2386 -0.9867 -0.9165
 6024TIP3   OH218035   7.116   0.889   4.525  0.0379 -0.2933 -0.2146
 6024TIP3    H118036   7.077   0.810   4.488 -1.4550  1.7792 -3.5017
 6024TIP3    H218037   7.055   0.917   4.594 -0.3358 -1.0451 -0.2345
 6025TIP3   OH218038   6.940   6.599   2.639  0.4125 -0.2934  0.3987
 6025TIP3    H118039   6.911   6.605   2.730  0.4036 -0.0837  0.3820
 6025TIP3    H218040   6.869   6.551   2.595  0.1383  0.1185  0.3829
 6026TIP3   OH218041   3.035   1.444   1.077 -0.1222 -0.4473  0.2748
 6026TIP3    H118042   3.064   1.471   0.990 -0.7133  0.8201  0.4448
 6026TIP3    H218043   3.092   1.370   1.100  0.7505 -0.1158 -0.7463
 6027TIP3   OH218044   5.285   4.547   2.681 -0.2853  0.1803  0.2821
 6027TIP3    H118045   5.286   4.515   2.590 -1.5605  1.4895 -0.2453
 6027TIP3    H218046   5.239   4.479   2.730 -0.6781  0.0011 -0.3185
 6028TIP3   OH218047   2.094   2.163   1.313  0.3430  0.5143 -0.0394
 6028TIP3    H118048   2.071   2.249   1.278 -0.9247 -0.3723 -1.5229
 6028TIP3    H218049   2.161   2.129   1.253  0.5348  0.2869  0.2970
 6029TIP3   OH218050   3.985   6.087   0.784 -0.0208 -0.1882 -0.5669
 6029TIP3    H118051   3.961   6.110   0.873  0.4209  3.2551 -1.1927
 6029TIP3    H218052   4.078   6.106   0.778 -0.3297  1.1231 -2.0913
 6030TIP3   OH218053   3.710   3.538   2.685 -0.3366 -0.1948 -0.5197
 6030TIP3    H118054   3.692   3.593   2.608 -2.0805  1.3523  0.8967
 6030TIP3    H218055   3.753   3.597   2.747  1.2057 -1.4675 -0.3245
 6031TIP3   OH218056   2.869   5.508   3.654  0.4668 -0.4009  0.4401
 6031TIP3    H118057   2.814   5.450   3.601 -2.3215  1.2803  1.2662
 6031TIP3    H218058   2.861   5.473   3.743  0.3117  0.1564  0.6476
 6032TIP3   OH218059   3.745   4.891   3.204 -0.4736  0.0622 -0.3260
 6032TIP3    H118060   3.794   4.819   3.244 -0.1422  1.0261  1.0719
 6032TIP3    H218061   3.813   4.952   3.174 -0.7642  0.9720  0.7973
 6033TIP3   OH218062   2.530   2.155   5.140 -0.0109  0.4736  0.1397
 6033TIP3    H118063   2.481   2.149   5.058 -2.8933 -2.8489  1.8670
 6033TIP3    H218064   2.608   2.101   5.125  1.1640  2.3766 -1.2332
 6034TIP3   OH218065   1.675   5.785   4.140  0.0334 -0.0449  0.5901
 6034TIP3    H118066   1.672   5.722   4.068 -0.2389 -2.1194  2.3140
 6034TIP3    H218067   1.636   5.864   4.103 -0.2715 -1.0741 -1.4794
 6035TIP3   OH218068   2.656   0.773   4.049 -0.7994 -0.1537 -0.5433
 6035TIP3    H118069   2.721   0.759   4.118 -1.0702 -0.4569 -0.3481
 6035TIP3    H218070   2.692   0.844   3.996 -0.5409  0.0123 -0.1480
 6036TIP3   OH218071   1.964   3.229   5.351 -0.0009  0.4438  0.0339
 6036TIP3    H118072   1.896   3.281   5.394 -0.1420  1.7344 -1.6385
 6036TIP3    H218073   2.037   3.230   5.412 -1.4924 -1.1805  1.9842
 6037TIP3   OH218074   5.531   0.497   2.108  0.2670 -0.2051 -0.3303
 6037TIP3    H118075   5.531   0.566   2.042 -0.9220 -0.4465 -0.6056
 6037TIP3    H218076   5.620   0.497   2.143  0.1030  2.0223  0.2642
 6038TIP3   OH218077   2.750   3.645   2.610  0.2686 -0.0472 -0.1021
 6038TIP3    H118078   2.803   3.709   2.561  0.5653 -0.1901  0.0319
 6038TIP3    H218079   2.660   3.661   2.580  0.3728  0.2650 -0.2559
 6039TIP3   OH218080   0.796   5.114   0.418  0.2476 -0.0766 -0.5499
 6039TIP3    H118081   0.741   5.089   0.493  0.5113  0.3717 -0.2087
 6039TIP3    H218082   0.764   5.058   0.347 -0.1266 -0.3800 -0.1547
 6040TIP3   OH218083   3.100   3.236   3.162 -0.0744  0.4148 -0.1496
 6040TIP3    H118084   3.033   3.243   3.094 -0.9895 -0.1103  0.6693
 6040TIP3    H218085   3.141   3.322   3.164 -2.3289  1.5559  0.9255
 6041TIP3   OH218086   4.999   5.703   3.704 -0.3810  0.3406 -0.2564
 6041TIP3    H118087   5.035   5.616   3.689  1.1820  0.8767  0.2704
 6041TIP3    H218088   4.957   5.725   3.621  2.3507  0.5309 -1.7069
 6042TIP3   OH218089   5.745   0.017   1.805 -0.4753 -0.0207 -0.7349
 6042TIP3    H118090   5.696  -0.024   1.877 -0.5712  0.1666 -0.6930
 6042TIP3    H218091   5.822   0.055   1.847 -0.2513 -0.3833 -0.8125
 6043TIP3   OH218092   1.155   5.279   5.795 -0.3893  0.2951 -0.8454
 6043TIP3    H118093   1.232   5.248   5.843 -1.6856 -0.1296  1.0540
 6043TIP3    H218094   1.085   5.218   5.819 -1.1558  0.1631 -3.1930
 6044TIP3   OH218095   5.263   6.039   1.858 -0.1236  0.6622 -0.4189
 6044TIP3    H118096   5.283   5.995   1.940 -0.5616  0.6171 -0.3320
 6044TIP3    H218097   5.172   6.066   1.867 -0.4308 -0.0445 -1.1882
 6045TIP3   OH218098   6.215   2.498   2.618  0.0773  0.2227  0.0729
 6045TIP3    H118099   6.222   2.503   2.713 -0.0761  1.3112  0.0371
 6045TIP3    H218100   6.130   2.457   2.602  0.2333 -0.2347  0.3965
 6046TIP3   OH218101   5.321   4.251   3.866 -0.6028  0.1693 -0.0089
 6046TIP3    H118102   5.302   4.236   3.959  2.2824  0.2906  0.6740
 6046TIP3    H218103   5.375   4.176   3.841  0.2502  1.1066 -1.0509
 6047TIP3   OH218104   7.057   1.287   1.895 -0.0263  0.4404 -0.1937
 6047TIP3    H118105   7.075   1.286   1.989  0.5724  0.1434 -0.3090
 6047TIP3    H218106   7.113   1.357   1.860 -1.9864  2.2168 -0.0085
 6048TIP3   OH218107   5.173   2.253   1.734  0.1300 -0.5401 -0.2008
 6048TIP3    H118108   5.152   2.259   1.641  0.4069  0.4408 -0.2088
 6048TIP3    H218109   5.096   2.211   1.773 -0.5711  0.2748 -0.6724
 6049TIP3   OH218110   0.167   3.413   4.874  0.1148 -0.0939  0.4013
 6049TIP3    H118111   0.170   3.319   4.892  0.7913 -0.0034  0.7967
 6049TIP3    H218112   0.089   3.444   4.918  0.1445 -0.3936  0.6635
 6050TIP3   OH218113   5.345   6.149   3.012 -0.1415 -0.2488  0.0920
 6050TIP3    H118114   5.365   6.151   3.105 -0.1026 -0.2343  0.0837
 6050TIP3    H218115   5.283   6.220   2.999  0.4373  0.2469 -0.0248
 6051TIP3   OH218116   2.022   6.498   1.681  0.1618  0.0203  0.2241
 6051TIP3    H118117   2.076   6.494   1.603  0.5189 -1.5800  0.5198
 6051TIP3    H218118   2.029   6.589   1.711 -1.0773  1.0365 -2.3190
 6052TIP3   OH218119   5.222   4.868   5.665 -0.3442 -0.5701 -0.3902
 6052TIP3    H118120   5.260   4.942   5.618 -2.5880 -1.0435 -3.2077
 6052TIP3    H218121   5.165   4.909   5.731  0.4676  0.1592 -0.1187
 6053TIP3   OH218122   0.188   3.224   0.898 -0.2906  0.1630  0.2281
 6053TIP3    H118123   0.108   3.173   0.899  0.3116 -0.9112  3.4817
 6053TIP3    H218124   0.228   3.204   0.813 -2.7131 -0.3724 -0.8742
 6054TIP3   OH218125   3.676   0.650   3.526 -0.5174  0.0344 -0.4688
 6054TIP3    H118126   3.607   0.586   3.507 -0.7124 -0.4151  1.5373
 6054TIP3    H218127   3.659   0.722   3.465 -1.2716 -1.1104 -1.6737
 6055TIP3   OH218128   1.363   2.619   0.976 -0.1693 -0.4163 -0.0552
 6055TIP3    H118129   1.443   2.582   0.940  0.6613 -0.4984  1.7753
 6055TIP3    H218130   1.295   2.554   0.957 -0.2183  0.3872 -3.0889
 6056TIP3   OH218131   1.510   1.718   0.260 -0.4507 -0.0319 -0.5053
 6056TIP3    H118132   1.431   1.664   0.251  0.3593 -1.0948 -1.8608
 6056TIP3    H218133   1.483   1.793   0.311 -1.9571 -1.1279  0.3944
 6057TIP3   OH218134   4.776   4.345   1.551 -0.0415  0.5857 -0.5213
 6057TIP3    H118135   4.742   4.396   1.477 -0.5476  0.0536 -0.6613
 6057TIP3    H218136   4.804   4.411   1.614 -4.2907  1.2110  1.0354
 6058TIP3   OH218137   4.996   4.793   0.932 -0.3370  0.1469 -0.3561
 6058TIP3    H118138   5.085   4.816   0.958 -0.3980  0.0709 -0.0774
 6058TIP3    H218139   4.962   4.872   0.891  0.0861 -0.0275 -1.0784
 6059TIP3   OH218140   1.597   1.176   4.989 -0.1906 -0.1423 -0.0146
 6059TIP3    H118141   1.596   1.172   5.084 -0.5762 -2.9002 -0.0434
 6059TIP3    H218142   1.517   1.222   4.965  0.1959  1.0878  0.9627
 6060TIP3   OH218143   3.805   4.610   4.651  0.0045  0.1536 -0.3279
 6060TIP3    H118144   3.888   4.617   4.603  0.2917 -2.4491 -0.3596
 6060TIP3    H218145   3.755   4.687   4.624  1.5435  0.6382 -2.0261
 6061TIP3   OH218146   4.922   6.564   4.079 -0.0349  0.6435  0.1832
 6061TIP3    H118147   4.994   6.508   4.108 -0.9196 -0.2180  0.7907
 6061TIP3    H218148   4.871   6.581   4.158 -1.5823 -0.3951 -0.5241
 6062TIP3   OH218149   0.445   6.296   0.306  0.3653  0.2335 -0.2015
 6062TIP3    H118150   0.425   6.372   0.359 -2.1766 -0.7797  0.4416
 6062TIP3    H218151   0.415   6.221   0.358  0.1242 -0.9899 -1.9711
 6063TIP3   OH218152   3.894   6.114   5.230  0.4595 -0.2675  0.3426
 6063TIP3    H118153   3.973   6.161   5.257 -0.3080  0.5267  1.3045
 6063TIP3    H218154   3.828   6.183   5.219 -0.5024 -1.0459  1.0697
 6064TIP3   OH218155   5.800   3.034   3.953 -0.1422  0.0646 -0.1032
 6064TIP3    H118156   5.708   3.042   3.979  0.0815 -0.3068  0.8568
 6064TIP3    H218157   5.824   3.121   3.922 -0.6434  0.3241  0.2184
 6065TIP3   OH218158   2.720   5.179   0.389  0.0399 -0.7240 -0.3669
 6065TIP3    H118159   2.655   5.233   0.435  0.3430 -1.1830  0.6433
 6065TIP3    H218160   2.713   5.093   0.431  0.9988 -0.8917 -0.5280
 6066TIP3   OH218161   6.928   2.404   1.096  0.0076  0.1525  0.1490
 6066TIP3    H118162   6.901   2.365   1.178 -0.9363 -0.9391 -0.6493
 6066TIP3    H218163   7.022   2.417   1.105 -0.0959  0.1327  1.4153
 6067TIP3   OH218164   4.043   0.751   1.739  0.2757 -0.2548  0.1055
 6067TIP3    H118165   3.987   0.798   1.678  1.6541 -0.5934 -1.4922
 6067TIP3    H218166   4.107   0.815   1.769 -0.6592  0.0265  1.6053
 6068TIP3   OH218167   6.789   2.697   2.930 -0.4598  0.1331  0.3010
 6068TIP3    H118168   6.713   2.639   2.933 -0.1803 -0.2413  0.2997
 6068TIP3    H218169   6.774   2.761   2.999 -0.1881 -0.6882  1.1497
 6069TIP3   OH218170   6.959   4.741   4.674 -0.3489 -0.2010  0.1166
 6069TIP3    H118171   6.923   4.752   4.586 -1.7888 -0.2409  0.6710
 6069TIP3    H218172   6.966   4.646   4.686  3.5888 -0.2958 -1.3424
 6070TIP3   OH218173   2.343   2.684   1.134 -0.5182 -0.5556  0.5157
 6070TIP3    H118174   2.384   2.601   1.159 -0.0508  0.3147  2.9195
 6070TIP3    H218175   2.398   2.717   1.063  1.3494 -0.7426  1.7953
 6071TIP3   OH218176   5.443   0.831   5.577  0.7477  0.5266  0.2861
 6071TIP3    H118177   5.523   0.882   5.559  0.4725  0.9772  0.3288
 6071TIP3    H218178   5.400   0.878   5.647 -0.8849  1.8064 -1.4636
 6072TIP3   OH218179   2.187   4.920   1.159  0.6064 -0.0694  0.3573
 6072TIP3    H118180   2.169   4.988   1.094  4.6857  1.4656  0.5218
 6072TIP3    H218181   2.240   4.964   1.225  0.3539 -2.6344  2.3982
 6073TIP3   OH218182   5.623   2.977   0.049  0.4323 -0.0926 -0.1070
 6073TIP3    H118183   5.670   2.904   0.089 -0.9514  0.9102  3.7600
 6073TIP3    H218184   5.659   3.055   0.091 -0.5001  1.1872 -1.5619
 6074TIP3   OH218185   0.225   0.859   1.907  0.7025 -0.5612  0.0855
 6074TIP3    H118186   0.219   0.800   1.982 -0.8548  0.8286  1.1293
 6074TIP3    H218187   0.313   0.843   1.871  0.7173 -2.7416  0.9062
 6075TIP3   OH218188   3.550   3.056   1.643  0.2165 -0.3250 -0.0454
 6075TIP3    H118189   3.562   2.969   1.682 -0.9781 -0.7059 -0.4837
 6075TIP3    H218190   3.523   3.038   1.553 -1.3875  0.4715  0.2562
 6076TIP3   OH218191   4.025   5.471   3.440  0.1149 -0.3557  0.4595
 6076TIP3    H118192   4.109   5.429   3.423  1.0031  1.2132  0.8025
 6076TIP3    H218193   3.994   5.498   3.353  1.0668  1.0272  0.5119
 6077TIP3   OH218194   4.070   2.329   2.482  0.0164  0.1421 -0.1405
 6077TIP3    H118195   4.142   2.269   2.463  0.9275  1.3441 -0.6104
 6077TIP3    H218196   4.032   2.349   2.397 -0.4339  0.0790  0.0381
 6078TIP3   OH218197   4.371   4.776   5.318 -0.0938  0.2443 -0.5655
 6078TIP3    H118198   4.341   4.845   5.378 -0.4147 -0.4066  0.0398
 6078TIP3    H218199   4.323   4.698   5.345  1.3947 -0.5938 -0.2270
 6079TIP3   OH218200   0.034   3.398   1.566 -0.2680 -0.1013 -0.9211
 6079TIP3    H118201   0.040   3.473   1.625 -1.6521  0.5062 -1.5074
 6079TIP3    H218202   0.122   3.389   1.529 -0.5305  2.6241 -2.4882
 6080TIP3   OH218203   5.686   4.287   1.382  0.5360  0.0847  0.6552
 6080TIP3    H118204   5.743   4.236   1.324  0.7764  1.5178 -0.4104
 6080TIP3    H218205   5.623   4.223   1.415  2.8423 -1.6195  2.0809
 6081TIP3   OH218206   6.199   0.982   1.164 -0.7148 -0.4829 -0.2884
 6081TIP3    H118207   6.207   0.919   1.235  1.2428 -0.5221 -0.4909
 6081TIP3    H218208   6.251   0.944   1.093  0.0447  1.0830 -0.6056
 6082TIP3   OH218209   5.276   6.672   3.050 -0.1055 -0.1479  0.4483
 6082TIP3    H118210   5.224   6.652   3.128 -0.1205  1.3631  0.8611
 6082TIP3    H218211   5.365   6.680   3.083 -0.0730  0.2334  0.2605
 6083TIP3   OH218212   5.753   0.233   3.577 -0.4676  0.1342  0.2317
 6083TIP3    H118213   5.676   0.188   3.613 -0.8859  1.9669  1.8009
 6083TIP3    H218214   5.718   0.289   3.508 -0.6831  1.3426  1.2765
 6084TIP3   OH218215   3.289   3.170   1.967 -0.3922  0.0285 -0.5937
 6084TIP3    H118216   3.315   3.239   1.906  0.1829  0.0117 -0.3682
 6084TIP3    H218217   3.370   3.143   2.009 -0.6803 -0.4766 -0.3550
 6085TIP3   OH218218   6.569   3.352   2.807  0.4913  0.1234 -0.3088
 6085TIP3    H118219   6.482   3.347   2.846  0.0340 -0.3164 -1.3332
 6085TIP3    H218220   6.555   3.394   2.722  0.9444 -1.7251 -1.3593
 6086TIP3   OH218221   2.121   5.705   4.811  0.3590  0.6476 -0.4556
 6086TIP3    H118222   2.208   5.733   4.838  0.1315 -0.4025  1.5088
 6086TIP3    H218223   2.062   5.774   4.841  0.3907  0.8772 -0.9045
 6087TIP3   OH218224   6.002   4.701   5.128 -0.3084  0.3874  0.1213
 6087TIP3    H118225   5.944   4.656   5.067  0.2391  1.1813 -1.0174
 6087TIP3    H218226   5.979   4.793   5.120  0.0017  0.5378  0.8761
 6088TIP3   OH218227   0.237   0.697   0.546 -0.6369  0.2073  0.2872
 6088TIP3    H118228   0.209   0.788   0.532  1.2630  0.9445  0.9662
 6088TIP3    H218229   0.172   0.645   0.499 -1.7079  1.9143 -0.2312
 6089TIP3   OH218230   2.304   5.709   2.417 -0.5726  0.3213  0.7373
 6089TIP3    H118231   2.376   5.708   2.480  0.4211  2.7805 -0.2156
 6089TIP3    H218232   2.226   5.728   2.469 -0.1823 -0.2355  1.5297
 6090TIP3   OH218233   1.926   5.354   0.229 -0.9552  0.2153 -0.2621
 6090TIP3    H118234   1.865   5.295   0.186 -1.2022 -0.1287  0.5433
 6090TIP3    H218235   1.870   5.422   0.268 -0.6594  1.1462 -1.4037
 6091TIP3   OH218236   1.710   6.707   2.124 -0.2212 -0.1016 -0.3751
 6091TIP3    H118237   1.785   6.648   2.119  0.4546  0.8213 -3.5141
 6091TIP3    H218238   1.699   6.725   2.217  3.2428 -0.5124  0.2255
 6092TIP3   OH218239   4.188   3.503   1.140  0.4696 -0.1242 -0.0390
 6092TIP3    H118240   4.206   3.415   1.108  1.6255  1.0242 -2.8239
 6092TIP3    H218241   4.093   3.506   1.148  0.4205 -1.6684  0.3454
 6093TIP3   OH218242   3.093   4.607   4.310  0.3821  0.1624 -0.1276
 6093TIP3    H118243   3.066   4.525   4.267 -1.3028  1.2475 -1.2938
 6093TIP3    H218244   3.178   4.587   4.349  0.8873 -1.6214 -1.9493
 6094TIP3   OH218245   4.233   0.285   4.649  0.4886 -0.4153 -0.0358
 6094TIP3    H118246   4.246   0.191   4.657  0.0702 -0.6811 -1.8772
 6094TIP3    H218247   4.303   0.324   4.701  0.4352 -1.7237  1.0700
 6095TIP3   OH218248   2.096   2.952   1.119 -0.0322  0.2446 -0.0508
 6095TIP3    H118249   2.132   2.922   1.202 -0.1090 -0.3305 -0.2248
 6095TIP3    H218250   2.013   2.994   1.143 -0.8583 -1.3631 -0.0017
 6096TIP3   OH218251   2.990   5.439   5.481 -0.1598  0.0707 -0.0518
 6096TIP3    H118252   2.954   5.402   5.401 -1.9352  0.5851  0.4621
 6096TIP3    H218253   2.982   5.368   5.546  2.0443 -0.6395 -0.4590
 6097TIP3   OH218254   2.538   3.524   4.524 -0.0733  0.3986  0.3636
 6097TIP3    H118255   2.578   3.570   4.598 -0.5475  0.4085  0.6172
 6097TIP3    H218256   2.463   3.480   4.561  0.3501 -0.5548  0.1114
 6098TIP3   OH218257   0.752   0.476   5.804 -1.0287  0.5582 -0.0302
 6098TIP3    H118258   0.768   0.384   5.784 -1.1056  0.6382 -0.4667
 6098TIP3    H218259   0.779   0.485   5.896  2.0348  0.8276 -0.8656
 6099TIP3   OH218260   6.990   3.643   2.560 -0.0034  0.1924 -0.1197
 6099TIP3    H118261   7.078   3.641   2.521  0.0586  0.9909 -0.0432
 6099TIP3    H218262   7.000   3.595   2.643  0.7763  1.6152  0.6670
 6100TIP3   OH218263   0.626   6.136   0.165  0.1388  0.0032 -0.6984
 6100TIP3    H118264   0.608   6.060   0.220  0.1556 -0.8474 -1.8284
 6100TIP3    H218265   0.570   6.205   0.200 -0.0017 -0.5748  0.2443
 6101TIP3   OH218266   2.907   4.773   0.035  0.3260  0.4493  1.0927
 6101TIP3    H118267   2.921   4.835  -0.036  0.8338 -0.6804  0.1790
 6101TIP3    H218268   2.969   4.702   0.018 -0.3076 -0.3715  2.0557
 6102TIP3   OH218269   0.756   1.861   1.741 -0.0054 -0.1707 -0.0386
 6102TIP3    H118270   0.719   1.854   1.653 -2.5413  2.3342  0.6790
 6102TIP3    H218271   0.846   1.890   1.726 -0.3124  0.0294 -1.8197
 6103TIP3   OH218272   5.892   5.828   4.817  0.0783  0.8459  0.1157
 6103TIP3    H118273   5.974   5.873   4.799  0.1962 -0.4036 -3.0584
 6103TIP3    H218274   5.832   5.855   4.747 -0.8448 -1.3736 -0.0648
 6104TIP3   OH218275   3.355   5.661   3.058  0.4093  0.1160 -0.0339
 6104TIP3    H118276   3.398   5.595   3.111  0.7189 -0.0967 -0.5392
 6104TIP3    H218277   3.380   5.745   3.098  0.0605 -0.0637  0.5718
 6105TIP3   OH218278   6.930   5.062   2.338 -0.3978 -0.0152  0.5464
 6105TIP3    H118279   6.963   5.088   2.424 -0.7987  0.3635  0.5930
 6105TIP3    H218280   6.867   5.131   2.315 -1.0170 -0.6240  0.3860
 6106TIP3   OH218281   6.579   4.281   1.418  0.4901 -0.4466 -0.2740
 6106TIP3    H118282   6.601   4.189   1.427  0.6060 -0.5203 -1.1378
 6106TIP3    H218283   6.566   4.293   1.324  0.8043  0.4843 -0.2173
 6107TIP3   OH218284   3.881   0.886   5.685  1.0381 -0.0397 -0.1940
 6107TIP3    H118285   3.851   0.831   5.756  0.9755 -1.0942 -1.0117
 6107TIP3    H218286   3.970   0.911   5.709  0.1803  1.6886  1.4220
 6108TIP3   OH218287   5.633   1.321   1.134  0.4517  0.5108 -0.3260
 6108TIP3    H118288   5.619   1.414   1.114 -2.5898  0.3054  0.4081
 6108TIP3    H218289   5.615   1.314   1.227 -0.1214 -0.9461 -0.5246
 6109TIP3   OH218290   6.595   0.891   3.578  0.5782  0.3517  0.1111
 6109TIP3    H118291   6.550   0.919   3.658 -0.8461 -0.0738 -0.5130
 6109TIP3    H218292   6.627   0.973   3.539 -2.0966  1.0384 -0.8412
 6110TIP3   OH218293   0.829   1.236   4.856 -0.0364 -0.2119 -0.1048
 6110TIP3    H118294   0.854   1.155   4.811  1.2014 -0.6040  1.1829
 6110TIP3    H218295   0.862   1.306   4.801 -0.0850 -0.6222 -0.6638
 6111TIP3   OH218296   3.107   4.819   2.527  0.5273  0.1570 -0.6550
 6111TIP3    H118297   3.116   4.727   2.502 -1.3048  0.1551 -1.4969
 6111TIP3    H218298   3.057   4.817   2.609 -0.8215  0.3960 -1.4315
 6112TIP3   OH218299   3.036   1.207   5.562  0.2843 -0.1800  0.1374
 6112TIP3    H118300   3.103   1.248   5.617  0.4199 -0.0899 -0.0956
 6112TIP3    H218301   3.042   1.253   5.479  1.4306 -1.6484 -0.6368
 6113TIP3   OH218302   2.467   4.849   1.300 -0.3315  0.2185  0.5171
 6113TIP3    H118303   2.405   4.786   1.338 -2.2509  0.0762 -2.4489
 6113TIP3    H218304   2.432   4.935   1.323 -1.6948  0.1364 -1.0535
 6114TIP3   OH218305   6.486   3.906   4.185 -0.0745 -0.2981  0.9071
 6114TIP3    H118306   6.575   3.886   4.153 -1.1237 -1.7025 -1.4283
 6114TIP3    H218307   6.491   3.997   4.213  1.2529  1.0191 -2.9206
 6115TIP3   OH218308   4.663   2.067   3.839  0.2148 -0.0531  0.1652
 6115TIP3    H118309   4.678   1.975   3.818  0.4361 -0.5302  2.2719
 6115TIP3    H218310   4.750   2.106   3.841  0.1310  0.2012 -0.5846
 6116TIP3   OH218311   0.678   5.472   4.254  0.0006  0.0222  0.0231
 6116TIP3    H118312   0.707   5.404   4.316 -1.4053  0.3235  1.0642
 6116TIP3    H218313   0.759   5.501   4.211  0.8738 -0.9962  0.9056
 6117TIP3   OH218314   6.230   3.159   2.687 -0.0890  0.4260 -0.2443
 6117TIP3    H118315   6.135   3.166   2.689 -0.2350 -1.2367  0.9023
 6117TIP3    H218316   6.258   3.202   2.768  0.0879  0.3473 -0.2646
 6118TIP3   OH218317   2.474   5.878   0.340  0.2271 -0.3722 -0.5901
 6118TIP3    H118318   2.479   5.825   0.260 -1.2699  0.5320 -1.3378
 6118TIP3    H218319   2.386   5.862   0.373  0.4478  0.1394  0.2668
 6119TIP3   OH218320   2.332   4.650   1.397 -0.4071  0.7348  0.1783
 6119TIP3    H118321   2.380   4.614   1.322  2.1797  1.2971  1.4375
 6119TIP3    H218322   2.294   4.574   1.440  0.4077  0.0981 -0.1907
 6120TIP3   OH218323   3.858   3.445   3.017  0.1030  0.5140  0.2181
 6120TIP3    H118324   3.860   3.386   3.093  3.0232  0.8285  0.4996
 6120TIP3    H218325   3.835   3.388   2.943  0.1995 -0.4251  0.8954
 6121TIP3   OH218326   0.380   0.216   0.434  0.0415  0.0939 -0.6521
 6121TIP3    H118327   0.454   0.264   0.397  0.8916  0.4607  1.3705
 6121TIP3    H218328   0.396   0.218   0.529 -1.2009 -2.0713 -0.3427
 6122TIP3   OH218329   5.258   4.521   5.342 -0.2682  0.1182  0.1400
 6122TIP3    H118330   5.204   4.475   5.277  0.0126 -0.9557  0.6479
 6122TIP3    H218331   5.297   4.593   5.293 -1.0776  0.0948 -0.5708
 6123TIP3   OH218332   0.202   4.350   5.513  0.3313  0.7330  0.4710
 6123TIP3    H118333   0.196   4.419   5.447 -0.7154  0.0346 -0.1802
 6123TIP3    H218334   0.241   4.276   5.468 -1.2445 -0.0575  0.3530
 6124TIP3   OH218335   4.881   4.343   1.186  0.4076  0.4898 -0.2730
 6124TIP3    H118336   4.829   4.405   1.237  0.9451  0.8610 -0.1758
 6124TIP3    H218337   4.816   4.286   1.144 -0.1412  1.7114 -1.1400
 6125TIP3   OH218338   1.825   1.812   4.302 -0.3232 -0.1025 -0.3040
 6125TIP3    H118339   1.774   1.750   4.251  0.1252 -1.6354  1.0102
 6125TIP3    H218340   1.908   1.819   4.255 -0.4713 -0.3352 -0.6001
 6126TIP3   OH218341   3.393   2.206   5.165 -0.1852 -0.0349 -0.3315
 6126TIP3    H118342   3.397   2.118   5.127  0.8917  0.3915 -1.2771
 6126TIP3    H218343   3.308   2.209   5.209 -0.3948 -1.4239 -0.5796
 6127TIP3   OH218344   5.769   3.270   5.735 -0.6243  0.0962 -0.1539
 6127TIP3    H118345   5.722   3.280   5.818  0.1256  1.5432  0.1276
 6127TIP3    H218346   5.843   3.212   5.757 -0.7993 -0.0606  0.0273
 6128TIP3   OH218347   2.547   2.680   4.659 -0.0191  0.1149  0.1423
 6128TIP3    H118348   2.486   2.643   4.723 -1.9312  0.4291 -1.3862
 6128TIP3    H218349   2.490   2.714   4.590  1.8745  1.5638 -0.7880
 6129TIP3   OH218350   4.763   1.681   2.186  0.3745 -0.5644 -0.0119
 6129TIP3    H118351   4.813   1.747   2.233 -0.9375  1.0087 -0.6965
 6129TIP3    H218352   4.806   1.598   2.206  4.4106  0.7836 -2.0080
 6130TIP3   OH218353   0.122   3.987   4.677  0.0772  0.0040 -0.0860
 6130TIP3    H118354   0.158   3.934   4.748 -1.3838 -1.3886 -0.3155
 6130TIP3    H218355   0.061   4.047   4.720 -0.6403 -0.6885 -0.1055
 6131TIP3   OH218356   2.458   3.460   3.749  0.2152  0.2923  0.0787
 6131TIP3    H118357   2.462   3.541   3.801 -0.9923 -1.3592  3.0245
 6131TIP3    H218358   2.491   3.392   3.808  1.3381 -1.4283 -2.3378
 6132TIP3   OH218359   0.472   1.427   3.185 -0.3366  0.2793  0.2313
 6132TIP3    H118360   0.507   1.509   3.221 -0.2886  1.1560 -1.7074
 6132TIP3    H218361   0.405   1.400   3.248 -0.4088  1.8538  0.8650
 6133TIP3   OH218362   4.230   2.997   1.336  0.2257 -0.0419  0.2692
 6133TIP3    H118363   4.207   2.933   1.403  1.0658  0.4352  1.0257
 6133TIP3    H218364   4.242   2.945   1.256 -0.4933 -0.6486  0.5458
 6134TIP3   OH218365   5.662   0.795   3.495  0.2046 -0.5520 -0.0096
 6134TIP3    H118366   5.625   0.715   3.458  0.9259 -0.6264 -0.6144
 6134TIP3    H218367   5.686   0.847   3.418  0.4225 -0.0834  0.3723
 6135TIP3   OH218368   3.263   3.890   5.347 -0.8455 -0.6574  0.5949
 6135TIP3    H118369   3.185   3.854   5.305 -0.1271 -2.0664  0.3947
 6135TIP3    H218370   3.326   3.902   5.276 -0.9710  0.7636  0.7074
 6136TIP3   OH218371   5.080   2.125   2.463 -0.0581 -0.7435 -0.1892
 6136TIP3    H118372   5.005   2.067   2.452  0.8638 -2.0848  0.3249
 6136TIP3    H218373   5.091   2.133   2.558 -0.2623  0.4338 -0.2447
 6137TIP3   OH218374   0.871   4.658   2.265 -0.1931  0.4171 -0.0457
 6137TIP3    H118375   0.835   4.739   2.300 -1.2328  0.1891 -0.5501
 6137TIP3    H218376   0.796   4.615   2.222  0.8606  0.3478 -1.9074
 6138TIP3   OH218377   1.927   4.465   1.652  0.3840 -0.0283  0.1607
 6138TIP3    H118378   1.974   4.394   1.696 -1.0409 -1.4591 -0.5178
 6138TIP3    H218379   1.936   4.446   1.559  3.0506  2.7574 -0.2959
 6139TIP3   OH218380   4.238   0.986   1.731 -0.4006  0.1368 -0.7613
 6139TIP3    H118381   4.280   0.986   1.645 -1.8260 -0.7543 -1.4967
 6139TIP3    H218382   4.298   1.035   1.787  0.5821  0.7003 -2.2433
 6140TIP3   OH218383   3.166   5.857   1.966  0.6843 -0.0825 -0.5020
 6140TIP3    H118384   3.247   5.818   1.999 -0.4052 -1.7899  0.3239
 6140TIP3    H218385   3.112   5.871   2.044 -0.8260 -1.4971 -1.2131
 6141TIP3   OH218386   6.432   2.990   2.695  0.1122 -0.0774 -0.0865
 6141TIP3    H118387   6.376   3.066   2.678  0.2292  0.1742  0.6344
 6141TIP3    H218388   6.380   2.934   2.752  1.1865  0.9355  1.9878
 6142TIP3   OH218389   0.814   2.308   0.198 -0.7165  0.2048  0.4904
 6142TIP3    H118390   0.863   2.310   0.116 -0.6277 -0.6228  0.5161
 6142TIP3    H218391   0.841   2.226   0.240 -0.8662  0.5531  1.2792
 6143TIP3   OH218392   5.824   5.844   4.433 -0.5893  0.1108  0.0189
 6143TIP3    H118393   5.810   5.775   4.498  0.5314  1.7254  2.1032
 6143TIP3    H218394   5.744   5.845   4.381 -0.8994 -2.2836  0.3230
 6144TIP3   OH218395   2.473   6.393   2.157 -0.4363  0.1137 -0.1504
 6144TIP3    H118396   2.435   6.450   2.089 -2.2260 -1.5865 -0.6652
 6144TIP3    H218397   2.546   6.444   2.192 -0.4119  1.6962 -2.2714
 6145TIP3   OH218398   3.655   3.694   2.058 -0.1356 -0.0085 -0.1068
 6145TIP3    H118399   3.690   3.715   2.145  0.8177 -1.2162 -0.1643
 6145TIP3    H218400   3.605   3.613   2.072 -1.9729  1.0272 -0.2694
 6146TIP3   OH218401   3.593   3.054   2.538  0.7521  0.3260  0.1152
 6146TIP3    H118402   3.561   3.053   2.628 -3.4320  1.7431 -1.0999
 6146TIP3    H218403   3.642   3.137   2.531  0.4799  0.5596  0.8955
 6147TIP3   OH218404   7.067   3.806   4.569  0.2133 -0.2996  0.2877
 6147TIP3    H118405   7.104   3.718   4.573 -0.2702 -0.4541  2.3876
 6147TIP3    H218406   7.114   3.855   4.637 -2.4391 -0.1443  2.1500
 6148TIP3   OH218407   4.678   1.345   5.755 -0.0691  0.3316  0.1451
 6148TIP3    H118408   4.642   1.373   5.670  0.0700 -0.2172 -0.0994
 6148TIP3    H218409   4.602   1.313   5.804  0.0954 -1.0596 -0.4639
 6149TIP3   OH218410   2.052   0.214   4.262  0.1043 -0.5105 -0.4799
 6149TIP3    H118411   2.096   0.167   4.333  0.1980  1.3008  0.7246
 6149TIP3    H218412   2.036   0.148   4.196  2.1660 -1.8028  0.2202
 6150TIP3   OH218413   2.991   1.731   2.673  0.3119 -0.1850  0.3374
 6150TIP3    H118414   2.965   1.820   2.651  3.5252  1.0969  1.1924
 6150TIP3    H218415   2.945   1.711   2.754 -0.8264  0.4644 -0.1356
 6151TIP3   OH218416   2.731   4.381   3.616 -0.5659  0.4484  0.4358
 6151TIP3    H118417   2.755   4.323   3.688  0.0824  0.5927  0.3438
 6151TIP3    H218418   2.679   4.450   3.656  1.0216  1.3381  1.0317
 6152TIP3   OH218419   4.243   3.378   0.875  0.0178  0.9139 -0.1249
 6152TIP3    H118420   4.327   3.336   0.894 -0.1878  1.1966  1.5494
 6152TIP3    H218421   4.266   3.470   0.858 -0.0398  1.3846  1.9792
 6153TIP3   OH218422   0.770   0.704   3.368  0.7803  0.2695 -0.1274
 6153TIP3    H118423   0.692   0.698   3.423 -0.5604  0.3896 -1.9421
 6153TIP3    H218424   0.792   0.797   3.367  2.2070  0.0518  1.9438
 6154TIP3   OH218425   4.504   0.501   2.121 -0.0157 -0.5426  0.0407
 6154TIP3    H118426   4.437   0.435   2.137  0.8157 -1.7059 -1.0487
 6154TIP3    H218427   4.578   0.474   2.176 -0.5001  0.8600  1.4139
 6155TIP3   OH218428   1.670   2.079   5.368  0.2152  0.6958  0.1315
 6155TIP3    H118429   1.658   1.984   5.376  2.8804  0.2776  0.2375
 6155TIP3    H218430   1.661   2.112   5.458  2.5320 -0.0211  0.7211
 6156TIP3   OH218431   4.514   3.878   0.992  0.0253 -0.3240  0.1614
 6156TIP3    H118432   4.449   3.871   1.062 -3.6972 -1.9192 -3.0515
 6156TIP3    H218433   4.504   3.967   0.958 -2.2359 -1.1469 -1.6120
 6157TIP3   OH218434   6.472   0.559   1.642  0.4503 -0.2074  0.1486
 6157TIP3    H118435   6.505   0.636   1.689  0.8307  0.6192 -1.3925
 6157TIP3    H218436   6.378   0.575   1.635  0.7531  1.1405 -1.8071
 6158TIP3   OH218437   6.972   3.091   1.096 -0.4003  0.8288 -0.3337
 6158TIP3    H118438   6.980   3.185   1.080  0.6575  0.6878 -0.7315
 6158TIP3    H218439   7.061   3.063   1.119 -0.8003  0.0125  0.2719
 6159TIP3   OH218440   5.801   3.275   3.070  0.0440  0.2999 -0.1209
 6159TIP3    H118441   5.805   3.359   3.116  0.5115  0.6999 -0.8701
 6159TIP3    H218442   5.726   3.230   3.109 -1.5729  1.9541 -1.1665
 6160TIP3   OH218443   6.680   2.193   3.600  0.0233  0.8285  0.3159
 6160TIP3    H118444   6.687   2.148   3.684 -2.8360 -1.9044 -0.7082
 6160TIP3    H218445   6.708   2.128   3.535 -0.9093  1.6955 -1.0223
 6161TIP3   OH218446   3.634   2.137   2.002  0.2647 -0.9969 -0.3747
 6161TIP3    H118447   3.726   2.153   1.984  0.1203 -1.8515 -2.0362
 6161TIP3    H218448   3.627   2.042   2.012 -0.1752 -0.8132  1.5557
 6162TIP3   OH218449   3.429   5.879   1.726 -0.0083  0.0599 -0.5722
 6162TIP3    H118450   3.494   5.815   1.754  0.5224 -0.2425 -2.3498
 6162TIP3    H218451   3.420   5.939   1.800  1.2518 -0.6974  0.2222
 6163TIP3   OH218452   1.810   5.220   2.859  0.5328 -0.2493  0.1110
 6163TIP3    H118453   1.882   5.259   2.808 -0.2121  0.6722 -0.2583
 6163TIP3    H218454   1.849   5.142   2.899  1.0690 -1.2234 -2.1535
 6164TIP3   OH218455   0.075   1.996   4.264  0.1288  0.2889 -0.2067
 6164TIP3    H118456   0.025   2.077   4.270  0.8946  0.8702 -1.3314
 6164TIP3    H218457   0.066   1.969   4.173  0.0130 -0.8155  0.1169
 6165TIP3   OH218458   0.543   0.017   4.422 -0.6655  0.6660  0.2965
 6165TIP3    H118459   0.479   0.086   4.407  0.6017  1.9973  0.7671
 6165TIP3    H218460   0.621   0.047   4.376 -0.4392 -1.0510 -0.4916
 6166TIP3   OH218461   2.828   1.684   0.551  0.0756  0.2502 -0.2420
 6166TIP3    H118462   2.760   1.625   0.518  1.2590 -1.0165 -0.5053
 6166TIP3    H218463   2.841   1.656   0.642 -0.3855  1.0971  0.0907
 6167TIP3   OH218464   2.409   3.945   5.286  0.1345  0.0881  0.1159
 6167TIP3    H118465   2.399   3.899   5.369  0.3953 -0.0167  0.0919
 6167TIP3    H218466   2.325   3.989   5.272  0.1736  0.3053  0.5544
 6168TIP3   OH218467   6.997   2.982   3.614 -0.0344 -0.1363  0.1540
 6168TIP3    H118468   6.942   3.031   3.675 -1.0736 -0.7677 -0.2347
 6168TIP3    H218469   6.984   3.026   3.530  0.0608 -0.2756  0.0662
 6169TIP3   OH218470   4.015   3.022   2.847  0.8494 -0.1212  0.1592
 6169TIP3    H118471   4.007   2.943   2.793 -0.0026 -0.5635  0.9115
 6169TIP3    H218472   4.100   3.012   2.891  2.3054  0.9923 -2.2200
 6170TIP3   OH218473   4.820   0.612   3.161 -0.6891 -0.0300  0.7493
 6170TIP3    H118474   4.771   0.645   3.086  0.8420 -1.7733 -1.1234
 6170TIP3    H218475   4.811   0.680   3.228 -1.1314  2.1696 -1.4243
 6171TIP3   OH218476   0.762   6.150   0.888  0.2410  0.3325 -0.6994
 6171TIP3    H118477   0.833   6.208   0.917  0.5475 -0.3004 -0.1728
 6171TIP3    H218478   0.683   6.202   0.901  0.4665  0.4575  0.2836
 6172TIP3   OH218479   1.234   3.084   1.002 -0.6031 -0.2206 -0.7738
 6172TIP3    H118480   1.219   3.073   0.908 -0.1405  0.8350 -0.9814
 6172TIP3    H218481   1.306   3.025   1.022 -0.4571 -0.1726 -1.1573
 6173TIP3   OH218482   1.953   0.318   3.878  0.1021 -0.3186 -0.4267
 6173TIP3    H118483   2.004   0.365   3.944 -0.9078 -0.3282  0.3890
 6173TIP3    H218484   1.884   0.274   3.928 -0.0355 -1.2229 -1.3744
 6174TIP3   OH218485   1.224   3.899   2.869 -0.1219 -0.2240  0.0797
 6174TIP3    H118486   1.141   3.915   2.823 -0.5700  0.0369  0.9451
 6174TIP3    H218487   1.229   3.804   2.877 -0.6487 -0.2151  0.5623
 6175TIP3   OH218488   2.410   2.862   2.076 -0.2264  0.0463  0.1963
 6175TIP3    H118489   2.435   2.781   2.030  0.5042  0.1588  0.3796
 6175TIP3    H218490   2.405   2.837   2.168 -1.7524 -0.1924  0.0716
 6176TIP3   OH218491   2.069   1.258   3.050  0.3148 -0.2438 -0.3294
 6176TIP3    H118492   2.160   1.228   3.041 -0.4802 -3.2948  0.7220
 6176TIP3    H218493   2.028   1.236   2.967  0.4615  1.0154 -0.7558
 6177TIP3   OH218494   2.882   3.901   2.517 -0.3104  0.4446  0.0631
 6177TIP3    H118495   2.876   3.915   2.611 -0.1220  1.8672 -0.1253
 6177TIP3    H218496   2.967   3.937   2.492  0.5780 -1.7498 -0.3784
 6178TIP3   OH218497   4.716   0.287   3.929 -0.2548  0.2349 -0.0603
 6178TIP3    H118498   4.793   0.256   3.976 -0.6692  1.4524  1.5206
 6178TIP3    H218499   4.644   0.277   3.992 -1.2829 -0.2593 -1.2711
 6179TIP3   OH218500   1.130   2.360   5.337  0.2335  0.4377 -0.0623
 6179TIP3    H118501   1.082   2.370   5.419 -0.1384 -1.9426  0.0860
 6179TIP3    H218502   1.222   2.374   5.360 -0.1415  3.1366  0.0316
 6180TIP3   OH218503   6.396   4.714   2.837  0.7034 -0.3052  0.6845
 6180TIP3    H118504   6.385   4.733   2.931  0.2756  0.0915  0.5634
 6180TIP3    H218505   6.309   4.730   2.800  0.6409 -1.3547  0.3636
 6181TIP3   OH218506   3.722   3.716   2.313 -0.0616  0.4596 -0.2715
 6181TIP3    H118507   3.742   3.762   2.395  0.1152 -0.5594  0.2665
 6181TIP3    H218508   3.673   3.639   2.340  0.3785 -0.1191 -1.0904
 6182TIP3   OH218509   2.088   3.676   2.129  0.1475 -0.3699  0.2317
 6182TIP3    H118510   1.995   3.656   2.125  0.4908 -2.2087  0.5987
 6182TIP3    H218511   2.123   3.649   2.044  0.5831 -1.1501  0.6419
 6183TIP3   OH218512   3.555   3.320   5.794  0.4698  0.3265 -0.2351
 6183TIP3    H118513   3.648   3.326   5.819  0.4273  0.2364 -0.0501
 6183TIP3    H218514   3.548   3.374   5.715  0.6004  0.6595 -0.0258
 6184TIP3   OH218515   7.141   6.600   1.716  0.7773 -0.0101 -0.7417
 6184TIP3    H118516   7.116   6.565   1.631 -1.8634  1.1017 -0.5112
 6184TIP3    H218517   7.131   6.695   1.706  3.5073  0.4486 -0.0625
 6185TIP3   OH218518   5.254   0.733   2.033 -0.0496  0.5291 -0.5978
 6185TIP3    H118519   5.293   0.652   2.002 -1.1878 -0.7846  1.2063
 6185TIP3    H218520   5.161   0.724   2.012 -0.8822 -0.4032  2.8241
 6186TIP3   OH218521   0.814   4.343   3.533  0.2264 -0.1842  0.8073
 6186TIP3    H118522   0.868   4.413   3.568  0.8131 -0.4470  0.4474
 6186TIP3    H218523   0.858   4.317   3.452 -1.0345  0.3207 -0.0548
 6187TIP3   OH218524   3.067   6.756   2.526  0.3211 -0.3986 -0.4261
 6187TIP3    H118525   3.044   6.804   2.605  0.4361 -0.1436 -0.5458
 6187TIP3    H218526   3.069   6.822   2.457  0.2149 -0.6193 -0.6438
 6188TIP3   OH218527   3.081   4.183   4.004  0.1768 -0.0363 -0.9250
 6188TIP3    H118528   3.158   4.143   4.043 -0.5628 -0.3288  0.3007
 6188TIP3    H218529   3.062   4.259   4.060 -1.4763 -1.0233 -0.0426
 6189TIP3   OH218530   1.426   6.520   2.934  0.3240 -0.2225 -0.1064
 6189TIP3    H118531   1.451   6.436   2.898  0.9422 -0.2775  0.4309
 6189TIP3    H218532   1.509   6.561   2.960  0.0357  0.5660 -0.4014
 6190TIP3   OH218533   0.549   0.387   4.745  0.3792  0.1106  0.1686
 6190TIP3    H118534   0.537   0.319   4.812 -0.0810 -0.9147 -0.9119
 6190TIP3    H218535   0.623   0.439   4.777  0.0312 -0.2130  1.5741
 6191TIP3   OH218536   1.826   6.174   1.168  0.0432 -0.3251  0.3239
 6191TIP3    H118537   1.890   6.115   1.207  1.0769 -0.1686 -1.0661
 6191TIP3    H218538   1.854   6.262   1.196  1.6790 -0.0721 -1.8478
 6192TIP3   OH218539   0.564   6.748   0.963 -0.3289 -0.1207  0.1678
 6192TIP3    H118540   0.563   6.729   0.869  1.7679 -1.0703  0.2983
 6192TIP3    H218541   0.605   6.835   0.969  2.5673 -1.4042  0.3244
 6193TIP3   OH218542   4.000   3.945   1.780 -0.3411  0.5265 -0.2689
 6193TIP3    H118543   3.999   3.850   1.786  0.7526  0.5596  0.8556
 6193TIP3    H218544   3.908   3.970   1.771 -0.6157 -0.6351 -0.8680
 6194TIP3   OH218545   4.754   1.004   1.051 -0.1732 -0.1349  0.2647
 6194TIP3    H118546   4.831   0.955   1.080 -1.9993 -2.6673  1.2643
 6194TIP3    H218547   4.737   0.972   0.962  0.0898  0.6537 -0.0749
 6195TIP3   OH218548   6.079   2.259   0.192  0.4108 -0.2945  0.5929
 6195TIP3    H118549   6.165   2.300   0.181 -0.8065  2.1256 -0.7816
 6195TIP3    H218550   6.057   2.226   0.105 -1.0958  1.5174  0.2035
 6196TIP3   OH218551   2.528   6.717   5.227  0.5447 -0.0115  0.3038
 6196TIP3    H118552   2.491   6.639   5.269 -0.6486 -0.5020 -1.5166
 6196TIP3    H218553   2.622   6.710   5.241  0.3010 -0.7537  1.8062
 6197TIP3   OH218554   0.827   1.275   2.043 -0.0107 -0.1152  0.4204
 6197TIP3    H118555   0.849   1.209   2.109  0.3656 -1.2402 -0.7712
 6197TIP3    H218556   0.756   1.236   1.993  1.8011 -0.7610 -1.8406
 6198TIP3   OH218557   4.443   2.566   3.589 -0.1710 -0.2269 -0.0536
 6198TIP3    H118558   4.461   2.565   3.495 -0.7630 -2.0303 -0.1792
 6198TIP3    H218559   4.476   2.651   3.619 -0.2424  0.4999 -1.9260
 6199TIP3   OH218560   0.454   1.552   1.054 -0.4410 -0.0801  0.2686
 6199TIP3    H118561   0.541   1.580   1.025  0.1616 -1.6542  0.4968
 6199TIP3    H218562   0.469   1.506   1.136 -1.3044 -1.5112 -0.3333
 6200TIP3   OH218563   6.417   0.719   2.852  0.2621  0.7359  0.0837
 6200TIP3    H118564   6.492   0.744   2.798 -0.2456  0.7818 -0.6212
 6200TIP3    H218565   6.454   0.699   2.938  1.0810  0.7103 -0.2693
 6201TIP3   OH218566   1.094   5.853   1.626  0.1274  0.2409 -0.2103
 6201TIP3    H118567   1.171   5.854   1.683 -0.7091  0.0285  0.9576
 6201TIP3    H218568   1.074   5.946   1.612 -0.5250  0.3147  1.0767
 6202TIP3   OH218569   5.490   3.709   1.725  0.1425 -0.0031  0.2327
 6202TIP3    H118570   5.425   3.668   1.668  0.2512 -0.2326  0.2706
 6202TIP3    H218571   5.489   3.656   1.804  1.4145 -0.9180 -0.3298
 6203TIP3   OH218572   5.793   1.874   2.153  0.1667 -0.1528  0.2402
 6203TIP3    H118573   5.763   1.807   2.214  0.7628 -0.4538  0.2087
 6203TIP3    H218574   5.875   1.907   2.191 -0.3851  0.9418  0.5351
 6204TIP3   OH218575   5.577   5.449   3.148  0.2253  0.2358  0.0672
 6204TIP3    H118576   5.521   5.475   3.221  0.2718 -0.5906  0.4062
 6204TIP3    H218577   5.560   5.515   3.080 -0.9540  0.1500  0.2633
 6205TIP3   OH218578   0.840   5.398   2.350 -0.3256 -0.0249 -0.0098
 6205TIP3    H118579   0.790   5.386   2.431  2.0730 -0.1919  1.5521
 6205TIP3    H218580   0.921   5.348   2.365  0.6051  0.7551 -2.1338
 6206TIP3   OH218581   6.618   1.299   4.899  0.2784 -0.1839  0.1910
 6206TIP3    H118582   6.588   1.350   4.973 -1.2877  0.5954 -0.9216
 6206TIP3    H218583   6.638   1.363   4.831  1.6177 -0.8806 -0.1207
 6207TIP3   OH218584   5.661   3.493   4.036 -0.0324 -0.6821 -0.1700
 6207TIP3    H118585   5.674   3.557   4.105 -0.1830 -1.0229  0.1750
 6207TIP3    H218586   5.602   3.428   4.074  1.4248 -1.9093  0.0613
 6208TIP3   OH218587   6.163   3.004   3.769  0.0698 -0.0270  0.0997
 6208TIP3    H118588   6.145   3.025   3.860 -2.1494 -2.5907  0.3823
 6208TIP3    H218589   6.160   2.908   3.765  1.7379 -0.0854 -2.3902
 6209TIP3   OH218590   4.447   2.122   0.780  0.3450  0.2530  0.1934
 6209TIP3    H118591   4.370   2.065   0.776  0.2624  0.2546  1.4988
 6209TIP3    H218592   4.447   2.168   0.696 -1.5825  0.8958  0.4930
 6210TIP3   OH218593   5.919   2.537   0.156  0.3819 -0.1153 -0.0279
 6210TIP3    H118594   5.988   2.481   0.120 -0.0831 -0.2837 -0.6849
 6210TIP3    H218595   5.842   2.480   0.162  0.0901  0.2681 -0.0355
 6211TIP3   OH218596   1.015   3.426   1.574  0.2465 -0.0743  0.1308
 6211TIP3    H118597   1.002   3.507   1.624 -0.1371 -0.7149  1.0838
 6211TIP3    H218598   0.954   3.434   1.500  0.1617  0.4735  0.2537
 6212TIP3   OH218599   3.998   3.833   4.486 -0.1983 -0.4809  0.5227
 6212TIP3    H118600   3.903   3.847   4.487  0.0654  1.9464  2.5172
 6212TIP3    H218601   4.014   3.788   4.403 -3.0433 -0.7669  0.0003
 6213TIP3   OH218602   4.224   2.604   0.606 -0.0379  0.0235 -0.1344
 6213TIP3    H118603   4.256   2.516   0.584 -0.9788 -0.2595 -0.4216
 6213TIP3    H218604   4.130   2.593   0.619 -0.1311  0.9525  0.0669
 6214TIP3   OH218605   6.482   6.421   5.251 -0.7470  0.2932  0.1027
 6214TIP3    H118606   6.486   6.436   5.157  0.8234 -2.7207 -0.4191
 6214TIP3    H218607   6.404   6.366   5.263 -0.6783  0.2818  0.5070
 6215TIP3   OH218608   3.621   3.890   3.220 -0.1146  0.1763 -0.2635
 6215TIP3    H118609   3.603   3.981   3.246  0.5957 -0.0623  1.1441
 6215TIP3    H218610   3.708   3.894   3.179 -0.0025  0.1047 -0.0328
 6216TIP3   OH218611   1.189   2.273   1.378  0.6098 -0.2762  0.1295
 6216TIP3    H118612   1.164   2.210   1.445 -3.0938  1.9464  1.1861
 6216TIP3    H218613   1.152   2.238   1.297  1.5702 -1.0286 -0.0031
 6217TIP3   OH218614   6.387   1.242   3.011 -0.1036 -0.1766 -0.4435
 6217TIP3    H118615   6.447   1.277   2.945  0.0557 -0.4515 -0.4443
 6217TIP3    H218616   6.327   1.187   2.962 -1.1126  1.0361 -0.6228
 6218TIP3   OH218617   3.367   6.312   5.040 -0.1516  0.0283 -0.3872
 6218TIP3    H118618   3.437   6.355   4.991  0.1013 -0.7712 -0.7372
 6218TIP3    H218619   3.413   6.265   5.110 -0.3097 -0.6297 -0.7133
 6219TIP3   OH218620   4.545   0.744   1.222  0.1446 -0.2088 -0.5526
 6219TIP3    H118621   4.534   0.660   1.267  0.6460 -0.8449 -1.5870
 6219TIP3    H218622   4.470   0.796   1.250 -0.8448 -1.4318 -0.8442
 6220TIP3   OH218623   3.984   1.416   4.959 -0.3432  0.0551  0.5964
 6220TIP3    H118624   3.933   1.405   4.879 -0.3160  0.2509  0.5522
 6220TIP3    H218625   3.930   1.376   5.027 -0.7272  0.5931  0.6139
 6221TIP3   OH218626   0.107   3.073   3.002 -1.2050  0.2134  0.2678
 6221TIP3    H118627   0.102   3.121   3.084 -2.2756 -0.4971  0.6376
 6221TIP3    H218628   0.074   3.134   2.935 -1.1045  0.5126  0.4921
 6222TIP3   OH218629   1.909   5.246   0.529 -0.1539  0.6454 -0.3088
 6222TIP3    H118630   1.909   5.341   0.543  0.3536  0.7070 -0.7089
 6222TIP3    H218631   1.973   5.232   0.459  0.3776 -0.0689  0.2944
 6223TIP3   OH218632   6.485   6.378   0.336 -0.2642  0.6630  0.3170
 6223TIP3    H118633   6.533   6.392   0.417  0.4833 -0.0296  0.0125
 6223TIP3    H218634   6.395   6.359   0.364  0.0729  0.0396  1.0075
 6224TIP3   OH218635   6.865   0.083   2.656  0.0943 -0.2444  0.1709
 6224TIP3    H118636   6.815   0.126   2.726  0.2635  1.6761 -0.8177
 6224TIP3    H218637   6.874   0.150   2.589  0.2365 -1.9303 -1.5618
 6225TIP3   OH218638   1.674   1.647   4.131  0.0826 -0.2431  0.0596
 6225TIP3    H118639   1.606   1.587   4.159  1.1538 -1.7432 -0.4475
 6225TIP3    H218640   1.628   1.713   4.078 -0.9910 -1.0958 -0.0881
 6226TIP3   OH218641   1.649   0.680   3.392  0.2908 -0.4215  0.3318
 6226TIP3    H118642   1.561   0.716   3.408 -0.4813 -1.7331 -0.7503
 6226TIP3    H218643   1.637   0.585   3.394  1.7633 -0.6289  0.5016
 6227TIP3   OH218644   4.994   2.976   4.347 -0.1811 -0.0216 -0.3070
 6227TIP3    H118645   4.903   3.006   4.351 -0.0273  0.5312 -0.8161
 6227TIP3    H218646   5.003   2.915   4.420 -1.0457 -0.3146 -0.4442
 6228TIP3   OH218647   6.748   0.897   1.415  0.4392  0.3938 -0.1379
 6228TIP3    H118648   6.744   0.838   1.490  0.2526  0.9799  0.3211
 6228TIP3    H218649   6.657   0.917   1.395  0.4310 -0.5952 -1.2088
 6229TIP3   OH218650   3.034   0.057   3.243 -0.6386 -0.0881 -0.2324
 6229TIP3    H118651   2.946   0.045   3.278 -0.6618 -0.2774 -0.3525
 6229TIP3    H218652   3.024   0.122   3.173 -0.6795 -0.0923 -0.2301
 6230TIP3   OH218653   0.248   2.106   2.727 -0.2561 -0.5233 -0.1619
 6230TIP3    H118654   0.245   2.011   2.736  0.7189 -0.4783  0.8530
 6230TIP3    H218655   0.201   2.139   2.804  0.2340 -0.1867 -0.0033
 6231TIP3   OH218656   5.995   0.301   1.622 -0.4866  0.2725  0.0246
 6231TIP3    H118657   5.915   0.351   1.602 -0.4902 -0.0330 -0.7828
 6231TIP3    H218658   6.041   0.297   1.538 -0.4518 -1.0059  0.0945
 6232TIP3   OH218659   6.693   3.358   3.533  0.2330 -0.2513 -0.0746
 6232TIP3    H118660   6.738   3.438   3.561 -1.1797  0.3915  0.4525
 6232TIP3    H218661   6.709   3.295   3.602 -0.0505  0.1225  0.3367
 6233TIP3   OH218662   5.622   0.535   5.380 -0.2991  0.3841  0.2224
 6233TIP3    H118663   5.641   0.464   5.318 -1.1113  0.7871 -0.5087
 6233TIP3    H218664   5.571   0.492   5.449  2.1766 -0.4727  1.6469
 6234TIP3   OH218665   2.322   1.666   0.722 -0.1248  0.5020 -0.1515
 6234TIP3    H118666   2.285   1.633   0.640  0.9022  0.1900 -0.4998
 6234TIP3    H218667   2.375   1.594   0.756  1.6793  1.5433 -0.6251
 6235TIP3   OH218668   6.800   1.493   2.603  0.9285  0.4091  0.2609
 6235TIP3    H118669   6.744   1.570   2.587  0.3385  0.1403  0.9948
 6235TIP3    H218670   6.853   1.517   2.678 -0.4953 -0.5245  1.6272
 6236TIP3   OH218671   3.156   2.865   2.077  0.2137 -0.0204  0.5113
 6236TIP3    H118672   3.123   2.783   2.040  0.2053  0.5249 -0.7244
 6236TIP3    H218673   3.081   2.903   2.123  0.4812 -1.1742  1.9785
 6237TIP3   OH218674   4.920   1.398   3.497 -0.4327  0.1118  0.7547
 6237TIP3    H118675   4.920   1.493   3.490 -1.5751  0.0724  0.0240
 6237TIP3    H218676   4.845   1.378   3.553 -1.2989 -0.4471 -0.5807
 6238TIP3   OH218677   0.798   1.210   5.698  0.2859  0.2363 -0.5829
 6238TIP3    H118678   0.734   1.226   5.629  0.1262  0.9301 -0.2814
 6238TIP3    H218679   0.853   1.288   5.698  1.3862 -0.5145 -1.0972
 6239TIP3   OH218680   1.762   4.991   0.436 -0.1731 -0.0355  0.3901
 6239TIP3    H118681   1.798   5.076   0.459  0.9753 -0.6653  0.9507
 6239TIP3    H218682   1.669   5.009   0.417  0.2001  1.4396 -0.1757
 6240TIP3   OH218683   7.173   2.572   2.111  0.0218 -0.1610  0.2057
 6240TIP3    H118684   7.094   2.518   2.120  0.5205 -0.7356  1.4742
 6240TIP3    H218685   7.153   2.633   2.040 -0.2994 -2.4910 -1.8652
 6241TIP3   OH218686   2.334   4.574   5.450  0.0481 -0.3848 -0.4077
 6241TIP3    H118687   2.308   4.512   5.382  1.0768 -1.1566 -0.1198
 6241TIP3    H218688   2.252   4.597   5.494 -0.6489  0.2165 -1.9579
 6242TIP3   OH218689   0.620   0.772   2.996 -0.5177  0.2758  0.1380
 6242TIP3    H118690   0.584   0.741   2.913  0.9237 -0.3060 -0.2995
 6242TIP3    H218691   0.679   0.843   2.972 -0.9280  0.8382  0.7758
 6243TIP3   OH218692   4.173   6.734   3.706 -0.2037 -0.2583 -0.1923
 6243TIP3    H118693   4.220   6.661   3.745  0.0182  0.4104  0.8054
 6243TIP3    H218694   4.228   6.810   3.722 -1.6695  0.5796  1.1793
 6244TIP3   OH218695   3.900   4.479   4.893  0.1765  0.2464  0.3348
 6244TIP3    H118696   3.870   4.518   4.811  1.1900  0.4493  0.0437
 6244TIP3    H218697   3.995   4.478   4.885  0.3340  0.9432  1.8109
 6245TIP3   OH218698   1.599   0.205   3.205 -0.3681 -0.1051 -0.0245
 6245TIP3    H118699   1.651   0.127   3.228 -0.1947  0.0383  0.0744
 6245TIP3    H218700   1.567   0.187   3.117 -2.1479 -1.2514  0.7986
 6246TIP3   OH218701   6.258   0.137   2.865  0.5635  0.4351 -0.2451
 6246TIP3    H118702   6.202   0.096   2.932  2.2048 -0.0797  0.8756
 6246TIP3    H218703   6.285   0.065   2.809  3.4522 -0.1973  1.7270
 6247TIP3   OH218704   6.491   4.718   1.267  0.0657 -0.2020 -0.1900
 6247TIP3    H118705   6.522   4.628   1.263  0.3966 -0.0632 -0.9274
 6247TIP3    H218706   6.498   4.750   1.177 -1.4997  0.0824 -0.2475
 6248TIP3   OH218707   0.826   1.163   3.622  0.0509  0.0656  0.5474
 6248TIP3    H118708   0.841   1.087   3.678  1.6474  0.0656  0.1769
 6248TIP3    H218709   0.869   1.141   3.539 -2.1232  0.1298 -0.6639
 6249TIP3   OH218710   6.282   5.485   1.441 -0.1705 -0.2022 -0.1459
 6249TIP3    H118711   6.241   5.427   1.376  0.6858 -0.6903 -0.2578
 6249TIP3    H218712   6.338   5.428   1.492  0.3551  0.4574  0.0263
 6250TIP3   OH218713   6.213   5.358   3.773  0.1650  0.1154  0.2932
 6250TIP3    H118714   6.138   5.299   3.784  0.8329 -0.8361 -0.0999
 6250TIP3    H218715   6.257   5.326   3.695  1.1149  0.5062  0.6575
 6251TIP3   OH218716   5.300   0.046   3.818 -0.2602  0.0286 -0.0378
 6251TIP3    H118717   5.286  -0.008   3.896  1.2706  1.1925  1.1377
 6251TIP3    H218718   5.354   0.119   3.850 -2.3617  2.3622 -1.4940
 6252TIP3   OH218719   0.373   4.761   4.720 -0.5125  0.4010  0.0365
 6252TIP3    H118720   0.310   4.723   4.660  0.0913 -2.1265  0.8512
 6252TIP3    H218721   0.360   4.713   4.802  2.3681 -0.1971  0.2567
 6253TIP3   OH218722   4.183   4.382   1.397 -0.0055  0.0472 -0.1580
 6253TIP3    H118723   4.139   4.359   1.315  0.1307 -1.3091  0.1273
 6253TIP3    H218724   4.145   4.323   1.462  1.5764 -0.5459  0.2756
 6254TIP3   OH218725   1.581   4.712   2.597 -0.5493 -0.6064  0.0987
 6254TIP3    H118726   1.610   4.794   2.637  1.0133 -1.3303  0.5161
 6254TIP3    H218727   1.606   4.645   2.660 -0.6587 -1.5147 -0.8056
 6255TIP3   OH218728   0.117   4.296   1.721 -0.4823  0.0971  0.2642
 6255TIP3    H118729   0.114   4.388   1.692  0.9929  0.7986  2.1146
 6255TIP3    H218730   0.142   4.248   1.642  0.0097  1.4704 -0.4631
 6256TIP3   OH218731   0.668   0.556   0.868  0.1302 -0.5684 -0.0158
 6256TIP3    H118732   0.572   0.555   0.871  0.1516 -0.9740  1.1538
 6256TIP3    H218733   0.692   0.640   0.908  0.2697 -1.5085  2.0338
 6257TIP3   OH218734   3.639   1.405   4.009 -0.0273  0.1570  0.3337
 6257TIP3    H118735   3.729   1.433   4.027  0.0791  0.5650 -0.7876
 6257TIP3    H218736   3.624   1.333   4.071  0.8614  0.4758  0.9371
 6258TIP3   OH218737   3.380   4.535   4.290  0.1160 -0.1624 -0.0704
 6258TIP3    H118738   3.383   4.447   4.254  0.7468  0.6933 -2.2607
 6258TIP3    H218739   3.450   4.583   4.245  0.1831  1.3290  1.4774
 6259TIP3   OH218740   0.445   1.905   0.736 -0.0232  0.0743 -0.0916
 6259TIP3    H118741   0.510   1.879   0.671  0.6259  0.2106  0.4929
 6259TIP3    H218742   0.487   1.975   0.786  0.2316 -1.2810  1.6905
 6260TIP3   OH218743   1.943   3.729   1.259 -0.5144 -0.1152  0.0851
 6260TIP3    H118744   1.995   3.664   1.306 -0.2980  0.7801  1.1330
 6260TIP3    H218745   1.998   3.807   1.256 -0.6457 -0.0448 -1.4203
 6261TIP3   OH218746   2.356   3.002   0.663 -0.4940 -0.6089 -0.0573
 6261TIP3    H118747   2.310   2.979   0.743 -0.7822 -0.6930 -0.2425
 6261TIP3    H218748   2.382   3.093   0.675  0.3377 -0.9171  0.5354
 6262TIP3   OH218749   2.361   3.631   3.447  0.0708  0.1371  0.1422
 6262TIP3    H118750   2.365   3.552   3.393 -0.0998  0.0250  0.2910
 6262TIP3    H218751   2.435   3.622   3.507  0.2114  0.2217 -0.0178
 6263TIP3   OH218752   1.590   3.789   1.135 -0.3283 -0.4285 -0.3274
 6263TIP3    H118753   1.589   3.738   1.216 -1.6695 -1.7284 -1.1256
 6263TIP3    H218754   1.666   3.757   1.087  0.2639  0.0958  0.2422
 6264TIP3   OH218755   3.521   0.776   1.642 -1.3772 -0.6719  0.4067
 6264TIP3    H118756   3.549   0.705   1.585  0.0191  0.3525 -0.2484
 6264TIP3    H218757   3.465   0.734   1.707  0.2665 -2.5616  0.6908
 6265TIP3   OH218758   0.383   0.679   3.196  0.4927 -0.5330  0.2263
 6265TIP3    H118759   0.353   0.598   3.155  1.5100 -0.6861 -0.2454
 6265TIP3    H218760   0.445   0.716   3.133 -0.8769  1.2727 -0.1528
 6266TIP3   OH218761   3.957   3.545   2.034  0.0423  0.0728 -0.1873
 6266TIP3    H118762   3.890   3.600   2.076 -0.6969 -0.8048 -0.2033
 6266TIP3    H218763   4.029   3.544   2.097  0.4823  1.8392 -0.5955
 6267TIP3   OH218764   0.557   2.986   2.440  0.1404  0.1309  0.2181
 6267TIP3    H118765   0.594   2.909   2.396  0.9710  0.4857  0.2669
 6267TIP3    H218766   0.593   3.061   2.392 -0.6128  0.4918  0.2073
 6268TIP3   OH218767   2.948   5.496   4.584 -0.3337  0.2273 -0.0943
 6268TIP3    H118768   2.924   5.481   4.676 -1.5858  0.3868 -0.3679
 6268TIP3    H218769   3.014   5.565   4.587  3.3624 -3.0077  0.9784
 6269TIP3   OH218770   6.547   5.556   4.255 -0.0862 -0.0980  0.1157
 6269TIP3    H118771   6.624   5.548   4.312  1.1501 -1.5653 -1.6292
 6269TIP3    H218772   6.583   5.567   4.167 -1.8741 -0.9443 -0.7787
 6270TIP3   OH218773   2.653   6.290   4.760 -0.1089 -0.3316  0.3952
 6270TIP3    H118774   2.590   6.221   4.780 -1.8118  1.0648  0.1198
 6270TIP3    H218775   2.681   6.323   4.845  0.3087 -0.9869  0.5196
 6271TIP3   OH218776   1.455   6.481   3.790  0.0556 -0.1216  0.5701
 6271TIP3    H118777   1.395   6.470   3.716 -0.5269  0.6790  0.9033
 6271TIP3    H218778   1.448   6.574   3.813 -0.7516 -0.5763  2.4200
 6272TIP3   OH218779   3.907   0.930   0.984  0.3787  0.1445  0.2788
 6272TIP3    H118780   3.820   0.944   1.021  0.9703  1.8097  1.1609
 6272TIP3    H218781   3.927   0.838   1.003 -2.2782 -1.1327 -2.4630
 6273TIP3   OH218782   5.993   1.360   1.560  0.0795  0.5707  0.2462
 6273TIP3    H118783   5.900   1.367   1.582  0.1132  1.6903  0.1035
 6273TIP3    H218784   6.016   1.447   1.527  1.1273  0.2430  0.0848
 6274TIP3   OH218785   2.472   1.682   5.468 -0.0152  0.1330  0.0184
 6274TIP3    H118786   2.494   1.767   5.507  0.0414  0.2832 -0.3362
 6274TIP3    H218787   2.395   1.653   5.517 -0.9073  1.0524 -0.7841
 6275TIP3   OH218788   6.862   3.446   5.664  0.7612  0.1096 -0.1864
 6275TIP3    H118789   6.872   3.385   5.737 -0.6410 -1.7455 -1.4422
 6275TIP3    H218790   6.887   3.396   5.587  1.4171  1.7639 -1.0975
 6276TIP3   OH218791   2.356   5.463   4.237 -0.2526  0.0067  0.1887
 6276TIP3    H118792   2.290   5.491   4.174 -1.2503  0.1481  1.2535
 6276TIP3    H218793   2.345   5.368   4.243  0.7602 -0.1986 -0.8224
 6277TIP3   OH218794   6.404   6.224   3.589  0.1166 -0.2657  0.2575
 6277TIP3    H118795   6.320   6.210   3.545 -0.1286  0.2290  0.5566
 6277TIP3    H218796   6.466   6.241   3.517 -0.1793  0.0417  0.0674
 6278TIP3   OH218797   1.296   1.618   1.134 -0.3570  0.0333  0.0435
 6278TIP3    H118798   1.390   1.602   1.121 -0.3552  0.5355 -0.6027
 6278TIP3    H218799   1.276   1.690   1.074 -0.7879  1.1053  1.4190
 6279TIP3   OH218800   3.053   5.063   3.516 -0.1255  0.0278 -0.1540
 6279TIP3    H118801   3.010   5.064   3.430 -0.0281 -0.5568 -0.2149
 6279TIP3    H218802   2.981   5.055   3.578 -0.1306 -0.8454 -0.2518
 6280TIP3   OH218803   1.051   0.845   1.019 -0.7639 -0.1308 -0.3102
 6280TIP3    H118804   1.134   0.801   1.037 -1.6380 -1.1964  1.2727
 6280TIP3    H218805   1.077   0.925   0.973  1.0526 -0.9331 -0.7951
 6281TIP3   OH218806   5.365   2.977   0.346  0.0403 -0.3472  0.4053
 6281TIP3    H118807   5.445   3.027   0.365 -0.9123  1.6557 -0.5134
 6281TIP3    H218808   5.312   2.987   0.425 -0.1451  0.1458  0.2268
 6282TIP3   OH218809   6.004   1.936   5.482  0.5231  0.2302 -0.4765
 6282TIP3    H118810   6.064   1.862   5.478 -0.5562 -0.6848 -0.5349
 6282TIP3    H218811   6.054   2.007   5.522  1.0839 -1.0496  1.1919
 6283TIP3   OH218812   7.147   5.083   1.286  0.4103 -0.2753  0.3768
 6283TIP3    H118813   7.066   5.055   1.327  0.3487  0.0824  0.5021
 6283TIP3    H218814   7.154   5.029   1.207 -0.3997  0.3062 -0.1000
 6284TIP3   OH218815   3.832   2.730   2.526 -0.6559  0.0161 -0.4241
 6284TIP3    H118816   3.829   2.765   2.615  0.5765  1.5112 -0.9252
 6284TIP3    H218817   3.815   2.637   2.536  0.5273 -0.0453  1.5076
 6285TIP3   OH218818   5.051   6.011   3.414  0.1313 -0.6239 -0.1108
 6285TIP3    H118819   5.145   5.990   3.417  0.0986 -1.0595 -1.5731
 6285TIP3    H218820   5.008   5.932   3.448  0.2831 -0.3378  0.7828
 6286TIP3   OH218821   6.758   0.277   2.465  0.1642  0.2198  0.6479
 6286TIP3    H118822   6.806   0.329   2.400 -0.5441  0.3760  0.2391
 6286TIP3    H218823   6.679   0.247   2.419 -0.6541  0.8423  1.5984
 6287TIP3   OH218824   2.880   2.300   0.373 -0.1911  0.3674  0.4969
 6287TIP3    H118825   2.904   2.386   0.407  1.0578  0.0463  0.4606
 6287TIP3    H218826   2.934   2.290   0.294 -0.4471 -0.3840  0.4143
 6288TIP3   OH218827   7.226   3.240   0.137  0.3450  0.1447  0.0748
 6288TIP3    H118828   7.154   3.189   0.175  0.8450  0.1573  1.0738
 6288TIP3    H218829   7.235   3.315   0.196  0.2649  0.8875 -0.8317
 6289TIP3   OH218830   1.533   2.481   3.436 -0.0081 -0.4576 -0.4766
 6289TIP3    H118831   1.522   2.497   3.530  0.0763 -0.8453 -0.4021
 6289TIP3    H218832   1.513   2.388   3.425  1.4885 -0.7895 -0.6028
 6290TIP3   OH218833   2.907   3.256   2.250  1.1575  0.2426  0.0963
 6290TIP3    H118834   2.893   3.350   2.259  0.3956  0.2327 -0.7655
 6290TIP3    H218835   2.997   3.248   2.219  0.8669  0.7817 -0.9481
 6291TIP3   OH218836   4.952   3.213   0.485  0.5405  0.2677 -0.0251
 6291TIP3    H118837   4.988   3.302   0.478 -1.4071  1.2473  1.4412
 6291TIP3    H218838   4.864   3.226   0.521 -0.4750 -2.1560 -1.4415
 6292TIP3   OH218839   4.117   2.255   2.807 -0.1008  0.0897 -0.4250
 6292TIP3    H118840   4.165   2.334   2.782 -2.2907  0.8071 -2.8422
 6292TIP3    H218841   4.115   2.257   2.903  1.4705  1.9417 -0.3680
 6293TIP3   OH218842   4.833   6.333   5.668 -0.3807 -0.0550 -0.2112
 6293TIP3    H118843   4.752   6.383   5.663 -0.3302 -0.0110 -0.6842
 6293TIP3    H218844   4.806   6.242   5.674 -0.4720 -0.0876 -0.9531
 6294TIP3   OH218845   2.554   5.319   0.555  0.4188  0.1690 -0.4269
 6294TIP3    H118846   2.478   5.280   0.597  1.2493 -0.2433  0.7375
 6294TIP3    H218847   2.537   5.413   0.558  0.4823  0.1614  0.9404
 6295TIP3   OH218848   1.083   1.595   5.085  0.0415  0.0651  0.3257
 6295TIP3    H118849   1.134   1.601   5.165 -0.0713 -0.9880  0.4848
 6295TIP3    H218850   1.060   1.686   5.065  0.5885  0.3961  1.1413
 6296TIP3   OH218851   6.737   2.664   4.496 -0.3349  0.7013  0.0339
 6296TIP3    H118852   6.762   2.690   4.585  0.5504 -0.3625  0.1280
 6296TIP3    H218853   6.674   2.593   4.509  1.3592 -0.9106 -0.1167
 6297TIP3   OH218854   3.206   4.427   1.290 -0.5814  0.2464  0.4072
 6297TIP3    H118855   3.286   4.476   1.274 -1.2813  0.8301 -1.5797
 6297TIP3    H218856   3.135   4.490   1.276 -1.5237 -1.3118 -2.7056
 6298TIP3   OH218857   4.525   1.753   1.160 -0.3847  0.1709  0.3044
 6298TIP3    H118858   4.541   1.843   1.187  0.7349 -0.1312  0.6879
 6298TIP3    H218859   4.545   1.701   1.238 -0.1263 -0.4813 -0.1887
 6299TIP3   OH218860   3.187   6.189   3.431  0.1887  0.2603 -0.1894
 6299TIP3    H118861   3.164   6.101   3.401  0.9030  0.6232 -1.8947
 6299TIP3    H218862   3.145   6.196   3.516  0.6241 -1.9547  0.2796
 6300TIP3   OH218863   0.322   2.134   0.615  0.0731 -0.5006  0.1620
 6300TIP3    H118864   0.359   2.127   0.703 -0.3224  1.2863  0.5167
 6300TIP3    H218865   0.375   2.075   0.561  0.7515 -1.1079  1.4569
 6301TIP3   OH218866   4.619   2.700   5.301 -0.0546  0.1125 -0.0190
 6301TIP3    H118867   4.560   2.775   5.309  0.2178  0.4853 -1.3321
 6301TIP3    H218868   4.707   2.738   5.300  0.1502 -0.3290  0.4964
 6302TIP3   OH218869   4.115   3.635   3.499 -0.0677  0.4230 -0.2539
 6302TIP3    H118870   4.099   3.622   3.406 -2.1217 -0.4158  0.1464
 6302TIP3    H218871   4.052   3.578   3.542  0.1837  1.4853  1.6552
 6303TIP3   OH218872   0.628   4.518   0.362  1.1232  0.3732  0.1112
 6303TIP3    H118873   0.591   4.600   0.395  1.7220  0.2124  1.2447
 6303TIP3    H218874   0.671   4.543   0.280 -1.2090  0.6014 -1.1212
 6304TIP3   OH218875   6.659   4.674   2.381  0.1080 -0.5398 -0.0145
 6304TIP3    H118876   6.587   4.737   2.373 -0.7623 -1.4490  0.3761
 6304TIP3    H218877   6.736   4.727   2.398 -0.6674  0.4086  0.6511
 6305TIP3   OH218878   1.317   5.009   0.728  0.1470 -0.1515  0.0717
 6305TIP3    H118879   1.320   5.104   0.715 -1.6839 -0.2560 -1.4110
 6305TIP3    H218880   1.272   4.998   0.812  0.4757  0.2795  0.3114
 6306TIP3   OH218881   5.784   4.957   4.198 -0.2775  0.1396 -0.8042
 6306TIP3    H118882   5.772   5.043   4.159 -1.7663 -0.6753 -2.3118
 6306TIP3    H218883   5.785   4.897   4.123 -1.6602 -1.3622  0.3078
 6307TIP3   OH218884   2.885   1.659   2.110  0.2630 -0.0117  0.2197
 6307TIP3    H118885   2.946   1.726   2.141 -0.2950  1.4142 -1.6061
 6307TIP3    H218886   2.801   1.682   2.150  0.4405 -0.7473  1.0573
 6308TIP3   OH218887   2.791   4.794   1.875 -1.1166  0.2549 -0.2725
 6308TIP3    H118888   2.780   4.816   1.968 -0.3440  1.7061 -0.5035
 6308TIP3    H218889   2.701   4.784   1.843 -1.4337  0.8906  0.3756
 6309TIP3   OH218890   4.396   6.169   3.088  0.2909 -0.1577 -0.2477
 6309TIP3    H118891   4.348   6.139   3.165 -0.1348  0.0405 -0.4344
 6309TIP3    H218892   4.384   6.264   3.088  0.4114 -0.1426 -0.4776
 6310TIP3   OH218893   4.879   4.727   1.175 -0.5451  0.3278  0.4377
 6310TIP3    H118894   4.939   4.740   1.102 -0.8255  2.1166  0.4595
 6310TIP3    H218895   4.854   4.816   1.201 -1.6205 -0.3116  1.7369
 6311TIP3   OH218896   5.697   5.182   2.864 -0.0088  0.0587 -0.5164
 6311TIP3    H118897   5.697   5.111   2.799 -0.7895 -0.6184  0.2051
 6311TIP3    H218898   5.605   5.203   2.877  0.0912 -0.2844  0.8714
 6312TIP3   OH218899   4.095   4.176   0.561 -0.1054 -0.2256  0.0617
 6312TIP3    H118900   4.152   4.121   0.508  0.2842 -1.3673  1.5989
 6312TIP3    H218901   4.134   4.263   0.556 -0.0517 -0.3127 -1.4429
 6313TIP3   OH218902   0.901   4.096   4.223  0.4418  0.3282 -0.0895
 6313TIP3    H118903   0.857   4.176   4.192  1.4811  1.1094  0.3929
 6313TIP3    H218904   0.849   4.025   4.186 -1.2799  1.2023  0.5391
 6314TIP3   OH218905   0.729   4.832   2.734  0.4575 -0.6955 -0.6457
 6314TIP3    H118906   0.647   4.818   2.686 -0.7093 -1.9356  1.5348
 6314TIP3    H218907   0.771   4.745   2.734  1.7165 -0.1311 -1.5231
 6315TIP3   OH218908   4.848   3.304   4.189 -0.7649  0.2255 -0.0428
 6315TIP3    H118909   4.800   3.291   4.108 -1.7562  0.1557  0.5466
 6315TIP3    H218910   4.803   3.375   4.234  1.8247  2.7004 -1.0854
 6316TIP3   OH218911   1.959   5.679   0.152 -0.0010  0.1721  0.1620
 6316TIP3    H118912   1.902   5.627   0.209 -0.4002 -0.0250 -0.4126
 6316TIP3    H218913   1.943   5.645   0.064  1.8787 -0.7160  0.0955
 6317TIP3   OH218914   0.579   3.732   2.719 -0.0292  0.2551  0.4339
 6317TIP3    H118915   0.555   3.821   2.747  0.3168  1.2716 -2.2029
 6317TIP3    H218916   0.591   3.684   2.800 -0.7284  2.4883  1.9558
 6318TIP3   OH218917   3.591   0.156   1.389  0.0597 -0.0876  0.2858
 6318TIP3    H118918   3.506   0.131   1.355 -0.1326  1.7325 -0.7085
 6318TIP3    H218919   3.572   0.198   1.473  0.0175 -0.0427  0.2535
 6319TIP3   OH218920   1.878   5.256   1.710  0.5594 -0.1643 -0.0615
 6319TIP3    H118921   1.803   5.207   1.744 -0.9212  1.1234 -1.2684
 6319TIP3    H218922   1.839   5.338   1.678  2.5059  0.5424 -0.7298
 6320TIP3   OH218923   6.762   0.254   0.625 -0.1841 -0.2586 -0.4178
 6320TIP3    H118924   6.676   0.291   0.644  0.4194  1.0703 -0.1474
 6320TIP3    H218925   6.753   0.216   0.537 -1.1774 -0.6086 -0.1798
 6321TIP3   OH218926   0.210   3.317   2.407  0.2463  0.1006  0.3947
 6321TIP3    H118927   0.211   3.226   2.437 -1.4012 -0.2588 -0.4986
 6321TIP3    H218928   0.302   3.340   2.395  0.6766 -1.5934  0.2088
 6322TIP3   OH218929   2.397   4.576   5.093 -0.2997  0.5152 -0.0575
 6322TIP3    H118930   2.354   4.660   5.074  1.1393  1.9050  2.3812
 6322TIP3    H218931   2.489   4.590   5.070  0.2873  0.2360  1.9865
 6323TIP3   OH218932   5.497   4.217   4.150  0.1484 -0.2808  0.1221
 6323TIP3    H118933   5.404   4.239   4.161  0.1489 -0.3370  0.2375
 6323TIP3    H218934   5.537   4.238   4.234  0.0287 -1.3371  0.4662
 6324TIP3   OH218935   2.553   4.358   2.929 -0.2798 -0.3005  0.6821
 6324TIP3    H118936   2.500   4.429   2.964 -0.3492 -0.4078  0.7986
 6324TIP3    H218937   2.599   4.322   3.005 -0.4898 -0.5837  0.6773
 6325TIP3   OH218938   4.861   2.933   0.853 -0.1171 -0.1795  0.2002
 6325TIP3    H118939   4.956   2.932   0.868 -0.1077 -3.7146  0.7912
 6325TIP3    H218940   4.832   3.016   0.890  2.5262  0.2497  1.5693
 6326TIP3   OH218941   3.929   5.450   0.672  0.6582  0.3462 -0.2788
 6326TIP3    H118942   3.989   5.482   0.604  0.7963 -0.0057 -0.3249
 6326TIP3    H218943   3.943   5.509   0.746  0.1861  1.0070 -0.7030
 6327TIP3   OH218944   1.971   5.818   1.109  0.4121 -0.1260  0.4284
 6327TIP3    H118945   1.936   5.734   1.081  0.7673 -0.2524  0.3560
 6327TIP3    H218946   1.920   5.841   1.186  0.6490 -0.6457  0.7400
 6328TIP3   OH218947   2.088   1.034   2.145  0.2526  0.1621 -0.4539
 6328TIP3    H118948   2.090   0.956   2.089 -0.4190 -1.0784  1.1705
 6328TIP3    H218949   2.009   1.081   2.117 -0.7012 -1.0163  0.1364
 6329TIP3   OH218950   3.279   1.771   2.383 -0.3294 -0.2374 -0.6954
 6329TIP3    H118951   3.370   1.797   2.395 -0.6407  0.5034  0.1601
 6329TIP3    H218952   3.250   1.744   2.471 -0.7767 -1.0004 -1.0643
 6330TIP3   OH218953   6.896   2.680   3.726  0.0373 -0.3964  0.6371
 6330TIP3    H118954   6.934   2.618   3.664 -0.2936  1.0918 -1.1385
 6330TIP3    H218955   6.970   2.711   3.778  0.3816 -1.3756  0.7500
 6331TIP3   OH218956   5.031   1.689   4.341  0.4464 -0.5559 -0.2112
 6331TIP3    H118957   4.979   1.654   4.413 -0.0843 -1.3052 -0.9333
 6331TIP3    H218958   5.061   1.612   4.293 -0.6784 -0.0661 -1.7946
 6332TIP3   OH218959   1.743   3.619   1.816  0.0228  0.4850  0.3477
 6332TIP3    H118960   1.671   3.674   1.785 -2.2990 -2.4561  0.0226
 6332TIP3    H218961   1.745   3.634   1.911 -1.2101  0.4533  0.3942
 6333TIP3   OH218962   2.625  -0.037   2.419 -0.2293 -0.0135  0.5143
 6333TIP3    H118963   2.657   0.037   2.367  2.5265  0.2120  2.3397
 6333TIP3    H218964   2.569   0.003   2.485  1.0166  0.4693  1.3122
 6334TIP3   OH218965   6.810   6.329   3.175  0.6559  0.1806 -0.3867
 6334TIP3    H118966   6.771   6.280   3.103  1.0032  0.8089 -1.0181
 6334TIP3    H218967   6.862   6.265   3.223 -1.4084 -0.7668  0.6992
 6335TIP3   OH218968   3.880   1.355   5.215  0.2113  0.4277 -0.2590
 6335TIP3    H118969   3.785   1.345   5.213  0.3685 -1.3283 -0.7718
 6335TIP3    H218970   3.901   1.374   5.307 -0.4368 -2.1301  0.5008
 6336TIP3   OH218971   1.029   3.044   5.706 -0.6387  0.1076  0.4940
 6336TIP3    H118972   0.964   2.987   5.665 -1.3203  0.4498  1.0876
 6336TIP3    H218973   1.098   2.984   5.736 -0.6120 -0.2422 -0.2479
 6337TIP3   OH218974   0.957   4.708   1.679 -0.2872 -0.0228  0.1050
 6337TIP3    H118975   0.873   4.708   1.724 -1.3852  0.2527 -1.8217
 6337TIP3    H218976   0.988   4.799   1.685  0.2902 -0.2966  1.5058
 6338TIP3   OH218977   3.661   0.254   2.065  0.4098 -0.1931  0.1804
 6338TIP3    H118978   3.640   0.235   2.156  0.1492 -2.3658 -0.2763
 6338TIP3    H218979   3.749   0.217   2.053  1.7810  2.8047  0.3111
 6339TIP3   OH218980   1.890   2.818   5.775 -0.3052 -0.6952 -0.6560
 6339TIP3    H118981   1.956   2.886   5.790 -1.5258  0.3456  0.1596
 6339TIP3    H218982   1.917   2.746   5.830 -0.5342  0.2176  0.6893
 6340TIP3   OH218983   5.177   0.553   0.862 -0.0797 -0.2496  0.0000
 6340TIP3    H118984   5.184   0.638   0.819  2.1621 -1.0553 -1.3928
 6340TIP3    H218985   5.250   0.551   0.924  1.3578 -1.9468 -1.6123
 6341TIP3   OH218986   4.722   2.216   2.473 -0.0185 -0.8339 -0.2007
 6341TIP3    H118987   4.640   2.252   2.507  0.1310 -0.3147 -0.3884
 6341TIP3    H218988   4.780   2.215   2.549  0.8982  1.9907 -0.7279
 6342TIP3   OH218989   4.149   4.999   3.233  0.4403 -0.2547  0.0719
 6342TIP3    H118990   4.196   5.069   3.278 -1.0315  0.0036  1.3040
 6342TIP3    H218991   4.066   5.039   3.207  0.1907 -1.1390 -0.5308
 6343TIP3   OH218992   2.898   4.615   5.602 -0.0430  0.4359 -0.3991
 6343TIP3    H118993   2.839   4.559   5.652 -0.1121  0.4554 -0.4581
 6343TIP3    H218994   2.969   4.635   5.662  0.0232  0.2156 -0.4040
 6344TIP3   OH218995   5.005   1.112   4.229 -0.4225 -0.0931  0.4048
 6344TIP3    H118996   4.928   1.142   4.180  0.8164  3.9254  0.5515
 6344TIP3    H218997   5.066   1.083   4.162 -0.7996 -0.0343  0.0296
 6345TIP3   OH218998   3.217   1.410   4.134 -0.2408  0.0141  0.1941
 6345TIP3    H118999   3.251   1.330   4.174 -0.5861 -0.8779 -1.2245
 6345TIP3    H219000   3.152   1.442   4.196  1.1132  0.1656  1.5847
 6346TIP3   OH219001   0.796   5.988   5.202  0.4212 -0.3765 -0.2030
 6346TIP3    H119002   0.826   6.039   5.278  0.1697  0.1475 -0.4527
 6346TIP3    H219003   0.797   5.898   5.233 -3.4918  0.0750  1.8083
 6347TIP3   OH219004   0.728   5.007   2.014  0.3758  0.3714 -0.6139
 6347TIP3    H119005   0.664   4.947   1.974  0.7210 -0.9679  0.7577
 6347TIP3    H219006   0.808   4.955   2.022  0.3870  0.6391  1.5590
 6348TIP3   OH219007   3.974   0.396   2.142 -0.1874 -0.2551  0.3616
 6348TIP3    H119008   4.011   0.477   2.109 -0.7961  0.4165  1.2860
 6348TIP3    H219009   3.998   0.330   2.077  0.4716  0.6239 -0.3023
 6349TIP3   OH219010   1.313   6.631   1.000  0.3298  0.1692  0.2906
 6349TIP3    H119011   1.278   6.580   1.072  0.5885 -1.2321 -0.5303
 6349TIP3    H219012   1.267   6.715   1.004 -0.6403 -0.3953  1.2462
 6350TIP3   OH219013   2.667   0.490   4.055 -0.0428  0.0143 -0.4579
 6350TIP3    H119014   2.673   0.585   4.044 -0.7666  0.1916  0.5889
 6350TIP3    H219015   2.603   0.478   4.125 -0.7184 -1.2894 -1.2698
 6351TIP3   OH219016   1.585   4.982   3.676  0.8505  0.1729  0.1294
 6351TIP3    H119017   1.615   4.907   3.726 -2.3599 -2.1955 -1.1729
 6351TIP3    H219018   1.617   4.966   3.587  1.0342  0.9357  0.0493
 6352TIP3   OH219019   2.374   0.435   3.477 -0.3230 -0.3511  0.2336
 6352TIP3    H119020   2.309   0.365   3.467 -0.9280  0.1779  0.3630
 6352TIP3    H219021   2.373   0.455   3.571  0.8837 -1.1337  0.4259
 6353TIP3   OH219022   2.912   2.789   4.485  0.3307 -0.2252  0.5767
 6353TIP3    H119023   2.873   2.779   4.398 -1.7260  0.2231  1.3814
 6353TIP3    H219024   2.967   2.712   4.495  0.0774 -0.6268 -0.8622
 6354TIP3   OH219025   1.915   3.037   5.579  0.6688  0.2918 -0.2425
 6354TIP3    H119026   1.863   2.961   5.605  3.3573 -1.3681  0.7860
 6354TIP3    H219027   1.931   3.024   5.486  0.9123 -0.3016 -0.1246
 6355TIP3   OH219028   0.257   2.942   4.525 -0.5714  0.7119 -0.0897
 6355TIP3    H119029   0.292   2.881   4.590 -0.8713 -1.5479 -1.8764
 6355TIP3    H219030   0.269   3.029   4.563  2.9918 -0.2075  1.2043
 6356TIP3   OH219031   2.362   1.835   5.821  0.6083  0.4790  0.2268
 6356TIP3    H119032   2.325   1.758   5.779  1.3914  0.8710 -1.2252
 6356TIP3    H219033   2.385   1.805   5.909 -0.4944 -0.5209  0.2016
 6357TIP3   OH219034   3.461   2.717   5.770 -0.1816 -0.3107  0.5759
 6357TIP3    H119035   3.370   2.730   5.744 -0.2306 -1.5194  0.0539
 6357TIP3    H219036   3.494   2.650   5.709  0.9284 -0.2072  1.0336
 6358TIP3   OH219037   4.695   5.610   1.903  0.2035  0.0282  0.0869
 6358TIP3    H119038   4.723   5.606   1.812 -0.3129  0.3855 -0.0960
 6358TIP3    H219039   4.775   5.601   1.954  0.3193 -1.9330 -0.3689
 6359TIP3   OH219040   0.070   2.677   4.070  0.6423  0.3097 -0.9378
 6359TIP3    H119041   0.157   2.673   4.112  0.1406 -0.4069  0.0781
 6359TIP3    H219042   0.025   2.598   4.101 -0.8913  1.4024 -0.2466
 6360TIP3   OH219043   3.665   1.353   1.637 -0.0988  0.2842 -0.6546
 6360TIP3    H119044   3.623   1.425   1.685 -0.6370 -1.9793  2.5833
 6360TIP3    H219045   3.758   1.366   1.652 -0.1708  0.5262 -0.3872
 6361TIP3   OH219046   1.839   1.578   3.832 -0.3248 -0.5325 -0.0307
 6361TIP3    H119047   1.828   1.667   3.866  0.2929 -1.2919  2.4070
 6361TIP3    H219048   1.757   1.534   3.853 -0.9487 -0.3824 -1.9673
 6362TIP3   OH219049   6.027   4.628   0.957  0.3121  0.3660 -0.2021
 6362TIP3    H119050   5.933   4.629   0.942 -0.0107  0.1354  1.6400
 6362TIP3    H219051   6.054   4.720   0.951 -0.4224  0.7119  1.4718
 6363TIP3   OH219052   7.158   3.862   3.094  0.3074  0.0479 -0.7650
 6363TIP3    H119053   7.074   3.852   3.140  0.3001  1.1703 -0.5001
 6363TIP3    H219054   7.205   3.927   3.145  1.2575 -0.4015 -1.0555
 6364TIP3   OH219055   3.956   5.094   0.080 -0.3335 -0.1700 -0.2087
 6364TIP3    H119056   4.016   5.024   0.107 -1.7457 -1.2671  0.2553
 6364TIP3    H219057   3.993   5.174   0.118 -0.5720 -1.2051  2.4205
 6365TIP3   OH219058   5.433   5.540   2.374 -0.8307 -0.1919  0.3006
 6365TIP3    H119059   5.476   5.500   2.450 -0.8000  0.6240  0.7191
 6365TIP3    H219060   5.435   5.634   2.392 -1.0687 -0.0127 -0.5864
 6366TIP3   OH219061   6.294   6.733   4.238 -0.4700 -0.1533 -0.3062
 6366TIP3    H119062   6.360   6.665   4.222 -0.7933 -0.8667  1.2202
 6366TIP3    H219063   6.245   6.738   4.156  0.1037 -1.1508 -0.7340
 6367TIP3   OH219064   6.485   2.618   1.434 -0.0785 -0.9193 -0.2985
 6367TIP3    H119065   6.426   2.564   1.383 -0.5733  0.0261 -0.7588
 6367TIP3    H219066   6.471   2.592   1.525 -1.3855 -0.5510 -0.3783
 6368TIP3   OH219067   1.039   6.727   2.009 -0.4522 -0.0781  0.0459
 6368TIP3    H119068   1.027   6.817   2.040  0.0185 -0.1136  0.3535
 6368TIP3    H219069   1.099   6.688   2.073  1.5836  0.2177 -1.5515
 6369TIP3   OH219070   2.024   2.247   0.451  0.1014  0.0115  0.1782
 6369TIP3    H119071   1.950   2.257   0.391  0.2152  0.1504  0.0603
 6369TIP3    H219072   2.041   2.152   0.452  1.3891  0.1759 -1.5887
 6370TIP3   OH219073   5.922   0.916   5.272 -0.2411  0.3462 -0.5095
 6370TIP3    H119074   5.841   0.871   5.296 -0.7437  0.9839 -0.9803
 6370TIP3    H219075   5.968   0.855   5.214  1.1889 -1.4076  2.2479
 6371TIP3   OH219076   4.457   3.817   2.681 -0.3351  0.0844  0.8038
 6371TIP3    H119077   4.425   3.778   2.763  0.6380  0.7985  1.5409
 6371TIP3    H219078   4.406   3.897   2.671 -0.8462 -0.2805  0.3986
 6372TIP3   OH219079   4.422   1.309   4.482 -0.2062 -0.2771  0.6085
 6372TIP3    H119080   4.488   1.241   4.472  1.8363  1.6879 -0.2578
 6372TIP3    H219081   4.443   1.351   4.565 -1.2409 -0.4988  0.9904
 6373TIP3   OH219082   4.308   6.498   5.486  0.0156  0.1809  0.2204
 6373TIP3    H119083   4.216   6.485   5.507  0.1474  0.0480  0.7169
 6373TIP3    H219084   4.312   6.488   5.391 -0.4325 -0.1004  0.2271
 6374TIP3   OH219085   2.115   0.098   0.509  0.2658  0.1617  0.3904
 6374TIP3    H119086   2.198   0.052   0.521  0.4233  0.4652  0.4653
 6374TIP3    H219087   2.113   0.164   0.578  0.6963  1.2216 -0.5805
 6375TIP3   OH219088   5.056   1.755   1.543  0.0126  0.2736 -0.4408
 6375TIP3    H119089   5.138   1.719   1.509 -0.5947 -0.8559 -0.7704
 6375TIP3    H219090   5.042   1.835   1.493 -0.2817 -0.7673 -2.1271
 6376TIP3   OH219091   6.770   2.877   5.603  0.4070  0.2285  0.2495
 6376TIP3    H119092   6.675   2.887   5.612  0.5368  0.5666  1.2974
 6376TIP3    H219093   6.782   2.783   5.586 -0.0097 -0.1506  1.8761
 6377TIP3   OH219094   3.160   1.603   3.318  0.5001 -0.3506  0.2068
 6377TIP3    H119095   3.207   1.563   3.244 -0.4398  0.6402 -0.9711
 6377TIP3    H219096   3.171   1.697   3.304 -0.4669 -0.1434  0.8151
 6378TIP3   OH219097   5.768   3.146   2.442  0.4975  0.5667  0.1226
 6378TIP3    H119098   5.802   3.223   2.489  2.0169 -0.7591  1.3229
 6378TIP3    H219099   5.685   3.175   2.406 -0.3234  1.9982  2.8414
 6379TIP3   OH219100   3.037   2.699   2.704 -0.1782 -0.3134 -0.0053
 6379TIP3    H119101   2.963   2.642   2.721 -0.2747  0.2116  1.5345
 6379TIP3    H219102   3.107   2.640   2.675 -0.3027 -1.2215  1.4364
 6380TIP3   OH219103   3.598   3.115   4.658 -0.5834  0.5566 -0.7635
 6380TIP3    H119104   3.595   3.034   4.608  2.6281 -1.0246  1.2822
 6380TIP3    H219105   3.507   3.145   4.661 -2.0765 -3.3501 -1.0062
 6381TIP3   OH219106   1.112   0.119   1.036 -0.7498  0.2090  0.3067
 6381TIP3    H119107   1.056   0.189   1.071 -0.7304  0.0789  0.6021
 6381TIP3    H219108   1.201   0.154   1.040 -0.6056 -0.2281  1.4895
 6382TIP3   OH219109   2.714   4.153   0.867  0.5313 -0.4894 -0.4965
 6382TIP3    H119110   2.635   4.207   0.871 -1.0220 -2.6216 -0.4583
 6382TIP3    H219111   2.742   4.157   0.776 -0.7546 -1.1576 -0.9516
 6383TIP3   OH219112   6.396   5.543   2.303 -0.5502  0.1450 -0.7348
 6383TIP3    H119113   6.304   5.517   2.303 -0.4051 -0.5050  1.0779
 6383TIP3    H219114   6.440   5.474   2.352  0.4609  1.8146  0.8506
 6384TIP3   OH219115   0.973   1.442   2.301  0.2476  0.2245 -0.1806
 6384TIP3    H119116   0.980   1.528   2.342 -1.1472 -0.0252  0.6706
 6384TIP3    H219117   0.942   1.385   2.372  1.0706 -0.9674 -0.7545
 6385TIP3   OH219118   0.431   3.901   4.373 -0.0749 -0.1725 -0.1143
 6385TIP3    H119119   0.420   3.813   4.335 -0.5295  0.0880 -0.5980
 6385TIP3    H219120   0.452   3.884   4.465  1.7449 -0.8301 -0.6029
 6386TIP3   OH219121   5.555   1.653   4.093  0.3605 -0.2124 -0.2815
 6386TIP3    H119122   5.534   1.729   4.148 -0.6723 -1.5449  1.2514
 6386TIP3    H219123   5.651   1.648   4.095  0.5149  1.5695 -1.1932
 6387TIP3   OH219124   4.983   0.071   2.445  0.1523 -0.1849  0.7687
 6387TIP3    H119125   4.946   0.114   2.522 -1.1062  1.1591 -0.5296
 6387TIP3    H219126   4.948  -0.018   2.448  0.1073 -0.1430  1.7294
 6388TIP3   OH219127   5.667   4.268   3.943 -0.0083  0.0284  0.5713
 6388TIP3    H119128   5.637   4.305   3.860 -0.4643 -1.7848 -0.1286
 6388TIP3    H219129   5.593   4.216   3.974  0.3042  0.3420  1.9313
 6389TIP3   OH219130   1.505   5.450   4.270  0.8411 -0.4986  0.2507
 6389TIP3    H119131   1.492   5.445   4.175  1.4070  0.1586  0.1373
 6389TIP3    H219132   1.439   5.390   4.306 -1.4987  1.5202 -0.3740
 6390TIP3   OH219133   0.583   5.587   3.664  0.1210  0.4516 -0.2124
 6390TIP3    H119134   0.666   5.544   3.685 -1.5738 -2.2441  1.5762
 6390TIP3    H219135   0.585   5.598   3.569  1.9224 -0.8582 -0.3737
 6391TIP3   OH219136   6.508   5.304   3.258 -0.2094 -0.0458  0.2016
 6391TIP3    H119137   6.483   5.222   3.215  0.5942 -0.1768 -0.0382
 6391TIP3    H219138   6.442   5.367   3.230 -1.4851 -0.8509  1.2794
 6392TIP3   OH219139   4.097   1.824   1.786  0.2185  0.2946  0.3482
 6392TIP3    H119140   4.166   1.878   1.747 -0.4074  1.6737  1.1206
 6392TIP3    H219141   4.055   1.880   1.851 -1.2482 -0.7188  0.3237
 6393TIP3   OH219142   0.914   3.732   2.386 -0.0009 -0.1170 -0.5116
 6393TIP3    H119143   0.820   3.713   2.378 -0.0940  0.8255 -1.8501
 6393TIP3    H219144   0.954   3.646   2.402 -1.1157 -0.4845  0.5067
 6394TIP3   OH219145   0.411   4.119   4.740 -0.2766  0.2894 -0.7248
 6394TIP3    H119146   0.484   4.113   4.803 -0.2041  0.9768 -0.7295
 6394TIP3    H219147   0.416   4.038   4.689 -0.2265 -0.1973  0.0371
 6395TIP3   OH219148   6.030   0.203   3.196  0.2101 -0.1111 -0.1740
 6395TIP3    H119149   6.005   0.207   3.288 -2.2570  1.1453 -0.8045
 6395TIP3    H219150   5.997   0.284   3.158  0.6105 -0.8573 -2.3122
 6396TIP3   OH219151   4.993   6.253   0.716  0.1074  0.3862  0.4205
 6396TIP3    H119152   4.944   6.172   0.722 -0.6440  0.8440  0.5563
 6396TIP3    H219153   4.967   6.291   0.632  0.1159  0.6988  0.5553
 6397TIP3   OH219154   2.260   1.462   1.223 -0.7943  0.4720  0.3717
 6397TIP3    H119155   2.306   1.449   1.306  1.8392  0.9759 -0.9152
 6397TIP3    H219156   2.230   1.553   1.226  0.1425  0.7926  0.4158
 6398TIP3   OH219157   3.483   2.838   5.210  0.4258  0.4455  0.3341
 6398TIP3    H119158   3.388   2.829   5.220  0.2374  0.3500 -1.2932
 6398TIP3    H219159   3.519   2.799   5.289 -0.8327 -1.5920 -0.0316
 6399TIP3   OH219160   1.072   0.875   5.848  0.7331  1.0684  0.1365
 6399TIP3    H119161   1.118   0.868   5.931  0.9214  0.6311  0.0006
 6399TIP3    H219162   1.070   0.785   5.814  0.6698  1.2414 -0.3327
 6400TIP3   OH219163   4.199   3.149   0.700  0.0039 -0.3247 -0.7136
 6400TIP3    H119164   4.104   3.140   0.692  0.0327  0.0443 -1.5124
 6400TIP3    H219165   4.214   3.244   0.707  0.2511 -0.4241  0.3510
 6401TIP3   OH219166   3.564   3.058   1.341  0.4589 -0.0998 -0.0899
 6401TIP3    H119167   3.566   3.145   1.302 -1.4040  0.4257  0.8602
 6401TIP3    H219168   3.654   3.028   1.338  1.1067  1.7722 -0.6425
 6402TIP3   OH219169   5.369   3.136   3.883 -0.1264  0.3148 -0.3991
 6402TIP3    H119170   5.409   3.107   3.965 -0.2579  0.3272 -0.3283
 6402TIP3    H219171   5.286   3.089   3.880 -1.4541  2.3634  0.8851
 6403TIP3   OH219172   2.091   1.362   5.616  0.2939 -0.1714 -0.1311
 6403TIP3    H119173   2.112   1.325   5.531 -3.1613 -0.9627 -0.8038
 6403TIP3    H219174   2.072   1.286   5.671 -1.1383  0.3971  0.2094
 6404TIP3   OH219175   0.276   6.516   4.819  0.1822 -0.3814 -0.3308
 6404TIP3    H119176   0.333   6.561   4.882  0.6845 -2.3327  0.6795
 6404TIP3    H219177   0.282   6.424   4.843 -2.6879 -0.7713 -0.8118
 6405TIP3   OH219178   2.658   5.004   3.892  0.8608  0.6631 -0.1673
 6405TIP3    H119179   2.629   5.056   3.966  0.5210  1.3129 -0.7386
 6405TIP3    H219180   2.581   4.952   3.868  0.9977  0.3868 -0.0057
 6406TIP3   OH219181   0.975   0.125   2.553  0.6419 -0.0778  0.1317
 6406TIP3    H119182   0.938   0.082   2.630  0.3067  0.7725  0.4575
 6406TIP3    H219183   1.055   0.076   2.535  0.7689 -0.2408  1.0742
 6407TIP3   OH219184   6.562   4.262   3.693 -0.0044  0.3337 -0.6918
 6407TIP3    H119185   6.490   4.326   3.699  0.7382  1.0933  0.5012
 6407TIP3    H219186   6.603   4.264   3.779 -0.6764 -2.6831 -0.1827
 6408TIP3   OH219187   5.090   5.719   2.806 -0.4165  0.1409 -0.2479
 6408TIP3    H119188   5.122   5.641   2.853  1.5916  0.8434 -0.3562
 6408TIP3    H219189   5.060   5.777   2.875 -0.2218 -0.0153 -0.0266
 6409TIP3   OH219190   1.471   0.127   5.231  0.3995 -0.3176  0.3692
 6409TIP3    H119191   1.457   0.131   5.326 -0.3833  1.8646  0.2096
 6409TIP3    H219192   1.559   0.161   5.218 -0.2007  1.2928  0.2247
 6410TIP3   OH219193   6.302   0.736   3.618  0.3268  0.7416 -0.6407
 6410TIP3    H119194   6.235   0.703   3.677  1.0057 -0.7492 -0.6513
 6410TIP3    H219195   6.348   0.803   3.668  1.9727 -1.6211  1.2171
 6411TIP3   OH219196   3.886  -0.025   3.803 -0.1002  0.5287  0.5482
 6411TIP3    H119197   3.808   0.007   3.849 -0.0960  0.7056  0.4355
 6411TIP3    H219198   3.891   0.029   3.724  0.3500  0.7751  0.7419
 6412TIP3   OH219199   5.087   3.311   3.996  0.0003 -0.5341 -0.0788
 6412TIP3    H119200   5.130   3.265   4.068  3.1311  0.4131 -1.1617
 6412TIP3    H219201   5.048   3.389   4.037  0.1129 -0.9571  0.8441
 6413TIP3   OH219202   6.799   3.927   0.290  0.2037  1.0682 -0.3177
 6413TIP3    H119203   6.722   3.906   0.342  0.1931 -0.8931 -1.0632
 6413TIP3    H219204   6.873   3.914   0.349  0.1629 -0.7054 -0.6156
 6414TIP3   OH219205   0.017   4.625   0.979  0.0068 -0.4314  0.7624
 6414TIP3    H119206  -0.008   4.562   0.911 -0.3037  0.7267 -0.2177
 6414TIP3    H219207   0.109   4.606   0.996  0.0453 -0.8492  0.1389
 6415TIP3   OH219208   4.586   3.413   4.632 -0.2938 -0.1643 -0.0316
 6415TIP3    H119209   4.572   3.319   4.624  0.2905 -0.3064  0.5177
 6415TIP3    H219210   4.551   3.435   4.718 -2.7056  0.5891 -1.1250
 6416TIP3   OH219211   6.942   1.620   1.137  0.3530  0.5087 -0.5102
 6416TIP3    H119212   6.940   1.716   1.142  0.2177  0.4557  2.1018
 6416TIP3    H219213   6.853   1.593   1.156  0.7640 -0.1166  0.6662
 6417TIP3   OH219214   0.440   0.392   4.231  0.3210  0.0032 -0.0458
 6417TIP3    H119215   0.445   0.372   4.325  1.2674  0.4919  0.0242
 6417TIP3    H219216   0.531   0.395   4.203  0.1421  1.7416 -0.5708
 6418TIP3   OH219217   5.868   5.773   5.421 -0.4904 -0.4102 -1.1929
 6418TIP3    H119218   5.950   5.745   5.379 -0.8433 -1.6871 -1.0699
 6418TIP3    H219219   5.854   5.709   5.491 -0.5190  1.0235  0.1552
 6419TIP3   OH219220   6.440   3.070   1.403  0.1225  0.1651 -0.3819
 6419TIP3    H119221   6.506   3.131   1.371 -0.4109  0.6185 -0.6163
 6419TIP3    H219222   6.376   3.125   1.448 -0.2167 -0.2500 -0.3535
 6420TIP3   OH219223   1.224   4.769   1.368  0.0087  0.5141 -0.2544
 6420TIP3    H119224   1.216   4.764   1.273 -0.7308 -1.4444 -0.1265
 6420TIP3    H219225   1.300   4.825   1.383  0.3100  0.6104 -1.9925
 6421TIP3   OH219226   5.360   0.253   1.564  0.2506  0.3309 -0.2318
 6421TIP3    H119227   5.341   0.294   1.480  0.9502 -1.1171 -1.1289
 6421TIP3    H219228   5.332   0.162   1.554 -0.5198  0.3445  1.4374
 6422TIP3   OH219229   7.025   0.877   3.025  0.5115  0.1167  0.2510
 6422TIP3    H119230   7.040   0.875   2.930 -1.8084 -1.4935 -0.1657
 6422TIP3    H219231   7.100   0.832   3.063  0.3848 -1.2520 -1.0442
 6423TIP3   OH219232   4.505   1.435   4.726  0.1454 -0.2441 -0.6531
 6423TIP3    H119233   4.416   1.435   4.763  0.6256 -1.9144  0.5905
 6423TIP3    H219234   4.543   1.353   4.755  2.7957  1.2656  0.4892
 6424TIP3   OH219235   5.108   6.314   5.753  0.3632  0.1407  0.0898
 6424TIP3    H119236   5.065   6.264   5.823  0.1429 -0.8071 -0.7037
 6424TIP3    H219237   5.035   6.348   5.700  0.5573 -0.2257 -0.4122
 6425TIP3   OH219238   6.153   4.083   2.690  0.3808 -0.1025  0.1502
 6425TIP3    H119239   6.155   4.121   2.603 -0.6607 -0.8000 -0.1916
 6425TIP3    H219240   6.117   4.152   2.746 -2.6165 -0.8664 -0.6666
 6426TIP3   OH219241   0.474   3.477   4.102 -0.4247 -0.1074  0.1286
 6426TIP3    H119242   0.471   3.397   4.050 -2.5966 -1.5648  2.2466
 6426TIP3    H219243   0.471   3.548   4.038  0.1050 -1.7326 -1.7859
 6427TIP3   OH219244   4.788   3.490   3.077  0.4861 -0.6016  0.4806
 6427TIP3    H119245   4.832   3.422   3.128  0.6348 -0.1207  1.0019
 6427TIP3    H219246   4.858   3.549   3.050  0.5201 -1.2452 -0.9305
 6428TIP3   OH219247   3.679   2.143   3.933  0.1065 -0.1580 -0.5842
 6428TIP3    H119248   3.670   2.173   4.024 -0.3009  0.4132 -0.8086
 6428TIP3    H219249   3.663   2.221   3.880 -0.5089 -0.6661 -1.1712
 6429TIP3   OH219250   0.292   1.645   1.963 -0.1461  0.3770  0.4054
 6429TIP3    H119251   0.359   1.605   1.907 -1.5663 -2.3624  0.4813
 6429TIP3    H219252   0.214   1.650   1.907 -0.3303  2.1110  0.7653
 6430TIP3   OH219253   5.412   2.942   1.352  0.1101 -0.1309  0.1530
 6430TIP3    H119254   5.477   2.937   1.422 -0.2684 -0.0273  0.5147
 6430TIP3    H219255   5.412   2.855   1.313  0.2855 -0.2016  0.3093
 6431TIP3   OH219256   0.484   5.286   3.066  0.2215 -0.6885  0.0505
 6431TIP3    H119257   0.450   5.200   3.039 -0.4132 -0.6108  0.5637
 6431TIP3    H219258   0.406   5.340   3.075  0.7650  0.9627 -3.4991
 6432TIP3   OH219259   5.847   6.149   0.921 -0.7386  0.6234 -0.6278
 6432TIP3    H119260   5.759   6.135   0.955 -0.5897  0.9590 -0.0960
 6432TIP3    H219261   5.872   6.236   0.953 -0.0892  0.3939 -0.4903
 6433TIP3   OH219262   4.111   1.669   1.389 -0.5301  0.0729  0.6214
 6433TIP3    H119263   4.066   1.628   1.463 -1.9548  0.6141  0.0901
 6433TIP3    H219264   4.164   1.599   1.351 -1.5296 -0.8132  0.8169
 6434TIP3   OH219265   3.372   5.481   3.564 -0.0628  0.2907  0.3695
 6434TIP3    H119266   3.313   5.407   3.574  1.8470 -1.2641  0.8142
 6434TIP3    H219267   3.351   5.538   3.638  0.0500 -1.0269  1.4537
 6435TIP3   OH219268   3.501   1.696   5.300  0.2118  0.3068  0.4190
 6435TIP3    H119269   3.495   1.660   5.389  1.3481  0.2667  0.4930
 6435TIP3    H219270   3.594   1.691   5.278 -0.2092 -0.9056 -1.2902
 6436TIP3   OH219271   3.213   1.316   0.552  0.2575 -0.4690 -0.1689
 6436TIP3    H119272   3.132   1.290   0.508  0.7675 -2.3831 -0.0870
 6436TIP3    H219273   3.231   1.244   0.613  1.8839  0.0424 -0.0006
 6437TIP3   OH219274   6.106   1.621   1.524  0.0410  0.3817 -0.2617
 6437TIP3    H119275   6.193   1.624   1.483 -0.0937 -0.5860 -0.6218
 6437TIP3    H219276   6.049   1.666   1.462  0.6020  2.8473  0.8677
 6438TIP3   OH219277   1.261   1.249   1.232  0.8739 -0.5113  0.4624
 6438TIP3    H119278   1.231   1.329   1.275  0.7360  0.8505 -1.9842
 6438TIP3    H219279   1.356   1.259   1.225  0.6781  0.4504 -1.5754
 6439TIP3   OH219280   6.416   3.199   0.556  0.4650  0.3996  0.3995
 6439TIP3    H119281   6.397   3.105   0.551  0.6827  0.4107 -0.9606
 6439TIP3    H219282   6.488   3.212   0.495 -0.6514  1.7222 -0.6946
 6440TIP3   OH219283   6.847   0.870   5.841 -0.1646 -0.3287 -0.1393
 6440TIP3    H119284   6.766   0.854   5.792  0.8829 -1.7267 -1.5018
 6440TIP3    H219285   6.839   0.817   5.919 -0.7614 -0.0793 -0.0265
 6441TIP3   OH219286   6.448   3.684   1.742 -0.1547 -0.0079  0.1061
 6441TIP3    H119287   6.363   3.672   1.785 -0.3191 -1.8751 -0.6538
 6441TIP3    H219288   6.429   3.739   1.666 -0.8723 -1.0719 -0.5105
 6442TIP3   OH219289   3.489   2.815   4.169  0.2877  0.1889 -0.2233
 6442TIP3    H119290   3.443   2.894   4.198  0.1506  0.1811 -0.4152
 6442TIP3    H219291   3.491   2.758   4.245  0.5985  0.4770 -0.0141
 6443TIP3   OH219292   1.847   3.676   0.733 -0.0741  0.2035 -0.2694
 6443TIP3    H119293   1.851   3.714   0.821  0.3578 -1.5329  0.5049
 6443TIP3    H219294   1.773   3.615   0.737 -0.1094  0.1854 -1.1441
 6444TIP3   OH219295   2.221   3.923   4.723  0.1048  0.1737 -0.2057
 6444TIP3    H119296   2.260   4.011   4.726  0.0291  0.2075 -0.2041
 6444TIP3    H219297   2.214   3.897   4.815 -1.4678  0.8738 -0.1008
 6445TIP3   OH219298   0.507   1.531   0.492  0.3687 -0.2594 -0.0167
 6445TIP3    H119299   0.553   1.614   0.480 -0.9817  0.8461  1.8785
 6445TIP3    H219300   0.420   1.557   0.523 -0.5081 -2.3674 -0.5633
 6446TIP3   OH219301   1.927   1.588   4.776  0.1851 -0.2052  0.3399
 6446TIP3    H119302   1.902   1.640   4.853  0.1866  1.5733 -0.7902
 6446TIP3    H219303   1.873   1.623   4.705 -0.3580 -2.3239 -0.3463
 6447TIP3   OH219304   5.029   4.668   2.058 -0.6710  0.0215  0.1738
 6447TIP3    H119305   5.017   4.726   1.982 -0.6096  0.7254  0.6967
 6447TIP3    H219306   5.045   4.727   2.131  2.0676 -0.7101  0.2583
 6448TIP3   OH219307   2.346   0.322   2.986  0.4200 -0.0066  0.5708
 6448TIP3    H119308   2.391   0.376   3.052  2.0790 -1.3215  0.6088
 6448TIP3    H219309   2.275   0.280   3.034  0.4732  0.4630  1.0694
 6449TIP3   OH219310   4.179   5.728   1.299  0.0703 -0.4106 -0.2292
 6449TIP3    H119311   4.171   5.721   1.204  1.0851 -2.3422 -0.2197
 6449TIP3    H219312   4.105   5.784   1.325 -0.6992 -0.4973 -2.0485
 6450TIP3   OH219313   5.396   5.393   1.166 -0.1469  0.5586 -0.1366
 6450TIP3    H119314   5.444   5.447   1.229  2.6814  0.9718 -2.4226
 6450TIP3    H219315   5.413   5.434   1.081  0.7531 -2.8616 -1.8213
 6451TIP3   OH219316   1.205   3.063   2.064  0.0315 -0.3495  0.0261
 6451TIP3    H119317   1.240   3.086   2.150  2.5772  0.7068 -1.1908
 6451TIP3    H219318   1.235   3.133   2.006 -1.2573 -1.2390 -1.8075
 6452TIP3   OH219319   0.190   0.237   2.766  0.0936  0.0582  0.4313
 6452TIP3    H119320   0.188   0.162   2.706 -2.1658  0.2012  0.2742
 6452TIP3    H219321   0.180   0.313   2.710 -0.7092  0.2743  0.8570
 6453TIP3   OH219322   5.424   2.213   2.776 -0.1832  0.1264 -0.4781
 6453TIP3    H119323   5.452   2.300   2.805 -2.9486  0.8727  0.2279
 6453TIP3    H219324   5.495   2.182   2.721  0.7516  2.9811 -1.0231
 6454TIP3   OH219325   0.798   6.627   5.465  0.0117  0.6124 -0.3824
 6454TIP3    H119326   0.803   6.569   5.541 -0.8588  0.4478 -0.4430
 6454TIP3    H219327   0.848   6.582   5.397 -0.2405  0.1655 -0.2749
 6455TIP3   OH219328   0.693   5.635   0.773  0.2275 -0.0476  0.2045
 6455TIP3    H119329   0.701   5.724   0.809  2.0138  0.8377 -2.0566
 6455TIP3    H219330   0.651   5.648   0.688 -0.3964 -1.5247  0.2601
 6456TIP3   OH219331   1.897   0.718   5.235  0.3644  0.1624  0.8200
 6456TIP3    H119332   1.888   0.813   5.234  1.1486  0.2408  0.5580
 6456TIP3    H219333   1.928   0.696   5.147 -0.0420 -0.3641  0.7993
 6457TIP3   OH219334   1.224   3.272   0.513  0.1911 -0.3374 -0.2417
 6457TIP3    H119335   1.148   3.330   0.512  1.1590  1.0298  0.7823
 6457TIP3    H219336   1.187   3.184   0.518 -1.3990 -0.1282 -4.5262
 6458TIP3   OH219337   5.332   1.203   3.645  0.0880  0.0019  0.0696
 6458TIP3    H119338   5.317   1.212   3.551 -0.9664  0.9056  0.3046
 6458TIP3    H219339   5.253   1.160   3.677  1.5588 -2.8749  0.1939
 6459TIP3   OH219340   3.619   3.709   0.334 -0.5270 -0.7692  0.4924
 6459TIP3    H119341   3.533   3.699   0.374 -0.5938 -1.2558  0.2416
 6459TIP3    H219342   3.611   3.783   0.275 -1.2320 -1.7611 -0.7069
 6460TIP3   OH219343   4.077   0.244   0.572  0.2450 -0.8200 -0.0498
 6460TIP3    H119344   4.029   0.170   0.609 -2.8269  0.9716 -0.1976
 6460TIP3    H219345   4.019   0.281   0.506  2.7594  0.2291 -1.8439
 6461TIP3   OH219346   2.346   5.991   3.412 -0.0049 -0.3630  0.7321
 6461TIP3    H119347   2.322   6.022   3.325  1.2627 -0.6917  0.2453
 6461TIP3    H219348   2.354   6.071   3.465 -0.1989 -0.1171  0.3904
 6462TIP3   OH219349   3.085   0.369   1.718  0.2564  0.0552 -0.1679
 6462TIP3    H119350   3.139   0.317   1.777 -1.5977 -0.0564  1.5489
 6462TIP3    H219351   3.139   0.445   1.696  1.8925 -1.1158 -0.3138
 6463TIP3   OH219352   6.510   4.918   2.679 -0.2909 -0.8305 -0.1157
 6463TIP3    H119353   6.453   4.895   2.605  1.1552 -0.4643 -1.4143
 6463TIP3    H219354   6.510   4.840   2.734 -0.3100 -1.6672 -1.2528
 6464TIP3   OH219355   3.918   1.357   0.516 -0.5278 -0.4230 -0.3572
 6464TIP3    H119356   3.999   1.323   0.555 -0.0229  0.3883 -0.6903
 6464TIP3    H219357   3.887   1.286   0.460 -1.8291 -2.0764  2.2285
 6465TIP3   OH219358   2.514   6.381   2.997  0.3017 -0.0660  0.4819
 6465TIP3    H119359   2.497   6.383   3.091  0.2105  1.1878  0.4524
 6465TIP3    H219360   2.561   6.463   2.979 -1.1151  0.5031 -0.8179
 6466TIP3   OH219361   1.797   6.292   2.287 -0.5071 -0.0053  0.0304
 6466TIP3    H119362   1.720   6.270   2.235 -0.9538  0.2227  0.5870
 6466TIP3    H219363   1.766   6.291   2.377  0.1609  0.0257  0.2652
 6467TIP3   OH219364   4.217   3.826   1.390  0.2485 -0.0492 -0.7774
 6467TIP3    H119365   4.288   3.839   1.326  1.1687 -1.5089 -0.0965
 6467TIP3    H219366   4.253   3.765   1.454 -0.5056  1.6402  1.3889
 6468TIP3   OH219367   5.102   2.564   0.989  0.0726 -0.3615  0.2300
 6468TIP3    H119368   5.127   2.546   0.899  0.9108  2.1811 -0.1315
 6468TIP3    H219369   5.039   2.636   0.983  1.2782  0.8907  1.6706
 6469TIP3   OH219370   4.120   1.614   0.981 -0.2926  0.1877  0.2992
 6469TIP3    H119371   4.082   1.663   0.908 -0.4265  1.9924  1.5167
 6469TIP3    H219372   4.064   1.635   1.056 -0.0724 -1.5024  0.9752
 6470TIP3   OH219373   1.200   5.702   4.733 -0.1179 -0.0591  0.0373
 6470TIP3    H119374   1.259   5.645   4.783  0.8546  1.1751  0.3474
 6470TIP3    H219375   1.253   5.779   4.713 -1.9385  1.6481  1.3909
 6471TIP3   OH219376   6.191   2.709   3.310  0.0357 -0.2026 -0.2967
 6471TIP3    H119377   6.253   2.695   3.239  0.0845  1.9780 -0.7519
 6471TIP3    H219378   6.225   2.783   3.358 -1.3393 -0.0163  0.4529
 6472TIP3   OH219379   3.799   4.325   1.928  0.0844  0.0051 -0.3757
 6472TIP3    H119380   3.863   4.292   1.992 -0.9035 -0.6339  0.3068
 6472TIP3    H219381   3.737   4.253   1.916 -1.6407  1.2728  0.4831
 6473TIP3   OH219382   2.634   4.891   5.165  0.2940  0.5191  0.1469
 6473TIP3    H119383   2.583   4.871   5.244  2.1643 -0.2557  1.2281
 6473TIP3    H219384   2.676   4.975   5.185  2.4374 -0.6559  0.9427
 6474TIP3   OH219385   3.837   5.478   3.876  0.2180 -0.1416  0.4356
 6474TIP3    H119386   3.824   5.474   3.781 -1.4652  2.9509  0.3765
 6474TIP3    H219387   3.920   5.523   3.887 -1.1797  2.7437  0.2166
 6475TIP3   OH219388   2.411   4.105   4.635  0.0904 -0.1844  0.0236
 6475TIP3    H119389   2.367   4.148   4.562  0.2174 -1.2904 -0.7189
 6475TIP3    H219390   2.456   4.030   4.596  1.1213 -0.1248  1.0573
 6476TIP3   OH219391   0.905   2.616   4.664 -0.6310 -0.1863  0.0386
 6476TIP3    H119392   0.961   2.658   4.599 -0.6055 -2.0420 -1.2176
 6476TIP3    H219393   0.964   2.561   4.716 -0.8180  0.4334  0.9296
 6477TIP3   OH219394   0.771   5.206   1.830  1.0033 -0.6735  0.0357
 6477TIP3    H119395   0.817   5.137   1.783 -0.2648 -2.3559  1.1293
 6477TIP3    H219396   0.721   5.159   1.898 -2.5336  0.9339 -1.2252
 6478TIP3   OH219397   3.810   3.493   4.234  0.5226 -0.7229  0.3623
 6478TIP3    H119398   3.760   3.574   4.241  0.5367 -0.7817  1.4706
 6478TIP3    H219399   3.749   3.425   4.260  0.5579 -1.0511 -0.4052
 6479TIP3   OH219400   3.695   6.448   3.047  0.1697  0.4863  0.3249
 6479TIP3    H119401   3.684   6.378   3.112 -0.5672  1.3518  1.1532
 6479TIP3    H219402   3.776   6.426   3.002  0.2121 -0.6322  0.9081
 6480TIP3   OH219403   0.923   6.049   4.583  0.6160 -0.3566  0.2040
 6480TIP3    H119404   0.995   6.058   4.645 -0.8697 -1.2956  2.2086
 6480TIP3    H219405   0.923   6.130   4.533  0.9805  1.1650  2.5240
 6481TIP3   OH219406   6.768   3.512   1.992 -0.0283  0.0660  0.3095
 6481TIP3    H119407   6.793   3.577   2.058  0.2497  0.3073 -0.0277
 6481TIP3    H219408   6.814   3.540   1.913  1.6632 -1.5840  0.6174
 6482TIP3   OH219409   0.691   3.400   1.900  0.4983  0.4428  0.3439
 6482TIP3    H119410   0.628   3.436   1.837  0.4405  0.8970  0.6578
 6482TIP3    H219411   0.713   3.474   1.957  2.0187  0.5314 -0.3230
 6483TIP3   OH219412   3.567   6.041   3.634  0.2260 -0.2382 -0.2888
 6483TIP3    H119413   3.631   6.071   3.568  0.1095  1.4372  0.3163
 6483TIP3    H219414   3.608   5.965   3.674  0.8129 -0.5832 -1.4992
 6484TIP3   OH219415   1.412   5.542   1.576  0.5304  0.2973  0.1346
 6484TIP3    H119416   1.319   5.521   1.586  0.5876 -0.5190 -0.9661
 6484TIP3    H219417   1.413   5.616   1.515  0.6983 -1.1156 -1.6275
 6485TIP3   OH219418   4.599   1.681   3.891  0.1986 -0.4735  0.3719
 6485TIP3    H119419   4.604   1.743   3.819  0.3411 -0.0194  0.7640
 6485TIP3    H219420   4.553   1.728   3.961 -0.2982 -1.0432  0.4425
 6486TIP3   OH219421   5.760   3.617   1.667 -0.5732 -0.1593  0.8499
 6486TIP3    H119422   5.739   3.526   1.647  0.5849 -0.0462 -1.2256
 6486TIP3    H219423   5.686   3.648   1.720 -1.9006 -1.7936  0.0651
 6487TIP3   OH219424   1.442   5.095   4.466  0.0204  0.0009  0.0480
 6487TIP3    H119425   1.462   5.092   4.372  0.7177 -0.6012  0.2039
 6487TIP3    H219426   1.385   5.020   4.481 -0.0893  0.0957  0.1023
 6488TIP3   OH219427   1.775   4.414   0.123  0.0652  0.1654 -0.0703
 6488TIP3    H119428   1.703   4.378   0.072 -2.4618 -0.7473  3.7274
 6488TIP3    H219429   1.778   4.507   0.099 -0.0816 -0.4385 -2.6635
 6489TIP3   OH219430   5.978   6.459   0.722 -0.3645 -0.4360 -0.0230
 6489TIP3    H119431   5.933   6.515   0.658 -3.2594 -2.8371 -0.3059
 6489TIP3    H219432   6.024   6.394   0.669 -1.8722 -1.7702  0.2139
 6490TIP3   OH219433   1.178   5.012   1.180  0.7189  0.1463  0.6285
 6490TIP3    H119434   1.087   5.013   1.210  1.0919 -0.0483  1.8345
 6490TIP3    H219435   1.187   5.092   1.128 -0.6733 -0.8459 -1.2598
 6491TIP3   OH219436   7.075   6.036   0.897  0.1608  0.1563 -0.0861
 6491TIP3    H119437   7.107   6.055   0.808  1.0716 -1.1656 -0.0719
 6491TIP3    H219438   7.011   5.967   0.885 -1.3481  1.4648  0.0993
 6492TIP3   OH219439   7.056   0.254   0.325 -0.1073  0.1269  0.6165
 6492TIP3    H119440   7.145   0.283   0.346  0.5428  0.4162 -2.1904
 6492TIP3    H219441   7.034   0.192   0.395  1.8655  0.8457  1.9580
 6493TIP3   OH219442   6.997   1.215   0.084  0.0310 -0.3539  0.1180
 6493TIP3    H119443   6.930   1.147   0.092  0.3276 -0.5728  0.8535
 6493TIP3    H219444   7.077   1.173   0.117  0.4334  0.0437 -0.3393
 6494TIP3   OH219445   4.131   1.115   4.844  0.4535 -0.0090 -0.6211
 6494TIP3    H119446   4.082   1.140   4.923  0.2096  0.2888 -0.8633
 6494TIP3    H219447   4.095   1.171   4.775  0.7844 -0.1480 -0.9090
 6495TIP3   OH219448   1.445   5.397   5.539  0.4255 -0.0688  0.9651
 6495TIP3    H119449   1.358   5.392   5.499  0.3563 -1.7178  1.2502
 6495TIP3    H219450   1.484   5.475   5.501 -1.1223  0.6177  0.7133
 6496TIP3   OH219451   6.212   3.269   1.084  0.5282  0.3219  0.1144
 6496TIP3    H119452   6.254   3.189   1.116 -1.3007 -0.9704 -0.5479
 6496TIP3    H219453   6.256   3.340   1.132  2.3582 -1.0366  0.5525
 6497TIP3   OH219454   4.562   4.538   4.763 -0.3871  0.1179 -0.8077
 6497TIP3    H119455   4.509   4.617   4.756 -0.3703  0.1946 -0.1273
 6497TIP3    H219456   4.500   4.466   4.749 -0.6781  0.2068 -0.0070
 6498TIP3   OH219457   6.269   0.178   2.510 -0.2530 -0.4993  0.3775
 6498TIP3    H119458   6.201   0.114   2.530  0.1552 -0.3606  2.5486
 6498TIP3    H219459   6.270   0.184   2.415 -0.2735 -3.7342  0.0656
 6499TIP3   OH219460   3.331   2.299   0.005  0.5299 -0.6446 -0.6234
 6499TIP3    H119461   3.314   2.374   0.061  0.3220 -1.1521  0.0041
 6499TIP3    H219462   3.321   2.223   0.062 -0.7212 -1.2322 -1.5838
 6500TIP3   OH219463   2.724   1.181   4.493 -0.2704 -0.7484 -0.2309
 6500TIP3    H119464   2.661   1.181   4.421  0.5036 -0.3818 -0.9208
 6500TIP3    H219465   2.733   1.273   4.518  1.4814 -0.5453 -1.4853
 6501TIP3   OH219466   7.168   0.295   1.974 -0.3086 -0.4422  0.2401
 6501TIP3    H119467   7.126   0.211   1.988 -1.1449 -0.1480 -0.3934
 6501TIP3    H219468   7.215   0.313   2.055 -1.8977 -0.5036  1.2215
 6502TIP3   OH219469   5.571   3.109   3.111  0.2777 -0.2987 -0.2811
 6502TIP3    H119470   5.498   3.100   3.172 -0.2361  0.7386 -0.7109
 6502TIP3    H219471   5.556   3.041   3.046 -0.6192  0.2255 -0.6468
 6503TIP3   OH219472   6.917   6.335   0.448 -0.0400 -0.6270  0.2591
 6503TIP3    H119473   6.906   6.399   0.378  1.3674 -1.0304 -0.3670
 6503TIP3    H219474   6.929   6.387   0.527  2.8681  0.0383 -0.4845
 6504TIP3   OH219475   2.330   1.618   3.001  0.4584  0.5858 -0.1250
 6504TIP3    H119476   2.282   1.647   2.923  0.4175  1.4534  0.2201
 6504TIP3    H219477   2.385   1.692   3.024  1.6584 -0.2419 -0.2548
 6505TIP3   OH219478   2.756   0.941   5.047 -0.2844  0.6283  0.4863
 6505TIP3    H119479   2.662   0.952   5.033 -0.2144  2.2291  1.0138
 6505TIP3    H219480   2.765   0.922   5.140 -0.1327 -0.6944  0.2290
 6506TIP3   OH219481   5.527   2.850   4.707 -0.5534  0.2814  0.2101
 6506TIP3    H119482   5.593   2.878   4.643  0.7627 -1.2132  0.8405
 6506TIP3    H219483   5.449   2.833   4.655 -1.2651  4.1971 -0.3082
 6507TIP3   OH219484   6.487   3.234   5.504  0.3225 -0.0568  0.7466
 6507TIP3    H119485   6.469   3.277   5.587 -1.0117 -2.8791  2.0585
 6507TIP3    H219486   6.401   3.208   5.471  0.9346 -0.2041 -0.8385
 6508TIP3   OH219487   6.241   4.220   4.217 -0.4076 -0.1158  0.2941
 6508TIP3    H119488   6.260   4.313   4.209 -1.2760 -0.0576 -2.1498
 6508TIP3    H219489   6.323   4.176   4.197 -0.5708  0.1530 -1.0519
 6509TIP3   OH219490   1.126   5.788   5.466  0.3796  0.2676  0.1623
 6509TIP3    H119491   1.151   5.789   5.558 -0.1347 -0.4894  0.3142
 6509TIP3    H219492   1.177   5.716   5.428 -0.8307 -0.6878  0.2789
 6510TIP3   OH219493   4.401   0.451   2.457 -0.1228 -0.1440  0.8352
 6510TIP3    H119494   4.308   0.429   2.446 -0.2019 -0.4689  2.0171
 6510TIP3    H219495   4.423   0.500   2.378 -1.1511 -0.5441  0.2703
 6511TIP3   OH219496   1.799   1.933   3.809  0.5973 -0.0727  0.2571
 6511TIP3    H119497   1.745   1.927   3.888  2.3817 -1.2548  1.4451
 6511TIP3    H219498   1.743   1.979   3.746 -2.0175 -1.6863  1.2247
 6512TIP3   OH219499   5.823   6.585   3.009  0.4390  0.2302 -1.0974
 6512TIP3    H119500   5.777   6.545   3.081  0.1531 -2.9745 -2.8940
 6512TIP3    H219501   5.846   6.673   3.041  0.4007 -1.0027  2.8287
 6513TIP3   OH219502   5.740   6.098   2.714 -0.4303  0.3284 -0.6228
 6513TIP3    H119503   5.812   6.143   2.668 -1.3603  2.5844 -0.0168
 6513TIP3    H219504   5.666   6.159   2.707 -1.0377  0.1087  2.5596
 6514TIP3   OH219505   6.071   0.915   4.532  0.8155 -0.1228  0.9572
 6514TIP3    H119506   6.143   0.852   4.541  0.5339 -0.8666 -1.2452
 6514TIP3    H219507   6.098   0.970   4.458 -0.9250 -0.5602 -0.0635
 6515TIP3   OH219508   1.192   6.708   2.560  0.1813 -0.8318 -0.2734
 6515TIP3    H119509   1.277   6.670   2.536  0.0473 -0.5072 -1.2646
 6515TIP3    H219510   1.191   6.794   2.518 -0.1038 -0.2829  0.8191
 6516TIP3   OH219511   0.386   6.515   3.746  0.1227 -0.2623  0.2560
 6516TIP3    H119512   0.428   6.505   3.661 -1.6405 -0.1649 -0.6831
 6516TIP3    H219513   0.327   6.589   3.735 -1.8114 -1.6273  0.8148
 6517TIP3   OH219514   0.324   5.498   1.793 -0.1206  0.3633 -0.6334
 6517TIP3    H119515   0.378   5.479   1.716 -0.7958  0.2326 -1.0826
 6517TIP3    H219516   0.347   5.587   1.817  0.8837  0.0306 -0.3279
 6518TIP3   OH219517   1.641   4.056   1.734  0.1178 -0.2874 -0.5795
 6518TIP3    H119518   1.605   4.133   1.776  0.3151 -1.2754  1.5003
 6518TIP3    H219519   1.657   3.994   1.805  1.5413 -1.6266 -1.9688
 6519TIP3   OH219520   3.796   5.403   3.609 -0.0967 -0.0234 -0.0602
 6519TIP3    H119521   3.862   5.441   3.551  1.1545 -0.0553  1.2811
 6519TIP3    H219522   3.804   5.308   3.596  0.3494 -0.0426  0.3047
 6520TIP3   OH219523   5.684   5.982   1.278  0.1988  0.8627  0.0874
 6520TIP3    H119524   5.650   6.039   1.346 -0.9613  1.2154 -0.7618
 6520TIP3    H219525   5.766   5.948   1.314  0.5476  2.4827  0.8966
 6521TIP3   OH219526   1.708   4.748   3.821 -0.3502 -0.1411  0.0535
 6521TIP3    H119527   1.626   4.709   3.851 -1.5422  1.6998 -0.6759
 6521TIP3    H219528   1.771   4.675   3.822 -1.5513 -1.2560  2.1572
 6522TIP3   OH219529   3.738   0.630   2.455 -0.6043  0.1331  0.5310
 6522TIP3    H119530   3.720   0.635   2.361 -1.3877 -1.5810  0.5586
 6522TIP3    H219531   3.717   0.717   2.488 -3.5269 -0.1249 -0.3741
 6523TIP3   OH219532   0.155   2.629   1.849 -0.1515 -0.5874  0.2639
 6523TIP3    H119533   0.174   2.705   1.904  2.6328 -0.2561 -0.9548
 6523TIP3    H219534   0.126   2.667   1.766  2.3759 -0.6512 -0.7579
 6524TIP3   OH219535   3.786   6.563   2.232  0.5151 -0.2847 -0.2083
 6524TIP3    H119536   3.727   6.638   2.231  2.5200  1.3660 -0.0783
 6524TIP3    H219537   3.768   6.520   2.316  0.3800  0.9336  0.4015
 6525TIP3   OH219538   5.820   0.516   1.565  0.7308 -0.0522 -0.1375
 6525TIP3    H119539   5.726   0.530   1.564  0.5086 -1.3838 -0.2345
 6525TIP3    H219540   5.855   0.583   1.507 -0.0189  1.2108  0.8197
 6526TIP3   OH219541   6.642   0.586   4.655  0.0791  0.2852 -0.2489
 6526TIP3    H119542   6.567   0.593   4.714  0.1087  1.2156 -0.3124
 6526TIP3    H219543   6.604   0.578   4.568  0.0117 -2.0227 -0.0672
 6527TIP3   OH219544   4.104   0.647   4.308  0.6214 -0.0398  0.0363
 6527TIP3    H119545   4.154   0.635   4.227  0.7713 -1.2190  0.2818
 6527TIP3    H219546   4.170   0.673   4.372  0.6972 -0.2192  0.0336
 6528TIP3   OH219547   3.295   1.130   4.843 -0.0845  0.0014 -0.0632
 6528TIP3    H119548   3.322   1.080   4.766 -0.0139 -0.1179  0.0385
 6528TIP3    H219549   3.210   1.167   4.820  0.2170  0.4846 -0.4365
 6529TIP3   OH219550   4.524   0.439   2.717  0.6134  0.4497  0.5207
 6529TIP3    H119551   4.482   0.437   2.631 -2.8554 -0.4433  2.0603
 6529TIP3    H219552   4.576   0.359   2.721 -0.8200 -0.5404 -0.0468
 6530TIP3   OH219553   6.337   3.315   2.908 -0.1750  0.5030  0.1374
 6530TIP3    H119554   6.327   3.268   2.991  0.5662 -1.3095 -0.7616
 6530TIP3    H219555   6.247   3.338   2.883 -0.3729  1.5554  1.6643
 6531TIP3   OH219556   6.075   0.604   4.010  0.4022 -1.0469  0.2640
 6531TIP3    H119557   6.125   0.523   4.019  0.0765 -1.1267  1.4506
 6531TIP3    H219558   6.088   0.630   3.918  3.4594 -0.5004  0.7423
 6532TIP3   OH219559   1.855   4.309   0.372 -0.2714  0.0075 -0.0089
 6532TIP3    H119560   1.841   4.308   0.278  0.0678 -1.0093 -0.0586
 6532TIP3    H219561   1.776   4.268   0.408 -0.0767 -0.2747  0.0986
 6533TIP3   OH219562   2.233   3.671   4.626  0.0115  0.1663  0.0843
 6533TIP3    H119563   2.256   3.625   4.707  0.0855  1.1876  0.6590
 6533TIP3    H219564   2.223   3.763   4.652 -0.6127  0.4102 -0.9439
 6534TIP3   OH219565   6.401   3.244   0.843 -0.5357 -0.4535 -0.1258
 6534TIP3    H119566   6.308   3.262   0.858 -0.2195  1.0743  0.2548
 6534TIP3    H219567   6.405   3.212   0.753 -1.5332 -1.5489  0.1913
 6535TIP3   OH219568   0.424   3.452   4.767  0.3073 -0.5589  0.2723
 6535TIP3    H119569   0.338   3.437   4.806  1.0287 -1.6609  1.4970
 6535TIP3    H219570   0.471   3.370   4.778  1.6286  0.1053 -0.1308
 6536TIP3   OH219571   5.523   0.894   2.733  0.1577  0.1155  0.0960
 6536TIP3    H119572   5.499   0.896   2.826  0.1775 -1.3264  0.1449
 6536TIP3    H219573   5.539   0.802   2.714 -0.6424  0.2850 -1.5427
 6537TIP3   OH219574   1.520   6.825   5.852 -0.3698 -0.1062  0.2135
 6537TIP3    H119575   1.532   6.745   5.801  1.3342  0.0302  0.3468
 6537TIP3    H219576   1.432   6.816   5.889  0.7611 -3.3309  2.6231
 6538TIP3   OH219577   1.108   2.440   5.644 -0.0314  0.8603 -0.2309
 6538TIP3    H119578   1.126   2.356   5.686  1.6072  0.5083 -1.5346
 6538TIP3    H219579   1.159   2.504   5.695  2.6079  0.3210 -2.0191
 6539TIP3   OH219580   3.248   6.780   3.000  0.0535 -0.5943 -0.0079
 6539TIP3    H119581   3.299   6.798   3.079  0.6891  0.3554 -0.6157
 6539TIP3    H219582   3.262   6.687   2.983  1.8642 -0.3012 -0.3432
 6540TIP3   OH219583   1.987   3.142   2.093  0.7382 -0.0638  0.1065
 6540TIP3    H119584   1.969   3.236   2.096  0.5195 -0.1089  0.2640
 6540TIP3    H219585   2.082   3.136   2.082  0.8874  0.1789  1.1198
 6541TIP3   OH219586   6.301   4.899   0.861  0.7646  0.2502  0.7341
 6541TIP3    H119587   6.208   4.887   0.845  0.3664  1.5489  1.8861
 6541TIP3    H219588   6.342   4.819   0.827 -0.9258 -1.1028  1.7598
 6542TIP3   OH219589   6.585   3.784   2.285  0.1575 -0.2100  0.0963
 6542TIP3    H119590   6.549   3.723   2.348  1.6479 -1.1196  0.1142
 6542TIP3    H219591   6.569   3.870   2.323 -3.2942 -0.3971 -0.6073
 6543TIP3   OH219592   1.234   5.622   2.210  0.7125  0.0884  0.7339
 6543TIP3    H119593   1.286   5.546   2.234 -0.0814 -1.0722 -1.0683
 6543TIP3    H219594   1.174   5.591   2.142 -1.0788  1.8132  1.4153
 6544TIP3   OH219595   1.596   1.823   2.437 -0.0909 -0.1836  0.0016
 6544TIP3    H119596   1.542   1.828   2.358  0.6754  2.1204 -0.4727
 6544TIP3    H219597   1.535   1.842   2.509 -0.2859  0.6285 -0.3583
 6545TIP3   OH219598   3.103   3.284   2.801  0.2064  0.5011 -0.0901
 6545TIP3    H119599   3.156   3.361   2.821  0.9372 -0.1222  0.4616
 6545TIP3    H219600   3.019   3.302   2.843  0.9419  0.2641  1.5893
 6546TIP3   OH219601   1.862   0.038   1.784  0.8352 -0.5300 -0.0553
 6546TIP3    H119602   1.788   0.042   1.723  0.1947  0.4386  0.7605
 6546TIP3    H219603   1.856  -0.049   1.824  0.2808 -0.5436 -0.1631
 6547TIP3   OH219604   0.405   4.038   3.006  1.0103  0.0335  0.2161
 6547TIP3    H119605   0.385   3.947   2.986 -0.0085  0.1622  0.5970
 6547TIP3    H219606   0.500   4.044   2.997  0.9553 -0.7311 -1.1341
 6548TIP3   OH219607   1.010   4.125   3.070  0.2654 -0.0338 -0.3777
 6548TIP3    H119608   1.102   4.149   3.085  0.3668 -0.1187 -0.8517
 6548TIP3    H219609   0.982   4.180   2.998 -0.2840  0.5195  0.2429
 6549TIP3   OH219610   5.953   1.494   3.720  0.1407 -0.1487  0.2370
 6549TIP3    H119611   5.909   1.456   3.644 -0.8932  1.9241 -0.2746
 6549TIP3    H219612   5.938   1.588   3.712  2.2166  0.3666  1.6473
 6550TIP3   OH219613   3.981   6.340   2.156  0.3306  0.1507 -0.6413
 6550TIP3    H119614   3.916   6.270   2.164  0.6995 -0.1854 -0.5313
 6550TIP3    H219615   3.940   6.416   2.196 -0.7270  0.4503 -2.2018
 6551TIP3   OH219616   6.325   6.415   4.389 -0.2920  0.2411  0.0986
 6551TIP3    H119617   6.419   6.433   4.397  0.3678 -1.9999 -1.4440
 6551TIP3    H219618   6.291   6.423   4.478  1.2886  1.3998  0.6368
 6552TIP3   OH219619   0.803   4.859   4.733  0.3308  0.2077  0.4672
 6552TIP3    H119620   0.731   4.833   4.676  0.0630  1.0655  0.3936
 6552TIP3    H219621   0.762   4.907   4.804  0.8604  1.2847  0.0776
 6553TIP3   OH219622   6.009   5.092   3.863  0.2145 -0.5541 -0.4154
 6553TIP3    H119623   6.025   5.089   3.769 -0.3931 -0.2360 -0.5382
 6553TIP3    H219624   6.032   5.005   3.895  3.2863  0.1571 -0.3620
 6554TIP3   OH219625   0.425   4.343   3.180 -0.4349  0.1334  0.3128
 6554TIP3    H119626   0.474   4.364   3.259 -2.2222  0.7129  1.3123
 6554TIP3    H219627   0.475   4.273   3.139 -0.4472 -1.5269  2.9429
 6555TIP3   OH219628   1.010   6.474   0.479  0.0619 -0.7013  0.0322
 6555TIP3    H119629   1.053   6.392   0.453  0.5157 -0.8951  1.2853
 6555TIP3    H219630   0.960   6.450   0.558 -0.2831  0.0995  0.0631
 6556TIP3   OH219631   3.307   3.649   5.491  0.0113 -0.1247 -0.0575
 6556TIP3    H119632   3.224   3.614   5.524 -0.2600 -0.6332 -1.2274
 6556TIP3    H219633   3.283   3.731   5.447  0.0173 -0.5693 -0.9190
 6557TIP3   OH219634   5.056   0.523   4.681  0.1184 -0.3984  0.0638
 6557TIP3    H119635   5.103   0.484   4.755 -0.8037 -0.6959  0.5085
 6557TIP3    H219636   4.975   0.557   4.719  0.3371  0.8324 -0.5522
 6558TIP3   OH219637   4.625   0.870   1.779 -0.1052  0.4419  0.2016
 6558TIP3    H119638   4.681   0.939   1.743  0.8867 -0.2226  0.4179
 6558TIP3    H219639   4.564   0.849   1.708  0.5606  0.5049 -0.4063
 6559TIP3   OH219640   0.459   5.081   2.480 -0.0548  0.3947 -0.4263
 6559TIP3    H119641   0.484   5.171   2.500 -2.5091  1.3483 -1.2343
 6559TIP3    H219642   0.493   5.065   2.392  2.1180 -0.2511  0.4704
 6560TIP3   OH219643   0.448   1.987   0.430 -0.0984  0.1869  0.1644
 6560TIP3    H119644   0.367   1.950   0.395 -0.0697  1.8508 -1.8313
 6560TIP3    H219645   0.516   1.926   0.401 -0.4745 -0.5378  0.7609
 6561TIP3   OH219646   3.862   4.680   5.509 -0.3427 -0.4731  0.2278
 6561TIP3    H119647   3.914   4.614   5.554 -0.9605  0.3412  2.2414
 6561TIP3    H219648   3.875   4.760   5.560 -3.2813 -0.1606  0.6922
 6562TIP3   OH219649   3.900   0.055   4.890  0.3544 -0.8612 -0.0787
 6562TIP3    H119650   3.833   0.119   4.865 -0.0793 -0.5890  1.6053
 6562TIP3    H219651   3.950   0.040   4.811  0.4089  1.5170 -0.5625
 6563TIP3   OH219652   7.053   2.613   2.920 -0.3765 -0.1532 -0.0140
 6563TIP3    H119653   6.971   2.661   2.911  0.6693  1.7949  0.2794
 6563TIP3    H219654   7.121   2.676   2.896  1.1047 -1.4216  0.6347
 6564TIP3   OH219655   3.163   5.295   1.003  0.2553  0.5528  0.3126
 6564TIP3    H119656   3.224   5.367   1.023 -0.9918  1.7464  0.0130
 6564TIP3    H219657   3.077   5.337   1.002 -0.2724 -0.3523 -2.6175
 6565TIP3   OH219658   3.901   4.525   0.209 -0.3428  0.5031 -0.1638
 6565TIP3    H119659   3.859   4.575   0.139 -0.5222  0.2760 -0.2199
 6565TIP3    H219660   3.992   4.515   0.181 -0.5382 -0.0453 -0.6221
 6566TIP3   OH219661   3.892   2.653   0.145 -0.1847  0.2990 -0.1307
 6566TIP3    H119662   3.797   2.648   0.153 -0.2185  1.2226  0.2090
 6566TIP3    H219663   3.922   2.564   0.163 -0.9207  0.2244  0.8387
 6567TIP3   OH219664   6.641   0.167   4.458  0.0068 -0.2134  0.1274
 6567TIP3    H119665   6.564   0.156   4.402  0.0065 -1.4218  0.3371
 6567TIP3    H219666   6.619   0.121   4.539  1.0133 -0.7739  0.1073
 6568TIP3   OH219667   1.351   0.538   4.783 -0.0200 -0.0268  0.2494
 6568TIP3    H119668   1.381   0.455   4.747 -2.4287  0.7767 -4.3805
 6568TIP3    H219669   1.324   0.517   4.872 -0.4161 -4.1943 -0.6477
 6569TIP3   OH219670   0.208   0.810   2.756 -0.2143  0.2127  0.1288
 6569TIP3    H119671   0.267   0.864   2.704  1.1730 -1.6098 -0.3153
 6569TIP3    H219672   0.197   0.858   2.838  2.1515  0.5382  0.3416
 6570TIP3   OH219673   0.435   1.442   3.618  0.0355 -0.0079  0.4499
 6570TIP3    H119674   0.357   1.406   3.575 -0.2100  1.7459 -0.6649
 6570TIP3    H219675   0.484   1.365   3.647 -1.0086 -1.1909 -0.8107
 6571TIP3   OH219676   0.837   5.090   3.493  0.1654  0.6306  0.4770
 6571TIP3    H119677   0.922   5.091   3.449 -0.3137  0.8748 -0.4664
 6571TIP3    H219678   0.857   5.066   3.584  0.9558 -2.1029 -0.3288
 6572TIP3   OH219679   3.178   4.966   2.234  0.1818  0.1546 -0.1126
 6572TIP3    H119680   3.242   4.956   2.163  0.4706  0.1840  0.1403
 6572TIP3    H219681   3.093   4.968   2.190  0.3196 -0.4360 -0.4091
 6573TIP3   OH219682   0.466   3.975   5.267 -0.1537 -0.3333  0.0725
 6573TIP3    H119683   0.475   3.935   5.353  0.5903  0.7009  0.4941
 6573TIP3    H219684   0.415   4.055   5.283 -1.1644 -0.7987 -0.6692
 6574TIP3   OH219685   1.853   0.950   0.456 -0.1756 -0.3119  0.0530
 6574TIP3    H119686   1.817   1.037   0.435  0.0015 -0.0761  0.6937
 6574TIP3    H219687   1.947   0.965   0.465 -0.2941 -0.2785  1.5339
 6575TIP3   OH219688   3.487   1.672   2.637  0.1296 -0.5566  0.6083
 6575TIP3    H119689   3.542   1.751   2.636 -0.0788 -0.4107  0.2672
 6575TIP3    H219690   3.397   1.706   2.634  0.0569 -0.8197 -0.4042
 6576TIP3   OH219691   5.576   1.911   5.625  0.8423  0.3673 -0.6266
 6576TIP3    H119692   5.624   1.985   5.663  0.7326  0.6097 -0.9626
 6576TIP3    H219693   5.645   1.849   5.600  0.8698 -0.5531  1.4932
 6577TIP3   OH219694   6.098   2.955   0.643 -0.4124  0.1107  0.5737
 6577TIP3    H119695   6.192   2.971   0.650 -0.4308 -0.3868  2.5575
 6577TIP3    H219696   6.091   2.862   0.623 -0.4835 -0.0907  1.5044
 6578TIP3   OH219697   0.643   1.805   1.503  0.2499  0.3510  0.2734
 6578TIP3    H119698   0.720   1.782   1.450  0.8066  0.3559  1.0661
 6578TIP3    H219699   0.573   1.819   1.438  0.9243  0.4037 -0.4668
 6579TIP3   OH219700   4.458   3.128   0.543  0.4795  0.0836  0.1426
 6579TIP3    H119701   4.395   3.132   0.615  0.1148  0.3292 -0.1883
 6579TIP3    H219702   4.406   3.103   0.467  0.4668  1.9292 -0.4917
 6580TIP3   OH219703   3.514   5.840   3.199  0.3090  1.0515  0.0134
 6580TIP3    H119704   3.528   5.921   3.248 -0.0840  2.6823 -2.4067
 6580TIP3    H219705   3.538   5.862   3.109 -1.5550 -0.9695 -1.0736
 6581TIP3   OH219706   4.502   1.547   1.918 -0.5098 -0.1539 -0.0295
 6581TIP3    H119707   4.469   1.569   1.830  1.6073 -0.6234 -1.0011
 6581TIP3    H219708   4.566   1.616   1.937  0.0327 -0.8078  0.5513
 6582TIP3   OH219709   3.472   0.509   0.865  0.3920 -0.1449 -0.2966
 6582TIP3    H119710   3.400   0.560   0.901 -1.0687 -0.8876 -2.0277
 6582TIP3    H219711   3.516   0.568   0.804  1.9197  0.6141  1.4300
 6583TIP3   OH219712   0.315   4.054   3.763  0.0210 -0.1916 -0.0505
 6583TIP3    H119713   0.372   4.115   3.809 -0.3685 -0.7165  1.1767
 6583TIP3    H219714   0.368   4.021   3.690 -0.3606  2.9450 -1.9235
 6584TIP3   OH219715   0.502   1.432   0.049  0.6714 -0.3355 -0.3690
 6584TIP3    H119716   0.413   1.404   0.027  0.1750  0.4828  0.5122
 6584TIP3    H219717   0.536   1.361   0.103 -0.0288  0.0437  0.6008
 6585TIP3   OH219718   1.243   0.778   0.751 -0.0254 -0.5562  0.6221
 6585TIP3    H119719   1.160   0.737   0.727  0.0823  0.2862 -1.4205
 6585TIP3    H219720   1.218   0.862   0.790 -0.1695  0.2788 -1.1709
 6586TIP3   OH219721   6.396   3.878   0.064 -0.4411  0.3663  0.0379
 6586TIP3    H119722   6.376   3.845  -0.023  0.7465  2.6404 -1.1880
 6586TIP3    H219723   6.478   3.834   0.088  0.0208  0.8055 -0.6790
 6587TIP3   OH219724   4.471   2.774   3.919 -0.1605  0.6006 -1.0249
 6587TIP3    H119725   4.422   2.838   3.970 -0.2666  0.4911 -0.9896
 6587TIP3    H219726   4.410   2.701   3.907  0.0719  0.3652 -0.7769
 6588TIP3   OH219727   4.680   3.888   0.431  0.0065 -0.2823  0.4735
 6588TIP3    H119728   4.713   3.846   0.510  0.5138 -2.5642 -0.8523
 6588TIP3    H219729   4.757   3.895   0.374 -0.5529  0.3473 -0.2177
 6589TIP3   OH219730   5.578   4.901   0.077 -0.2363  0.2788 -0.4032
 6589TIP3    H119731   5.579   4.977   0.018 -0.9929 -0.5635 -1.5353
 6589TIP3    H219732   5.652   4.916   0.136 -0.9359  2.3739  0.0165
 6590TIP3   OH219733   5.130   2.767   2.267 -0.0163  0.3131 -0.0634
 6590TIP3    H119734   5.214   2.776   2.311 -0.0200 -2.1899  0.5796
 6590TIP3    H219735   5.151   2.777   2.174  1.0623 -0.5262  0.0672
 6591TIP3   OH219736   0.219   2.878   2.078 -0.1417  0.9834 -0.1657
 6591TIP3    H119737   0.294   2.933   2.102 -0.4335  1.5278 -0.4980
 6591TIP3    H219738   0.185   2.845   2.162  1.6790 -0.9160 -0.0742
 6592TIP3   OH219739   1.575   6.033   4.039 -0.1466  0.4887 -0.4700
 6592TIP3    H119740   1.636   6.107   4.044 -0.1305  0.8925 -4.0815
 6592TIP3    H219741   1.490   6.072   4.059  0.4063  0.2816  2.8312
 6593TIP3   OH219742   4.813   1.323   2.702  0.7507  0.2070  0.4778
 6593TIP3    H119743   4.900   1.298   2.671  1.1040  1.6634  0.2077
 6593TIP3    H219744   4.815   1.305   2.796  0.4524 -2.1258  0.0907
 6594TIP3   OH219745   1.625   4.100   0.416  0.8503 -0.1320  0.3935
 6594TIP3    H119746   1.539   4.059   0.427  0.8720  0.0294  1.2477
 6594TIP3    H219747   1.666   4.052   0.345 -1.3147  1.9912 -2.5592
 6595TIP3   OH219748   1.833   4.650   2.453 -0.4151 -0.3380  0.4177
 6595TIP3    H119749   1.837   4.684   2.364  1.4608 -0.8851  0.2501
 6595TIP3    H219750   1.802   4.724   2.505 -3.1934 -0.4947 -0.8528
 6596TIP3   OH219751   1.621   5.470   1.885  0.2453  0.0694  0.7133
 6596TIP3    H119752   1.531   5.502   1.896 -0.0260  0.1880 -1.4624
 6596TIP3    H219753   1.622   5.431   1.798  2.2216 -0.3164  0.8639
 6597TIP3   OH219754   3.402   4.611   1.196 -0.0071 -0.4073 -0.1405
 6597TIP3    H119755   3.355   4.685   1.156  1.1885  0.5561  0.1934
 6597TIP3    H219756   3.476   4.595   1.137 -1.9020 -3.4728 -1.9926
 6598TIP3   OH219757   0.415   1.346   2.928  0.4685  0.5469  0.2528
 6598TIP3    H119758   0.437   1.385   3.013  0.3035  2.7110 -0.6323
 6598TIP3    H219759   0.330   1.306   2.941  1.0818 -0.4249  1.4665
 6599TIP3   OH219760   6.736   1.557   2.117 -0.5137 -0.2667 -0.1802
 6599TIP3    H119761   6.671   1.511   2.170 -0.5884 -0.4002 -0.3844
 6599TIP3    H219762   6.767   1.491   2.055  0.5893 -0.4969  0.5904
 6600TIP3   OH219763   5.035   4.243   4.471  0.6462  0.0905 -0.3861
 6600TIP3    H119764   4.958   4.294   4.445  1.4273  1.8503  0.5306
 6600TIP3    H219765   5.016   4.154   4.443 -2.0901  0.2780  0.5435
 6601TIP3   OH219766   3.595   6.223   0.164 -0.1834 -0.0917 -0.3906
 6601TIP3    H119767   3.580   6.259   0.076 -1.9524 -0.3497 -0.2315
 6601TIP3    H219768   3.668   6.274   0.199  1.4404 -0.8219 -2.4635
 6602TIP3   OH219769   6.614   3.099   5.812 -0.4267  0.1872 -0.1258
 6602TIP3    H119770   6.554   3.162   5.772  0.9567  0.3906 -2.0776
 6602TIP3    H219771   6.653   3.147   5.885 -2.7921 -0.0660  1.3859
 6603TIP3   OH219772   1.142  -0.005   0.767 -0.1718  0.1126  0.1149
 6603TIP3    H119773   1.107   0.028   0.850  0.0922  0.3793  0.1228
 6603TIP3    H219774   1.065  -0.022   0.713 -0.4445 -1.5309  0.9412
 6604TIP3   OH219775   5.231   5.877   1.520 -0.0087 -0.5142  1.0434
 6604TIP3    H119776   5.284   5.888   1.441 -0.8054  2.2907  0.8117
 6604TIP3    H219777   5.147   5.845   1.487 -0.4319  0.9136  0.6576
 6605TIP3   OH219778   3.021   3.857   4.730 -0.4436  0.1339  0.3068
 6605TIP3    H119779   3.085   3.902   4.675 -1.6272 -0.2485 -1.4637
 6605TIP3    H219780   2.962   3.926   4.759 -0.6858  0.1321 -0.1692
 6606TIP3   OH219781   3.432   5.015   2.064 -0.4368  0.2829  0.6948
 6606TIP3    H119782   3.423   5.085   2.128 -0.6269  0.0104  0.9715
 6606TIP3    H219783   3.526   5.010   2.048 -0.4158  0.5535  0.7256
 6607TIP3   OH219784   5.478   2.854   4.310 -0.5282 -0.5673  0.4931
 6607TIP3    H119785   5.401   2.870   4.364  0.3974  0.5238  1.5331
 6607TIP3    H219786   5.507   2.766   4.335 -0.8439 -0.5753  0.8322
 6608TIP3   OH219787   1.321   5.905   1.797  0.2733  0.2598 -0.4601
 6608TIP3    H119788   1.307   5.965   1.871  2.9896  2.0205 -1.2149
 6608TIP3    H219789   1.396   5.942   1.750  1.5513 -3.2931 -1.5328
 6609TIP3   OH219790   0.588   6.106   1.225  0.0000  0.0427 -0.3570
 6609TIP3    H119791   0.565   6.139   1.138  1.1981 -0.6586 -0.9709
 6609TIP3    H219792   0.508   6.066   1.258 -0.4254  0.1753 -1.1972
 6610TIP3   OH219793   4.523   1.787   0.665  0.2407  0.1056  0.4163
 6610TIP3    H119794   4.483   1.811   0.748 -1.8552 -1.8260  0.0496
 6610TIP3    H219795   4.602   1.739   0.690 -1.2398 -1.9434  1.4167
 6611TIP3   OH219796   3.665   4.113   4.519 -0.1039  0.3262  0.2346
 6611TIP3    H119797   3.631   4.101   4.431 -2.3550 -0.9616  1.1835
 6611TIP3    H219798   3.659   4.207   4.536 -1.1003  0.3898 -0.4476
 6612TIP3   OH219799   5.764   3.428   2.671  0.3700  0.6241  0.4850
 6612TIP3    H119800   5.760   3.495   2.740  0.0576  0.1861  0.8973
 6612TIP3    H219801   5.677   3.388   2.672  0.5787  0.1694  0.2785
 6613TIP3   OH219802   3.996   2.166   0.117  0.0241 -0.0970 -0.5590
 6613TIP3    H119803   4.056   2.100   0.151  1.5657  0.0942 -2.6936
 6613TIP3    H219804   3.942   2.120   0.054 -1.4391 -0.0406  0.6014
 6614TIP3   OH219805   6.576   2.432   5.527 -0.6546 -0.1702  0.1711
 6614TIP3    H119806   6.519   2.497   5.487 -0.5277  0.5629  1.1715
 6614TIP3    H219807   6.531   2.404   5.606 -0.5634 -1.0831 -0.0785
 6615TIP3   OH219808   0.281   3.618   5.143 -0.1191 -0.8966  0.1907
 6615TIP3    H119809   0.189   3.630   5.120  0.1490 -0.0287 -0.4747
 6615TIP3    H219810   0.296   3.524   5.135 -0.1399 -0.7426 -3.0092
 6616TIP3   OH219811   3.897   2.725   0.531 -0.1792  0.1065 -0.6487
 6616TIP3    H119812   3.900   2.634   0.504  1.9256  0.0336 -0.3752
 6616TIP3    H219813   3.835   2.727   0.604 -0.0413 -1.1662 -0.4722
 6617TIP3   OH219814   1.990   1.261   4.114 -0.1508 -0.4029  0.1899
 6617TIP3    H119815   1.904   1.295   4.140  0.0213 -0.1615  0.4485
 6617TIP3    H219816   1.971   1.175   4.076 -0.4064 -0.7766  1.1421
 6618TIP3   OH219817   0.421   4.640   4.389  0.0281 -0.6328  0.0121
 6618TIP3    H119818   0.396   4.653   4.298 -0.1932 -1.2143 -0.0196
 6618TIP3    H219819   0.342   4.604   4.430  0.6717 -2.1561 -0.0035
 6619TIP3   OH219820   4.061   3.015   0.223 -0.1058  0.4144 -0.1853
 6619TIP3    H119821   4.050   3.109   0.241 -2.0295 -0.3717  4.0116
 6619TIP3    H219822   4.137   2.989   0.275 -1.3924 -0.7735  1.2037
 6620TIP3   OH219823   4.192   2.154   4.696  0.1386 -0.1686  0.4245
 6620TIP3    H119824   4.216   2.226   4.638  0.3233  1.2159  2.1415
 6620TIP3    H219825   4.097   2.162   4.706  0.2511  0.2797  1.1673
 6621TIP3   OH219826   0.029   5.312   0.298  0.3424 -0.4106  0.0687
 6621TIP3    H119827  -0.029   5.299   0.223 -0.8147 -0.7755  0.9940
 6621TIP3    H219828   0.079   5.391   0.276 -2.4340  1.5887  0.3627
 6622TIP3   OH219829   5.300   5.498   4.393  0.3045 -0.2936 -0.0874
 6622TIP3    H119830   5.299   5.403   4.392 -1.7588 -0.3999  2.2069
 6622TIP3    H219831   5.323   5.521   4.483 -4.1231  1.1566  0.8952
 6623TIP3   OH219832   2.428   4.505   4.214  0.1756  0.1075  0.3564
 6623TIP3    H119833   2.375   4.470   4.285 -0.5624  0.9821  0.2437
 6623TIP3    H219834   2.515   4.516   4.252 -0.0749  0.0213  0.9533
 6624TIP3   OH219835   5.539   4.584   4.114 -0.4604  0.5581  0.0408
 6624TIP3    H119836   5.497   4.537   4.042  1.7109  1.3682 -1.8476
 6624TIP3    H219837   5.605   4.523   4.148 -0.5376  0.6952  0.4519
 6625TIP3   OH219838   1.066   5.449   5.615 -0.0177 -0.6023 -0.5986
 6625TIP3    H119839   1.096   5.424   5.527 -3.1271 -3.1299 -1.1403
 6625TIP3    H219840   1.108   5.386   5.673  2.9857  1.7857  0.1049
 6626TIP3   OH219841   0.853   1.079   2.228 -0.2102  0.5509  0.2062
 6626TIP3    H119842   0.785   1.118   2.283 -1.0984  0.1522 -0.5689
 6626TIP3    H219843   0.927   1.066   2.286 -0.6091  1.5122  0.9466
 6627TIP3   OH219844   1.866   2.291   2.264 -0.2416  0.1508  0.2595
 6627TIP3    H119845   1.782   2.266   2.225  0.0787  1.0176 -1.0683
 6627TIP3    H219846   1.906   2.350   2.199  1.3599 -0.1878  0.8891
 6628TIP3   OH219847   0.613   0.384   2.300  0.0179 -0.2462 -0.4558
 6628TIP3    H119848   0.699   0.426   2.309 -0.1009  0.3981 -2.0350
 6628TIP3    H219849   0.552   0.456   2.292 -0.5177 -0.7207 -0.6541
 6629TIP3   OH219850   1.147   4.593   5.627  0.1534  0.0794  0.1369
 6629TIP3    H119851   1.066   4.582   5.676 -1.3811 -0.7273 -2.3859
 6629TIP3    H219852   1.176   4.503   5.610  0.3892  0.3253 -0.7885
 6630TIP3   OH219853   6.542   6.186   0.157  0.0668  0.1606 -0.3384
 6630TIP3    H119854   6.511   6.101   0.187  1.4803  0.2699  1.6344
 6630TIP3    H219855   6.527   6.245   0.231  1.9871  0.9009 -0.4783
 6631TIP3   OH219856   4.258   5.801   1.736  0.0103 -0.1613  0.8126
 6631TIP3    H119857   4.284   5.806   1.644  0.0522 -4.8721  0.3119
 6631TIP3    H219858   4.340   5.802   1.785  0.2066 -0.4544  0.4966
 6632TIP3   OH219859   6.297   3.739   3.828  0.8596 -0.1777 -0.1487
 6632TIP3    H119860   6.288   3.819   3.776  3.4271 -0.0227 -0.4998
 6632TIP3    H219861   6.288   3.769   3.919 -0.9756 -0.0007 -0.3573
 6633TIP3   OH219862   2.670   1.211   5.840  0.4873 -0.5807 -0.5323
 6633TIP3    H119863   2.655   1.305   5.832  0.4388 -0.6039 -0.7113
 6633TIP3    H219864   2.683   1.197   5.934 -0.7499 -0.5839 -0.3544
 6634TIP3   OH219865   5.611   6.476   0.685 -0.0029  0.1646 -0.5555
 6634TIP3    H119866   5.649   6.555   0.645 -0.5126  0.8414  0.2525
 6634TIP3    H219867   5.576   6.507   0.769  1.5442 -1.3293  0.7011
 6635TIP3   OH219868   3.147   3.834   1.794 -0.0186  0.2221 -0.0626
 6635TIP3    H119869   3.155   3.830   1.699  1.6219  0.6813  0.0306
 6635TIP3    H219870   3.169   3.924   1.816 -0.3701  0.1155  0.7700
 6636TIP3   OH219871   3.061   3.803   3.865  0.1222 -0.0443 -0.3824
 6636TIP3    H119872   3.065   3.709   3.847  0.2628 -0.2068  0.4970
 6636TIP3    H219873   3.147   3.836   3.841 -0.4533  0.1828 -2.3628
 6637TIP3   OH219874   1.013   4.557   3.593 -0.0879  0.8097  0.1551
 6637TIP3    H119875   1.000   4.648   3.566 -0.1132  0.2193 -1.9926
 6637TIP3    H219876   1.108   4.546   3.596 -0.0676  0.5129 -1.1277
 6638TIP3   OH219877   1.908   4.368   4.341 -0.5358  0.4804 -0.4702
 6638TIP3    H119878   1.831   4.334   4.295 -1.3893  1.3447  0.2794
 6638TIP3    H219879   1.901   4.463   4.331  1.0461  0.5339 -1.3164
 6639TIP3   OH219880   2.105   0.711   4.140 -0.1837 -0.3350 -0.2420
 6639TIP3    H119881   2.127   0.771   4.068 -3.2658  0.7779 -0.4115
 6639TIP3    H219882   2.153   0.746   4.215  1.1571 -0.0356 -1.2081
 6640TIP3   OH219883   1.025   3.870   3.174  0.0586 -0.1019 -0.1482
 6640TIP3    H119884   1.029   3.937   3.106  2.4081 -0.7216 -0.7096
 6640TIP3    H219885   0.932   3.847   3.179 -0.6844  2.4529 -0.6209
 6641TIP3   OH219886   4.224   5.118   2.998 -0.1607 -0.9643  0.4535
 6641TIP3    H119887   4.210   5.042   3.055  0.5803  0.5296  2.7576
 6641TIP3    H219888   4.300   5.162   3.035 -1.6354  1.8925  0.3476
 6642TIP3   OH219889   5.468   2.218   4.408  0.3401  0.6210  0.0676
 6642TIP3    H119890   5.533   2.260   4.466  0.0932 -0.6154  1.2853
 6642TIP3    H219891   5.502   2.130   4.395 -0.0922  0.5963 -0.9427
 6643TIP3   OH219892   5.581   3.474   5.117  0.5113 -0.7234 -0.6698
 6643TIP3    H119893   5.519   3.419   5.164 -0.9078  1.6699  0.4514
 6643TIP3    H219894   5.550   3.474   5.027 -1.1004  0.2892 -0.1600
 6644TIP3   OH219895   3.806   6.507   0.486  0.2060 -0.1945  0.0458
 6644TIP3    H119896   3.847   6.450   0.551  0.8250 -0.8898 -0.9264
 6644TIP3    H219897   3.847   6.592   0.500  0.5785 -0.4199  0.3493
 6645TIP3   OH219898   7.212   6.530   2.771  0.2753 -0.3054 -0.2029
 6645TIP3    H119899   7.172   6.452   2.810 -1.0920  0.2105 -0.5083
 6645TIP3    H219900   7.225   6.507   2.679  0.2964 -0.3284 -0.1942
 6646TIP3   OH219901   5.158   5.095   0.350 -0.3853  0.0997 -0.0311
 6646TIP3    H119902   5.077   5.051   0.323 -1.3917  0.3449  2.3103
 6646TIP3    H219903   5.132   5.185   0.368  0.5251  0.3189  0.2358
 6647TIP3   OH219904   3.996   1.430   5.848  0.1078 -0.5183 -0.5701
 6647TIP3    H119905   3.971   1.337   5.855 -0.0399 -0.3924  0.7236
 6647TIP3    H219906   4.004   1.460   5.938  0.8539  0.5583 -0.9740
 6648TIP3   OH219907   7.152   2.962   4.020 -0.0479  0.1097  0.1603
 6648TIP3    H119908   7.218   2.923   4.078  0.9904  2.8376  0.9658
 6648TIP3    H219909   7.196   2.968   3.935  0.1935  0.4650  0.3052
 6649TIP3   OH219910   2.579   1.854   0.711  0.9172  0.1115 -0.2453
 6649TIP3    H119911   2.637   1.814   0.646 -0.6494  0.0076 -1.6397
 6649TIP3    H219912   2.517   1.785   0.733  0.7644  0.4910  0.5321
 6650TIP3   OH219913   5.106   5.521   3.396 -0.1164  0.1239  0.0217
 6650TIP3    H119914   5.080   5.471   3.474  3.7079 -1.7174  0.3271
 6650TIP3    H219915   5.068   5.473   3.323 -0.2135 -0.6409  0.5617
 6651TIP3   OH219916   3.214   0.748   3.683 -0.6025  0.6569 -0.1860
 6651TIP3    H119917   3.180   0.700   3.758 -0.2430 -0.1564 -0.5369
 6651TIP3    H219918   3.308   0.754   3.699 -0.4388 -0.0148 -0.8334
 6652TIP3   OH219919   0.198   1.260   4.184 -0.1755 -0.2632  0.4219
 6652TIP3    H119920   0.264   1.311   4.231  0.3433 -1.2496  0.8020
 6652TIP3    H219921   0.218   1.275   4.092 -0.3035  0.5552  0.5218
 6653TIP3   OH219922   1.666   2.235   0.452  0.1664 -0.2468  0.7082
 6653TIP3    H119923   1.714   2.270   0.377 -0.0319  0.7910  1.0458
 6653TIP3    H219924   1.703   2.148   0.466 -0.7575 -1.0525 -1.4582
 6654TIP3   OH219925   2.463   5.796   1.514  0.2587  0.6725 -0.3182
 6654TIP3    H119926   2.405   5.732   1.557 -0.4399  0.7654 -1.0854
 6654TIP3    H219927   2.497   5.849   1.586 -1.3951  1.2463  0.1074
 6655TIP3   OH219928   2.413   2.227   0.646 -0.5737 -0.2891 -0.4263
 6655TIP3    H119929   2.448   2.155   0.698 -2.1381 -1.1263 -0.4875
 6655TIP3    H219930   2.479   2.242   0.578  0.0653 -1.2137 -0.0250
 6656TIP3   OH219931   4.100   3.150   4.335 -0.3963  0.0105 -0.6652
 6656TIP3    H119932   4.085   3.236   4.373  0.4608 -0.2180  0.2300
 6656TIP3    H219933   4.083   3.089   4.406 -1.8363 -0.6413 -1.5171
 6657TIP3   OH219934   6.967   0.014   1.899  0.5250 -0.4837  0.2850
 6657TIP3    H119935   6.926   0.079   1.958  3.1521 -0.1786  1.9460
 6657TIP3    H219936   6.905   0.005   1.827 -1.9689  0.6240  2.1278
 6658TIP3   OH219937   3.310   5.654   2.526 -0.4324  0.3803  0.0533
 6658TIP3    H119938   3.297   5.730   2.468  0.4188 -0.2314 -0.9638
 6658TIP3    H219939   3.338   5.692   2.609  1.8667  1.1310 -0.9934
 6659TIP3   OH219940   1.734   0.793   5.767  0.0946 -0.0563 -0.2282
 6659TIP3    H119941   1.804   0.763   5.825 -0.3773  0.2182  0.4997
 6659TIP3    H219942   1.765   0.772   5.679  0.9399 -0.2432  0.1046
 6660TIP3   OH219943   5.750   3.606   0.428  0.3785  0.7753 -0.0601
 6660TIP3    H119944   5.846   3.615   0.427  0.4323  1.3327  2.8723
 6660TIP3    H219945   5.719   3.691   0.458 -1.0185  0.3177 -0.1646
 6661TIP3   OH219946   6.731   2.364   0.652 -0.4510 -0.2620  0.4018
 6661TIP3    H119947   6.737   2.399   0.563 -1.8939  0.2023  0.4582
 6661TIP3    H219948   6.643   2.327   0.658 -0.8611  0.8270  1.9940
 6662TIP3   OH219949   2.535   5.980   2.075  0.2221  0.1248 -0.2253
 6662TIP3    H119950   2.453   6.027   2.094 -1.2462 -1.3271 -2.3940
 6662TIP3    H219951   2.603   6.047   2.083 -1.3505  1.7877  0.1319
 6663TIP3   OH219952   0.697   2.331   0.527 -0.1342 -0.1446  0.7084
 6663TIP3    H119953   0.622   2.299   0.476  1.9159 -1.3525 -1.7711
 6663TIP3    H219954   0.669   2.418   0.557 -1.7452  0.4445 -2.0936
 6664TIP3   OH219955   5.321   3.446   5.472 -0.0208  0.2359 -0.0610
 6664TIP3    H119956   5.368   3.450   5.555 -0.9204 -0.0364  0.4799
 6664TIP3    H219957   5.389   3.443   5.405  0.7149  0.8352  0.6481
 6665TIP3   OH219958   5.177   4.506   3.229  0.5274 -0.4824 -0.3237
 6665TIP3    H119959   5.122   4.452   3.173 -2.0450  0.9126  0.6832
 6665TIP3    H219960   5.153   4.479   3.318  0.0196  1.4268  0.1683
 6666TIP3   OH219961   3.287   4.422   3.551  0.5138 -0.0025 -0.2159
 6666TIP3    H119962   3.208   4.454   3.507 -0.7880  1.6106  2.9384
 6666TIP3    H219963   3.255   4.357   3.613  1.7606  0.1045  0.5727
 6667TIP3   OH219964   4.220   2.011   3.098 -0.4986 -0.2560 -0.1849
 6667TIP3    H119965   4.309   2.036   3.073 -1.0124 -0.0237 -1.9382
 6667TIP3    H219966   4.227   1.982   3.189  1.7389 -2.0858 -0.8651
 6668TIP3   OH219967   6.668   3.268   3.945 -0.7578 -0.1788 -0.2398
 6668TIP3    H119968   6.603   3.274   4.015 -0.6489  2.5422 -0.2653
 6668TIP3    H219969   6.751   3.290   3.987  0.0611 -2.5388 -0.4456
 6669TIP3   OH219970   2.613   3.954   3.906  0.2159  0.2481 -0.1042
 6669TIP3    H119971   2.702   3.988   3.908 -0.2403  1.4664  1.6377
 6669TIP3    H219972   2.624   3.859   3.917  1.3675  0.0875 -2.2345
 6670TIP3   OH219973   0.929   0.263   3.542  0.5477  0.0101  0.0650
 6670TIP3    H119974   0.902   0.172   3.553 -1.7544  0.5027 -0.9725
 6670TIP3    H219975   0.890   0.310   3.616 -1.3013  0.6768 -1.2666
 6671TIP3   OH219976   1.952   3.124   4.433 -0.0982  0.2282 -0.3914
 6671TIP3    H119977   2.015   3.053   4.445  0.2250  0.6395  0.4659
 6671TIP3    H219978   1.880   3.103   4.492 -0.1320  0.4622 -0.3488
 6672TIP3   OH219979   1.835   2.403   1.639  0.0682  0.1347  0.3169
 6672TIP3    H119980   1.763   2.373   1.585 -1.5438  1.7269  1.4677
 6672TIP3    H219981   1.910   2.350   1.611 -1.6981 -2.2066 -0.3318
 6673TIP3   OH219982   1.218   1.563   3.129  0.3500 -0.4005  0.0213
 6673TIP3    H119983   1.196   1.615   3.206  0.0508 -1.7846  0.9096
 6673TIP3    H219984   1.234   1.627   3.060 -2.3530  0.8473  0.4125
 6674TIP3   OH219985   5.494   1.226   1.788  0.4817  0.0204 -0.4709
 6674TIP3    H119986   5.437   1.284   1.839  1.0316 -0.2498  0.4792
 6674TIP3    H219987   5.572   1.278   1.770  1.3711 -0.6778  1.1758
 6675TIP3   OH219988   0.776   2.966   4.117  0.3926  0.0018 -0.0231
 6675TIP3    H119989   0.850   3.020   4.088  1.1000 -0.9637 -0.0919
 6675TIP3    H219990   0.764   2.990   4.209  1.3847 -0.4457  0.2451
 6676TIP3   OH219991   1.880   5.600   4.616 -0.4291 -0.3048 -0.4588
 6676TIP3    H119992   1.913   5.537   4.552  5.0631  0.1194  1.4052
 6676TIP3    H219993   1.907   5.686   4.582 -0.9793  0.2879  0.5451
 6677TIP3   OH219994   0.773   1.602   4.455 -0.3419 -0.0328  0.1654
 6677TIP3    H119995   0.788   1.513   4.486 -0.2971 -0.0536  0.0834
 6677TIP3    H219996   0.851   1.651   4.483 -0.9999  0.3114  1.4722
 6678TIP3   OH219997   3.387   4.391   2.303  0.3518  0.0914  0.2798
 6678TIP3    H119998   3.353   4.441   2.377 -0.3743  0.5685 -0.3500
 6678TIP3    H219999   3.359   4.441   2.226  0.4024 -0.8028 -0.3358
 6679TIP3   OH220000   6.648   2.815   2.305  0.2323  0.2326  0.1512
 6679TIP3    H120001   6.637   2.767   2.387 -0.2581  2.6268  1.5950
 6679TIP3    H220002   6.708   2.761   2.253 -1.2927 -2.5339  1.0415
 6680TIP3   OH220003   0.459   4.832   2.611  0.3828 -0.3327 -0.0781
 6680TIP3    H120004   0.474   4.909   2.557  0.7575  0.2145  0.7816
 6680TIP3    H220005   0.375   4.797   2.581  0.8498 -0.3795 -1.3812
 6681TIP3   OH220006   1.457   2.890   4.836  0.5211 -0.1716  0.6028
 6681TIP3    H120007   1.455   2.821   4.902 -0.1075  0.7775  1.6014
 6681TIP3    H220008   1.476   2.970   4.885 -1.0158  0.7251 -0.1912
 6682TIP3   OH220009   1.766   0.412   5.827  0.4643 -0.3426  0.8207
 6682TIP3    H120010   1.833   0.480   5.825  1.7581 -1.4870  2.3586
 6682TIP3    H220011   1.813   0.334   5.856 -0.6597 -2.2732 -2.0871
 6683TIP3   OH220012   1.488   6.700   5.116  0.5246 -0.0552  0.5394
 6683TIP3    H120013   1.477   6.748   5.034  0.3609  0.0364  0.6161
 6683TIP3    H220014   1.583   6.699   5.131  0.5702 -0.2336  0.2512
 6684TIP3   OH220015   0.192   1.768   3.668 -0.4474 -0.0508  0.7294
 6684TIP3    H120016   0.111   1.733   3.706 -0.5086  0.9566  1.5683
 6684TIP3    H220017   0.194   1.859   3.696  0.7704  0.0489  0.3584
 6685TIP3   OH220018   1.590   2.847   3.569 -0.2537  0.1169  0.3470
 6685TIP3    H120019   1.537   2.813   3.497  1.3537  1.0209 -1.3548
 6685TIP3    H220020   1.680   2.823   3.546  0.4731  1.8791  1.1792
 6686TIP3   OH220021   2.512   0.087   5.084  0.3337  0.5855 -0.1024
 6686TIP3    H120022   2.555   0.156   5.033  1.7810  0.1770  0.5087
 6686TIP3    H220023   2.419   0.111   5.083  0.7909  2.5975  0.1737
 6687TIP3   OH220024   0.274   5.642   2.894 -0.1337 -0.3727  0.2741
 6687TIP3    H120025   0.336   5.582   2.853 -0.6095 -0.9168  0.3358
 6687TIP3    H220026   0.188   5.603   2.877 -0.6164  1.1828 -1.2324
 6688TIP3   OH220027   4.177   6.191   5.825  1.0064  0.0630  0.9925
 6688TIP3    H120028   4.223   6.271   5.801  0.3906  0.6766  1.7975
 6688TIP3    H220029   4.218   6.123   5.771  1.5846  0.8971  0.3437
 6689TIP3   OH220030   6.528   1.281   1.986  0.3971 -0.2792 -0.8394
 6689TIP3    H120031   6.463   1.350   2.002  1.0493 -0.2465  2.3346
 6689TIP3    H220032   6.603   1.328   1.950  1.2652  1.0170  2.3577
 6690TIP3   OH220033   5.955   2.031   2.318 -0.6507  0.1197  0.0134
 6690TIP3    H120034   5.889   2.097   2.341  1.4279  1.6212  2.1775
 6690TIP3    H220035   5.933   1.955   2.372  0.9772  1.6864  3.1658
 6691TIP3   OH220036   4.073   0.740   0.378 -0.2085  0.0145 -0.1237
 6691TIP3    H120037   4.056   0.809   0.314  2.4392  0.2253 -0.7278
 6691TIP3    H220038   4.048   0.659   0.334 -1.1214  0.3809 -0.3006
 6692TIP3   OH220039   6.801   4.798   4.904  0.5621 -0.0000  0.3556
 6692TIP3    H120040   6.839   4.860   4.966 -0.2060  2.1699 -1.2310
 6692TIP3    H220041   6.874   4.776   4.845  1.1080 -1.5201  1.5161
 6693TIP3   OH220042   6.508   1.919   4.702 -0.7987 -0.3031 -0.4586
 6693TIP3    H120043   6.554   1.933   4.619  0.3991  1.0657  0.4017
 6693TIP3    H220044   6.442   1.853   4.681  0.9267 -1.6552 -1.9699
 6694TIP3   OH220045   0.714   1.429   1.323 -0.0164 -0.2910  0.4700
 6694TIP3    H120046   0.682   1.369   1.255 -0.1482 -1.2712  1.3618
 6694TIP3    H220047   0.775   1.487   1.278 -1.9878  0.7361 -0.9979
 6695TIP3   OH220048   5.054   6.541   0.572  0.2841 -0.4511 -0.0260
 6695TIP3    H120049   5.141   6.502   0.581  0.0966 -0.5243  1.8613
 6695TIP3    H220050   5.060   6.625   0.617 -0.0665  0.5423 -1.7371
 6696TIP3   OH220051   6.793   6.542   3.789  0.2589  0.2833  0.1431
 6696TIP3    H120052   6.713   6.518   3.835 -0.5814  0.2474 -1.2741
 6696TIP3    H220053   6.860   6.485   3.825 -0.4536 -0.0328  1.0005
 6697TIP3   OH220054   6.619   5.496   1.196 -0.6228  0.4971 -0.1384
 6697TIP3    H120055   6.553   5.429   1.182  1.5276 -1.6878 -0.4666
 6697TIP3    H220056   6.681   5.485   1.124  0.3207  2.1931  0.3450
 6698TIP3   OH220057   6.084   3.043   3.331  0.1085  0.3977 -0.3638
 6698TIP3    H120058   6.176   3.015   3.339 -0.5526 -2.2583 -1.0785
 6698TIP3    H220059   6.044   3.014   3.414 -0.0642  1.8183  0.0753
 6699TIP3   OH220060   4.173   4.529   5.405 -0.6327  0.4735 -0.3316
 6699TIP3    H120061   4.088   4.507   5.443 -0.2925 -1.1242 -0.4051
 6699TIP3    H220062   4.181   4.471   5.329  0.2856  1.0178 -0.6711
 6700TIP3   OH220063   2.672   6.585   2.957  0.3608 -0.1028 -1.1979
 6700TIP3    H120064   2.638   6.667   2.994 -0.1366 -0.6023 -0.5467
 6700TIP3    H220065   2.767   6.591   2.969  0.2503 -0.0070 -0.3665
 6701TIP3   OH220066   2.087   5.799   1.414  0.6205 -0.1366  0.7821
 6701TIP3    H120067   2.090   5.885   1.454 -0.4826  0.2230  0.1459
 6701TIP3    H220068   2.005   5.799   1.364  0.3029 -1.7667  1.2510
 6702TIP3   OH220069   4.442   4.984   1.234 -0.0822 -0.4167 -0.0891
 6702TIP3    H120070   4.451   5.056   1.296 -1.2494 -0.5915  0.2999
 6702TIP3    H220071   4.457   4.905   1.285  0.4041 -0.4955 -0.3472
 6703TIP3   OH220072   2.602   1.059   2.644 -0.6526  0.0533  0.3262
 6703TIP3    H120073   2.555   1.113   2.708  1.1767  1.0754  0.8605
 6703TIP3    H220074   2.649   0.994   2.697 -0.0304  0.1776 -0.0638
 6704TIP3   OH220075   5.095   4.370   2.850  0.2544  0.6459  0.1689
 6704TIP3    H120076   5.031   4.403   2.912 -1.5612 -0.8777 -0.7882
 6704TIP3    H220077   5.166   4.337   2.905 -0.8500  0.2377  1.4045
 6705TIP3   OH220078   3.024   5.738   1.587  0.2823  0.2461  0.2509
 6705TIP3    H120079   3.013   5.748   1.492  0.1112 -2.1325 -0.0471
 6705TIP3    H220080   3.073   5.656   1.597  0.1400  0.3581  2.2206
 6706TIP3   OH220081   1.081   5.576   3.247  0.3458  0.4902 -0.3398
 6706TIP3    H120082   0.995   5.587   3.205  1.0433  1.1536 -1.6546
 6706TIP3    H220083   1.083   5.641   3.316 -0.5867 -0.2032  0.3693
 6707TIP3   OH220084   0.004   0.739   3.420 -0.2458 -0.3036 -0.4292
 6707TIP3    H120085   0.079   0.698   3.463  0.1159 -0.4967 -1.2134
 6707TIP3    H220086  -0.064   0.742   3.487  0.1581 -0.9912  0.0254
 6708TIP3   OH220087   2.780   1.713   2.424  0.6434  0.7096 -0.5154
 6708TIP3    H120088   2.753   1.621   2.430  2.1825  0.1895 -1.0719
 6708TIP3    H220089   2.711   1.755   2.373  0.2203 -0.2670 -0.7765
 6709TIP3   OH220090   3.431   1.613   3.969 -0.1936  0.0780  0.4231
 6709TIP3    H120091   3.353   1.557   3.967  0.0972 -0.3220  0.0578
 6709TIP3    H220092   3.505   1.552   3.965  0.1445  0.4989 -2.4480
 6710TIP3   OH220093   5.281   6.433   3.953  0.4699 -0.5719 -0.4524
 6710TIP3    H120094   5.286   6.505   3.890  1.7570 -1.0655 -0.9481
 6710TIP3    H220095   5.334   6.363   3.914  1.1113 -0.9678  1.0645
 6711TIP3   OH220096   4.177   3.602   4.928  0.1570  0.0575 -0.0594
 6711TIP3    H120097   4.126   3.608   4.847 -1.3619 -1.2241  0.7592
 6711TIP3    H220098   4.115   3.570   4.993  1.7403 -0.4095  1.2737
 6712TIP3   OH220099   2.155   3.939   5.305  0.3028  0.9434  0.3327
 6712TIP3    H120100   2.118   4.005   5.364 -0.4913  0.6166  0.2056
 6712TIP3    H220101   2.200   3.877   5.363 -2.6030 -0.7948  0.9041
 6713TIP3   OH220102   1.257   3.478   1.990  0.3848 -0.1385 -0.0511
 6713TIP3    H120103   1.335   3.531   2.007  2.0407 -2.1400 -0.9752
 6713TIP3    H220104   1.289   3.388   1.986 -1.9680 -1.0364 -0.6510
 6714TIP3   OH220105   3.239   0.463   1.163 -0.0034  0.5578  0.4192
 6714TIP3    H120106   3.144   0.458   1.168  0.0682 -1.9792  0.1583
 6714TIP3    H220107   3.270   0.430   1.247  0.6368 -2.0907 -0.7596
 6715TIP3   OH220108   5.477   0.137   2.326  0.2399  0.4324  0.6118
 6715TIP3    H120109   5.504   0.227   2.346 -0.2628  0.7011  0.1480
 6715TIP3    H220110   5.464   0.138   2.231  0.3111 -0.1541  0.5979
 6716TIP3   OH220111   6.675   3.712   5.853 -0.5223  0.3450 -0.0048
 6716TIP3    H120112   6.746   3.773   5.875 -0.1333  0.6598 -1.9409
 6716TIP3    H220113   6.595   3.763   5.866 -0.2780  0.7280  0.0220
 6717TIP3   OH220114   1.089   0.007   3.501 -0.2262 -0.1579 -0.4006
 6717TIP3    H120115   0.995  -0.008   3.488 -0.1695 -0.2987 -0.6712
 6717TIP3    H220116   1.098   0.024   3.594 -0.6682  0.9290 -0.5369
 6718TIP3   OH220117   1.072   3.839   0.679  0.1735  0.7486  0.6164
 6718TIP3    H120118   1.037   3.924   0.707 -0.3407  0.2988  1.3582
 6718TIP3    H220119   1.067   3.784   0.757  0.8850  0.1471  0.2469
 6719TIP3   OH220120   5.707   4.976   4.850 -0.0505 -0.3649  0.0544
 6719TIP3    H120121   5.697   4.919   4.926  1.0205 -0.4299  0.1665
 6719TIP3    H220122   5.718   5.064   4.887 -2.2585  0.0525 -0.1330
 6720TIP3   OH220123   5.974   2.610   4.853  0.2422 -0.0352  0.8755
 6720TIP3    H120124   5.886   2.571   4.852 -0.1893  0.9133 -0.0477
 6720TIP3    H220125   5.958   2.704   4.847  1.3306  0.0597 -1.9579
 6721TIP3   OH220126   5.210   0.130   4.502  0.7551 -0.1686 -0.1666
 6721TIP3    H120127   5.256   0.133   4.585  1.0887  0.4795 -0.3702
 6721TIP3    H220128   5.211   0.220   4.470  0.1350 -0.3102 -0.6015
 6722TIP3   OH220129   3.572   3.777   5.503 -0.6119  0.0901  0.3191
 6722TIP3    H120130   3.583   3.845   5.569 -1.1111  0.5305 -0.0494
 6722TIP3    H220131   3.523   3.708   5.548 -2.2824  1.0293 -0.0094
 6723TIP3   OH220132   2.186   2.223   3.999 -0.2586  0.0109 -0.3216
 6723TIP3    H120133   2.193   2.303   4.050  0.2154 -0.6245  0.6561
 6723TIP3    H220134   2.255   2.166   4.034  0.9595  0.0024 -2.5561
 6724TIP3   OH220135   6.577   4.116   0.020  0.0099  0.4153  0.0526
 6724TIP3    H120136   6.627   4.117   0.102 -0.0457  0.2400  0.0894
 6724TIP3    H220137   6.510   4.048   0.034 -0.1793  0.5830 -0.0304
 6725TIP3   OH220138   3.436   5.377   4.280  0.1429 -0.4086  0.2122
 6725TIP3    H120139   3.387   5.420   4.350 -0.2794  0.9062 -0.8509
 6725TIP3    H220140   3.522   5.358   4.319 -0.0304  0.4296  1.0438
 6726TIP3   OH220141   4.545   4.046   2.975 -0.0084  0.3153 -0.3750
 6726TIP3    H120142   4.638   4.028   2.964 -0.3228 -0.6742 -1.5915
 6726TIP3    H220143   4.530   4.125   2.923  0.3455  1.1427  0.7356
 6727TIP3   OH220144   5.510   4.706   1.411 -0.0593  0.2605 -0.3299
 6727TIP3    H120145   5.437   4.648   1.434 -0.6863  1.2971  0.3559
 6727TIP3    H220146   5.480   4.753   1.334  0.0250  0.4323 -0.2584
 6728TIP3   OH220147   1.404   3.925   2.197  0.6761  0.4423  0.3711
 6728TIP3    H120148   1.446   4.010   2.182 -1.0405  1.3217  0.3040
 6728TIP3    H220149   1.429   3.901   2.286  1.2762  0.9603  0.3493
 6729TIP3   OH220150   0.451   2.433   2.267 -0.3063  0.2671  0.9685
 6729TIP3    H120151   0.442   2.525   2.293  0.4936  0.9978 -1.1221
 6729TIP3    H220152   0.362   2.406   2.246 -0.3618  1.0804  0.0856
 6730TIP3   OH220153   0.032   2.555   3.280  0.1006  0.2488  0.5155
 6730TIP3    H120154   0.101   2.492   3.256  0.8329  0.7097  1.3628
 6730TIP3    H220155   0.062   2.638   3.242 -0.7842  0.1385 -0.4651
 6731TIP3   OH220156   2.364   3.323   5.756 -0.4398  0.1959 -0.0797
 6731TIP3    H120157   2.361   3.230   5.736 -1.7909  0.0493  0.6560
 6731TIP3    H220158   2.296   3.335   5.823  1.5878  1.1965  1.9526
 6732TIP3   OH220159   0.542   0.238   1.796  0.0712 -0.6621 -0.3211
 6732TIP3    H120160   0.576   0.324   1.775  0.6673 -0.6305  0.7067
 6732TIP3    H220161   0.459   0.233   1.750 -0.7853  1.1247  0.8962
 6733TIP3   OH220162   0.498   0.235   3.027  0.2922 -0.3696 -0.5621
 6733TIP3    H120163   0.577   0.232   2.972  0.4031 -0.5026 -0.3942
 6733TIP3    H220164   0.444   0.163   2.994 -0.5108  0.7608 -1.8153
 6734TIP3   OH220165   4.074   5.264   1.513  0.0984 -0.5811 -0.4378
 6734TIP3    H120166   4.135   5.291   1.583  0.6663  0.1611 -1.1881
 6734TIP3    H220167   4.021   5.196   1.553  1.0191 -0.8200  0.4440
 6735TIP3   OH220168   0.685   4.586   3.979  0.0756  0.8372  0.2675
 6735TIP3    H120169   0.652   4.648   4.044 -0.0458  0.6520  0.3861
 6735TIP3    H220170   0.752   4.536   4.026 -1.0473 -0.3097  0.7157
 6736TIP3   OH220171   7.111   6.308   2.543  0.1954 -0.6291 -0.4329
 6736TIP3    H120172   7.060   6.308   2.624 -0.4585 -1.7858 -0.8140
 6736TIP3    H220173   7.175   6.237   2.555  0.5899 -0.3141 -0.6397
 6737TIP3   OH220174   2.208   6.733   0.221  0.5115 -0.0920  0.0870
 6737TIP3    H120175   2.189   6.784   0.300 -1.0313  1.0603 -0.9700
 6737TIP3    H220176   2.199   6.796   0.150 -1.2605 -1.7784 -1.2653
 6738TIP3   OH220177   2.280   6.145   5.870  0.2982  0.6034  0.4389
 6738TIP3    H120178   2.348   6.122   5.806 -0.4622 -0.1580 -0.1256
 6738TIP3    H220179   2.221   6.203   5.822 -0.4817 -0.2727  0.3182
 6739TIP3   OH220180   2.284   6.142   0.473  0.5909 -0.0822  0.3539
 6739TIP3    H120181   2.260   6.141   0.380 -0.9825  1.9341  0.6555
 6739TIP3    H220182   2.226   6.078   0.513  1.1321 -0.8128 -0.0231
 6740TIP3   OH220183   3.885   0.651   1.003 -0.2345  0.3241  0.0635
 6740TIP3    H120184   3.936   0.580   0.965  2.4234  1.4169  1.2963
 6740TIP3    H220185   3.795   0.620   1.001  0.4546 -1.8641 -2.0012
 6741TIP3   OH220186   1.425   1.975   4.165  0.1766  0.1863 -0.2832
 6741TIP3    H120187   1.396   1.925   4.241  0.4253 -1.0090 -0.9521
 6741TIP3    H220188   1.453   2.059   4.201  0.3384 -0.3744  0.9509
 6742TIP3   OH220189   2.235   3.326   3.987 -0.5991 -0.0243  0.0392
 6742TIP3    H120190   2.186   3.403   4.014 -0.9039  0.2781 -1.3172
 6742TIP3    H220191   2.240   3.332   3.891  0.7347 -0.8630  0.0195
 6743TIP3   OH220192   3.214   0.599   1.597 -0.6529  0.1945 -0.4961
 6743TIP3    H120193   3.163   0.670   1.557  0.3008  1.1618 -0.0537
 6743TIP3    H220194   3.259   0.558   1.524 -0.8060  0.3776 -0.6955
 6744TIP3   OH220195   5.937   1.692   0.778 -0.3396  0.4120  0.5499
 6744TIP3    H120196   5.889   1.669   0.857  0.6435 -0.0684  1.0215
 6744TIP3    H220197   5.943   1.610   0.729  2.0949 -0.1446  1.6541
 6745TIP3   OH220198   2.279   1.572   5.651 -0.5609 -0.1731 -0.0495
 6745TIP3    H120199   2.214   1.506   5.628 -2.0439  0.7654  1.2062
 6745TIP3    H220200   2.353   1.522   5.685 -0.6166 -1.2716 -1.4460
 6746TIP3   OH220201   2.068   2.387   1.843  0.4062  0.2882  0.0116
 6746TIP3    H120202   2.106   2.474   1.830  0.1082  0.5374  0.8080
 6746TIP3    H220203   2.059   2.352   1.754  0.7850  0.9561 -0.2973
 6747TIP3   OH220204   6.271   3.222   1.552  0.0656  0.0135  0.5935
 6747TIP3    H120205   6.182   3.222   1.587 -1.0344 -1.1317 -1.9569
 6747TIP3    H220206   6.320   3.279   1.611 -1.9950 -0.4289  2.8935
 6748TIP3   OH220207   0.541   1.824   1.212  0.4336 -0.2225  0.4364
 6748TIP3    H120208   0.450   1.799   1.198  0.3179  0.5867 -0.3812
 6748TIP3    H220209   0.586   1.794   1.133  0.9721 -1.0231  1.0381
 6749TIP3   OH220210   0.196   6.546   1.757  0.4478  0.2578 -0.3204
 6749TIP3    H120211   0.102   6.550   1.740  0.5653 -0.2954 -1.2186
 6749TIP3    H220212   0.210   6.603   1.832 -0.8084 -0.7914  0.7499
 6750TIP3   OH220213   4.946   0.658   1.361 -0.2344  0.7617  0.0209
 6750TIP3    H120214   4.932   0.728   1.297  0.0836  1.4894  0.7380
 6750TIP3    H220215   4.866   0.656   1.413 -0.0330  0.9481  0.3398
 6751TIP3   OH220216   1.634   2.126   5.635  0.0734 -0.6272 -0.0913
 6751TIP3    H120217   1.550   2.089   5.662 -0.6022  0.1320 -1.1017
 6751TIP3    H220218   1.699   2.066   5.672 -0.9361 -1.7851 -0.1296
 6752TIP3   OH220219   0.613   3.311   0.116  0.1958  0.0670 -0.0538
 6752TIP3    H120220   0.532   3.280   0.077  0.9002 -1.7660 -0.1755
 6752TIP3    H220221   0.630   3.249   0.187  0.3510  1.7323  1.4315
 6753TIP3   OH220222   4.593   5.003   4.999  0.3557 -0.3417  0.7940
 6753TIP3    H120223   4.564   4.925   5.047 -1.7898  0.2916  0.6573
 6753TIP3    H220224   4.599   4.974   4.908 -0.5960 -0.3458  0.7186
 6754TIP3   OH220225   3.869   2.939   3.685 -0.1381 -0.0064  0.0673
 6754TIP3    H120226   3.830   3.026   3.685  1.0232  0.9060 -5.4803
 6754TIP3    H220227   3.958   2.953   3.717 -0.6933  0.2644  1.5639
 6755TIP3   OH220228   6.954   4.508   3.846 -0.0651 -0.3477  0.0781
 6755TIP3    H120229   6.915   4.494   3.932  1.1898 -1.1148  0.5591
 6755TIP3    H220230   6.917   4.439   3.791  1.5138 -1.9032  0.8671
 6756TIP3   OH220231   5.977   2.825   5.312  0.3756 -0.3031 -0.0810
 6756TIP3    H120232   5.912   2.864   5.254 -0.7523 -0.0522  1.2826
 6756TIP3    H220233   6.007   2.746   5.266 -1.6901 -1.0140 -0.3038
 6757TIP3   OH220234   6.187   4.400   4.853  0.4365 -0.1890  0.8757
 6757TIP3    H120235   6.148   4.313   4.856  1.2202 -0.5909 -0.0484
 6757TIP3    H220236   6.272   4.390   4.896  0.8042 -0.0340  0.1942
 6758TIP3   OH220237   1.910   2.949   1.883 -0.0019  0.7899 -0.0781
 6758TIP3    H120238   1.938   3.018   1.943 -0.0410  1.0417 -0.3435
 6758TIP3    H220239   1.838   2.905   1.928 -0.0714  1.0165  0.0355
 6759TIP3   OH220240   3.651   2.269   2.341  0.0897  0.2116  0.5975
 6759TIP3    H120241   3.615   2.211   2.274  0.2019 -0.4683  1.1183
 6759TIP3    H220242   3.710   2.326   2.293  3.5870 -3.0310  0.5934
 6760TIP3   OH220243   2.526   3.232   2.591  0.1194 -0.4517  0.6684
 6760TIP3    H120244   2.434   3.241   2.566  0.4431  0.7647 -0.1693
 6760TIP3    H220245   2.562   3.171   2.527  0.4423  0.9894 -0.5810
 6761TIP3   OH220246   5.482   0.932   3.687  0.3940 -0.3918 -0.3147
 6761TIP3    H120247   5.405   0.958   3.636  1.1576  1.6419 -0.5409
 6761TIP3    H220248   5.543   0.895   3.623 -0.2136 -1.6806 -0.1868
 6762TIP3   OH220249   2.473   6.586   1.218 -0.4061  0.1001  0.1052
 6762TIP3    H120250   2.416   6.644   1.270 -1.1089 -0.7539  0.3095
 6762TIP3    H220251   2.420   6.564   1.141  0.8033  1.7535 -1.2768
 6763TIP3   OH220252   1.629   2.258   1.486 -0.1419 -0.0099 -0.0618
 6763TIP3    H120253   1.623   2.287   1.395 -2.8500  0.4491  0.1906
 6763TIP3    H220254   1.587   2.172   1.487  0.9779 -0.5663  0.5643
 6764TIP3   OH220255   2.255   6.448   0.310  0.4597  0.1816 -0.5664
 6764TIP3    H120256   2.181   6.482   0.360  0.3701  0.4671 -0.8901
 6764TIP3    H220257   2.279   6.519   0.250  1.6217  0.4648  0.1946
 6765TIP3   OH220258   5.378   1.860   2.530 -0.4733  0.5272  0.0998
 6765TIP3    H120259   5.456   1.833   2.579  0.6316  1.3013 -1.1803
 6765TIP3    H220260   5.339   1.928   2.585 -0.5816 -0.2467  1.0147
 6766TIP3   OH220261   4.176   0.627   2.301 -0.4725  0.4408  0.2510
 6766TIP3    H120262   4.193   0.551   2.357  0.0747  0.4063  0.0404
 6766TIP3    H220263   4.249   0.687   2.319 -0.4333  0.5430 -0.2260
 6767TIP3   OH220264   6.418   6.611   3.840  0.0186 -0.2894 -0.2708
 6767TIP3    H120265   6.378   6.535   3.799  0.4365  1.1805 -3.7469
 6767TIP3    H220266   6.450   6.579   3.924 -0.8937 -3.6021 -1.0415
 6768TIP3   OH220267   3.548   6.351   0.996  0.3007 -0.5249 -0.1671
 6768TIP3    H120268   3.619   6.406   0.964  0.5129  0.4195  1.7531
 6768TIP3    H220269   3.590   6.268   1.021  0.4908 -0.4690 -0.3081
 6769TIP3   OH220270   5.677   6.330   2.409  0.1403 -0.0484 -0.1550
 6769TIP3    H120271   5.605   6.390   2.388 -0.4557 -0.8668 -0.5030
 6769TIP3    H220272   5.634   6.248   2.434  0.9389 -0.3042  0.4130
 6770TIP3   OH220273   0.843   4.411   1.921 -0.7608  0.1446 -0.3211
 6770TIP3    H120274   0.903   4.368   1.861  0.3616  0.7333  0.3537
 6770TIP3    H220275   0.878   4.394   2.008 -1.5741  0.4939  0.0922
 6771TIP3   OH220276   2.051   2.034   2.152 -0.0996 -0.0508 -0.5043
 6771TIP3    H120277   2.114   1.994   2.092 -0.1434 -0.0970 -0.5205
 6771TIP3    H220278   1.972   2.045   2.099 -0.7431 -1.7810  0.0056
 6772TIP3   OH220279   1.010   3.127   4.721 -0.3571  0.0926  0.1092
 6772TIP3    H120280   1.020   3.222   4.718  0.6196  0.0486  1.3187
 6772TIP3    H220281   1.020   3.104   4.813 -1.3434 -1.1182 -0.0570
 6773TIP3   OH220282   6.202   2.369   1.544 -0.1743 -0.1879 -0.3043
 6773TIP3    H120283   6.277   2.412   1.586  0.4714 -1.1239 -0.4847
 6773TIP3    H220284   6.196   2.284   1.586 -3.6267  1.2291  2.6137
 6774TIP3   OH220285   1.220   3.409   2.417  0.0162  0.2258 -0.2873
 6774TIP3    H120286   1.127   3.400   2.435  0.1897 -0.5858  0.2441
 6774TIP3    H220287   1.228   3.494   2.374 -0.7818  0.9825  1.0011
 6775TIP3   OH220288   1.176   0.539   5.028  0.0493  0.4360  0.2649
 6775TIP3    H120289   1.168   0.619   5.079 -0.0145  0.0889  0.8105
 6775TIP3    H220290   1.088   0.520   4.997 -0.2925 -0.3645  1.6127
 6776TIP3   OH220291   4.928   0.138   0.935 -0.2061  0.1095 -0.2959
 6776TIP3    H120292   4.920   0.201   1.006  1.9194 -0.3141  0.3948
 6776TIP3    H220293   4.995   0.077   0.965  0.7173 -0.1156 -2.6146
 6777TIP3   OH220294   5.983   3.095   5.766 -0.9104  0.4279  0.3133
 6777TIP3    H120295   5.926   3.018   5.762 -0.6036  0.1215  1.4208
 6777TIP3    H220296   6.065   3.066   5.725 -1.2240  0.5855 -0.4486
 6778TIP3   OH220297   6.422   5.821   2.321  0.3079  0.0252 -0.4420
 6778TIP3    H120298   6.383   5.738   2.292 -0.2045 -0.4898  1.6035
 6778TIP3    H220299   6.455   5.861   2.240  2.4229 -3.0864 -1.3188
 6779TIP3   OH220300   1.452   0.937   1.176  0.1640 -0.3033  0.0504
 6779TIP3    H120301   1.447   0.929   1.080 -0.7024 -0.2643  0.0818
 6779TIP3    H220302   1.444   1.031   1.193 -1.3962 -0.4427  0.2267
 6780TIP3   OH220303   2.336   4.217   2.780  0.3754  0.8188  0.2091
 6780TIP3    H120304   2.366   4.127   2.783  0.8216  0.9750  0.4797
 6780TIP3    H220305   2.390   4.263   2.844  0.0404  1.2455  0.1935
 6781TIP3   OH220306   1.729   1.394   1.622  0.0246  0.0135  0.1826
 6781TIP3    H120307   1.813   1.391   1.668  1.6019 -0.9345 -2.5453
 6781TIP3    H220308   1.722   1.485   1.592 -0.1735  0.2091  0.8076
 6782TIP3   OH220309   5.631   3.570   0.733  0.6254 -0.0034 -0.4385
 6782TIP3    H120310   5.710   3.526   0.702  1.7041  0.7398  1.1201
 6782TIP3    H220311   5.663   3.645   0.783 -1.0819  0.6085 -0.2060
 6783TIP3   OH220312   4.012   2.918   5.846  0.4351 -0.1714  0.4070
 6783TIP3    H120313   4.042   2.884   5.930  0.0400 -0.4166  0.4532
 6783TIP3    H220314   4.017   2.843   5.787 -1.3263 -0.5819  0.7312
 6784TIP3   OH220315   4.487   5.436   4.104 -0.2432 -0.2237  0.1430
 6784TIP3    H120316   4.526   5.517   4.136 -1.4157  0.4886 -0.1787
 6784TIP3    H220317   4.534   5.417   4.023 -0.2417  0.3754 -0.0007
 6785TIP3   OH220318   7.226   1.498   1.213 -0.1618  0.2840  0.4812
 6785TIP3    H120319   7.248   1.542   1.295 -0.0106 -0.5016  0.8657
 6785TIP3    H220320   7.148   1.447   1.233 -0.5996  0.7164 -0.0836
 6786TIP3   OH220321   7.128   3.320   1.090  0.5201 -0.6390 -0.0221
 6786TIP3    H120322   7.181   3.315   1.169  2.7941  0.5258 -1.3586
 6786TIP3    H220323   7.121   3.414   1.072 -1.4275 -0.7938 -0.3097
 6787TIP3   OH220324   3.652   4.746   2.240 -0.5914  0.8731  0.1976
 6787TIP3    H120325   3.665   4.653   2.257 -1.0154  1.1021  2.0051
 6787TIP3    H220326   3.608   4.749   2.156  0.8972 -0.4543 -0.6940
 6788TIP3   OH220327   3.176   2.210   4.074 -0.4007 -0.2385 -0.0298
 6788TIP3    H120328   3.124   2.134   4.102 -1.4284  0.7967  0.9532
 6788TIP3    H220329   3.186   2.199   3.979  2.8312 -3.6612  0.4554
 6789TIP3   OH220330   6.397   5.735   3.591 -0.3652 -0.3790  0.1057
 6789TIP3    H120331   6.472   5.698   3.637  0.3347 -0.4347 -1.0354
 6789TIP3    H220332   6.394   5.827   3.619 -0.1211 -0.4820  0.4731
 6790TIP3   OH220333   4.211   1.947   3.850  0.0011  0.4366  0.1069
 6790TIP3    H120334   4.135   1.920   3.902  0.9417 -1.3801  0.6390
 6790TIP3    H220335   4.284   1.947   3.912  0.5502  1.6480 -0.4996
 6791TIP3   OH220336   0.923   0.649   5.474  0.1975  0.0180 -0.0655
 6791TIP3    H120337   1.003   0.649   5.421  0.4265 -1.8906  0.2327
 6791TIP3    H220338   0.899   0.557   5.484 -0.9213  0.4195  1.5349
 6792TIP3   OH220339   3.368   3.469   4.371  0.0315  0.3972  0.3055
 6792TIP3    H120340   3.295   3.430   4.419 -0.3148  0.5265 -0.1066
 6792TIP3    H220341   3.433   3.400   4.365 -0.9658 -0.4725 -1.2711
 6793TIP3   OH220342   5.080   1.169   4.973 -0.7701 -0.0955  0.0505
 6793TIP3    H120343   5.067   1.194   5.064 -2.0660  0.2898 -0.2142
 6793TIP3    H220344   5.159   1.115   4.974  0.0431  1.0512  1.1765
 6794TIP3   OH220345   2.940   1.574   5.175  0.2731 -0.1772  0.3435
 6794TIP3    H120346   2.941   1.607   5.085  0.9301 -0.9798  0.0433
 6794TIP3    H220347   2.849   1.549   5.190 -0.1880  1.4973  0.4920
 6795TIP3   OH220348   6.265   3.841   2.964  1.0524  1.2050  0.1067
 6795TIP3    H120349   6.338   3.791   2.926  1.8963  1.3021  1.5186
 6795TIP3    H220350   6.253   3.802   3.051 -0.0403  1.7467  0.2069
 6796TIP3   OH220351   1.675   2.877   3.062 -0.2493  0.6282  0.7967
 6796TIP3    H120352   1.658   2.818   3.136 -0.5964  0.4606  0.5884
 6796TIP3    H220353   1.593   2.927   3.052 -0.8403 -0.5379 -0.5413
 6797TIP3   OH220354   4.369   6.305   2.473  0.2026 -0.1879 -0.0143
 6797TIP3    H120355   4.279   6.288   2.445 -0.3750  0.4325  1.3716
 6797TIP3    H220356   4.392   6.229   2.526  1.0849 -1.0882 -1.6307
 6798TIP3   OH220357   1.126   0.039   3.776  0.2980  0.4839 -0.1931
 6798TIP3    H120358   1.208   0.003   3.810 -1.0289 -0.5351  2.1823
 6798TIP3    H220359   1.108   0.114   3.833 -0.4575  0.6340 -0.6253
 6799TIP3   OH220360   7.111   6.050   2.996  1.0255  0.3078 -0.0944
 6799TIP3    H120361   7.038   6.027   3.053  0.5204 -0.3251 -0.9636
 6799TIP3    H220362   7.189   6.034   3.048  0.5594  0.2858  0.6023
 6800TIP3   OH220363   4.092   2.975   3.284  0.1182  0.0294 -0.6448
 6800TIP3    H120364   4.036   2.913   3.330  2.8798 -1.5471  0.8997
 6800TIP3    H220365   4.151   2.921   3.231  3.0873  1.0660  1.2934
 6801TIP3   OH220366   0.249   5.289   5.160  0.2172 -0.3254 -0.7868
 6801TIP3    H120367   0.298   5.211   5.187  1.1292 -0.0923 -1.7107
 6801TIP3    H220368   0.200   5.261   5.083 -0.8823 -0.4635 -0.0603
 6802TIP3   OH220369   2.219   2.443   5.352 -0.3716 -0.0683  0.1683
 6802TIP3    H120370   2.276   2.370   5.377  0.2240  0.5505  0.6577
 6802TIP3    H220371   2.144   2.402   5.310 -1.3110 -1.1583  2.7414
 6803TIP3   OH220372   5.826   5.247   1.508 -0.0748 -0.2037  0.2648
 6803TIP3    H120373   5.913   5.248   1.549 -0.0196 -2.6724  0.3643
 6803TIP3    H220374   5.768   5.287   1.573  0.3754 -2.0494  1.8824
 6804TIP3   OH220375   1.610   0.485   5.617 -0.0130  0.1077 -0.0563
 6804TIP3    H120376   1.658   0.560   5.582 -2.3124  1.7252  0.0279
 6804TIP3    H220377   1.662   0.455   5.691  0.6908  1.9915  0.2487
 6805TIP3   OH220378   5.173   0.961   4.063 -0.3164  0.2779 -0.0516
 6805TIP3    H120379   5.139   0.872   4.060  0.8674 -0.1660 -0.9290
 6805TIP3    H220380   5.268   0.951   4.075 -0.3857  1.4635  2.0698
 6806TIP3   OH220381   3.736   0.926   1.724  0.2590  0.9360 -0.2899
 6806TIP3    H120382   3.784   0.951   1.645 -0.3859  0.1971 -0.9369
 6806TIP3    H220383   3.662   0.874   1.692 -0.3007  1.0417  0.7652
 6807TIP3   OH220384   4.361   0.027   4.092 -0.5053  0.4829  0.9849
 6807TIP3    H120385   4.316  -0.053   4.064 -2.5788  2.2235 -1.1247
 6807TIP3    H220386   4.337   0.038   4.184 -2.4026  0.0099  0.5793
 6808TIP3   OH220387   0.610   3.614   2.982 -1.0934 -0.4052  0.0041
 6808TIP3    H120388   0.567   3.597   3.066  2.3663  0.5658  2.2079
 6808TIP3    H220389   0.655   3.532   2.960 -1.8753 -0.6136 -0.8527
 6809TIP3   OH220390   4.595   5.089   2.667 -0.3554  0.2190 -0.6765
 6809TIP3    H120391   4.569   5.170   2.622  0.1931  0.5420 -0.4248
 6809TIP3    H220392   4.512   5.051   2.697 -0.6202  0.6894 -0.7989
 6810TIP3   OH220393   3.144   3.761   1.489  0.2335 -0.1732 -0.3978
 6810TIP3    H120394   3.139   3.670   1.517 -0.3103  0.2165  0.8062
 6810TIP3    H220395   3.122   3.758   1.395  2.4090 -1.5254 -0.9387
 6811TIP3   OH220396   0.973   3.162   4.032  0.7780  0.3497 -0.3794
 6811TIP3    H120397   1.067   3.166   4.017  0.7472  0.1663 -0.6173
 6811TIP3    H220398   0.963   3.175   4.127  1.1459 -1.1656 -0.1058
 6812TIP3   OH220399   6.871   5.278   5.118 -0.6383  0.0673  0.4115
 6812TIP3    H120400   6.907   5.278   5.029  0.4362  0.7518  0.8243
 6812TIP3    H220401   6.830   5.192   5.127 -1.3240  0.2186 -0.9457
 6813TIP3   OH220402   4.140   0.300   1.928  0.7610 -0.0688 -0.1699
 6813TIP3    H120403   4.162   0.213   1.895 -1.6713 -0.4681 -0.9532
 6813TIP3    H220404   4.097   0.343   1.854  1.4508  1.6470  0.3653
 6814TIP3   OH220405   0.941   0.087   2.851 -0.1690  0.0068  0.2172
 6814TIP3    H120406   1.017   0.141   2.872 -1.8487  2.1954  0.9838
 6814TIP3    H220407   0.903   0.066   2.937  0.3103 -2.2926 -0.0695
 6815TIP3   OH220408   3.824   1.030   0.644 -1.2512 -0.0228 -0.0089
 6815TIP3    H120409   3.869   1.089   0.705 -1.9016 -0.0360  0.4958
 6815TIP3    H220410   3.856   0.943   0.668 -0.3872  0.0937 -0.6710
 6816TIP3   OH220411   5.454   2.343   1.131 -0.1784  0.1714  0.3011
 6816TIP3    H120412   5.425   2.399   1.058 -2.2304 -0.2000  0.7680
 6816TIP3    H220413   5.536   2.383   1.160  0.8797  0.1650 -2.3642
 6817TIP3   OH220414   2.566   3.919   4.215 -0.6651 -0.0220 -0.0213
 6817TIP3    H120415   2.523   3.994   4.173 -0.8217 -0.7070 -1.1124
 6817TIP3    H220416   2.500   3.850   4.215  0.3626 -1.0661 -1.6452
 6818TIP3   OH220417   1.136   1.459   4.850  0.5680 -0.2476 -0.0840
 6818TIP3    H120418   1.118   1.467   4.944 -1.2202  2.3891 -0.5373
 6818TIP3    H220419   1.051   1.471   4.808  1.4120 -0.8792 -2.0871
 6819TIP3   OH220420   3.116   1.403   5.065  0.3044  0.1203  0.3670
 6819TIP3    H120421   3.041   1.455   5.093 -0.7339  0.0157 -1.9698
 6819TIP3    H220422   3.078   1.329   5.018  1.8265  0.6961 -1.9470
 6820TIP3   OH220423   1.832   3.080   4.190  0.2013  0.0290  0.2323
 6820TIP3    H120424   1.862   3.103   4.279  1.9053  1.3665 -0.6287
 6820TIP3    H220425   1.879   2.999   4.170 -0.6481 -0.6089  0.7472
 6821TIP3   OH220426   3.487   5.689   4.336 -0.6556 -0.6245 -0.0246
 6821TIP3    H120427   3.394   5.700   4.359 -0.9083  0.1374 -1.3059
 6821TIP3    H220428   3.487   5.679   4.241  0.5375 -1.2904  0.0257
 6822TIP3   OH220429   5.249   3.689   1.283  0.1424  0.0542  0.2398
 6822TIP3    H120430   5.158   3.719   1.275 -0.1620 -0.6636  0.8532
 6822TIP3    H220431   5.250   3.605   1.237  0.2506 -0.3960  1.0445
 6823TIP3   OH220432   1.037   2.453   4.846  0.3023 -0.5482 -0.6736
 6823TIP3    H120433   1.014   2.373   4.799  3.8953 -0.9242 -2.0739
 6823TIP3    H220434   1.067   2.423   4.932 -0.3591 -0.4602 -0.4048
 6824TIP3   OH220435   3.548   1.059   2.713 -0.6462  0.3460  0.7861
 6824TIP3    H120436   3.624   1.043   2.769 -0.6972 -0.9064  0.5307
 6824TIP3    H220437   3.585   1.099   2.634 -0.0964 -1.1584  0.2528
 6825TIP3   OH220438   3.386   5.304   0.064 -0.8707 -0.4266 -0.4112
 6825TIP3    H120439   3.296   5.274   0.079 -0.6318 -1.1310 -0.3363
 6825TIP3    H220440   3.376   5.382   0.010 -1.5165 -0.8214 -0.8916
 6826TIP3   OH220441   6.515   0.520   1.193 -0.2636  0.3262  0.2510
 6826TIP3    H120442   6.562   0.506   1.111 -0.2197 -1.7435  0.5937
 6826TIP3    H220443   6.483   0.434   1.218 -0.0458  0.8572  2.5728
 6827TIP3   OH220444   2.267   0.262   5.621  0.3318 -0.0104  0.2506
 6827TIP3    H120445   2.359   0.271   5.595  1.1892  1.1750  3.3012
 6827TIP3    H220446   2.238   0.180   5.579  2.3130  0.2752 -1.8648
 6828TIP3   OH220447   4.855   1.815   3.968  0.2769 -0.0185  0.4342
 6828TIP3    H120448   4.790   1.825   4.037 -0.2305 -0.6986  0.0677
 6828TIP3    H220449   4.938   1.804   4.015 -0.3519 -2.8182  1.0603
 6829TIP3   OH220450   1.665   2.867   0.787 -0.0198 -0.4327  0.0241
 6829TIP3    H120451   1.700   2.914   0.711 -0.5536 -0.9782 -0.5714
 6829TIP3    H220452   1.581   2.909   0.805  1.3950  1.7082  2.2315
 6830TIP3   OH220453   6.488   0.011   2.448 -0.3846 -0.7315  0.3285
 6830TIP3    H120454   6.527   0.006   2.535  0.5957 -0.4288 -0.0883
 6830TIP3    H220455   6.405   0.057   2.462  0.1316  0.0283  0.9851
 6831TIP3   OH220456   4.721   0.863   2.029 -0.3239  0.2398  0.6281
 6831TIP3    H120457   4.736   0.957   2.018  0.0637 -0.0216 -1.4961
 6831TIP3    H220458   4.686   0.834   1.945 -1.6270 -1.3194  1.6359
 6832TIP3   OH220459   6.471   5.734   0.724 -0.7690 -0.4474 -0.5412
 6832TIP3    H120460   6.509   5.699   0.804 -0.1772  2.1563  0.4434
 6832TIP3    H220461   6.399   5.790   0.754 -0.1363  1.0788 -1.7121
 6833TIP3   OH220462   1.336   4.609   5.063  0.5563  0.0310  0.4275
 6833TIP3    H120463   1.331   4.574   5.152 -0.2133  0.0028  0.3859
 6833TIP3    H220464   1.358   4.701   5.075 -2.4833  0.8106  0.8669
 6834TIP3   OH220465   0.391   6.569   1.544 -0.2546  0.1996  0.7597
 6834TIP3    H120466   0.345   6.554   1.626  0.2035  0.8352  1.1467
 6834TIP3    H220467   0.371   6.493   1.490 -0.7662 -0.1018  1.3666
 6835TIP3   OH220468   0.837   3.164   1.418 -0.3145 -0.3472  0.2326
 6835TIP3    H120469   0.830   3.072   1.442 -0.9242 -0.6115 -0.9277
 6835TIP3    H220470   0.829   3.211   1.502 -2.1888 -1.2400  0.5956
 6836TIP3   OH220471   6.342   0.338   2.705  0.0740 -0.0566  0.3748
 6836TIP3    H120472   6.312   0.334   2.614  0.2231 -1.1481  0.3553
 6836TIP3    H220473   6.311   0.256   2.744  0.6291  0.0717  1.1130
 6837TIP3   OH220474   4.574   5.730   3.559 -0.0382  0.5277 -0.1150
 6837TIP3    H120475   4.569   5.648   3.608 -0.2140 -0.2343 -1.3501
 6837TIP3    H220476   4.664   5.734   3.528  0.5716  1.8906  1.6825
 6838TIP3   OH220477   4.474   2.215   2.287 -0.0926 -0.0723 -0.7424
 6838TIP3    H120478   4.474   2.300   2.243 -0.6124 -0.3048 -1.2034
 6838TIP3    H220479   4.541   2.164   2.241  0.5633  0.2392 -0.1506
 6839TIP3   OH220480   6.672   3.794   0.058  0.4100 -0.3702  0.3368
 6839TIP3    H120481   6.713   3.850   0.123  1.8039  0.7926 -1.4480
 6839TIP3    H220482   6.739   3.731   0.033  0.4899  0.2522 -1.1388
 6840TIP3   OH220483   5.389   4.286   3.310 -0.3639  0.2453 -0.1219
 6840TIP3    H120484   5.296   4.275   3.289 -0.2804  1.1201 -1.0910
 6840TIP3    H220485   5.391   4.355   3.376 -0.4345 -0.3041  0.4674
 6841TIP3   OH220486   1.400   5.949   5.842 -0.3684 -0.4534 -0.8737
 6841TIP3    H120487   1.445   5.906   5.915 -0.8411  0.9865  0.3225
 6841TIP3    H220488   1.458   5.936   5.767  1.2698 -0.0516  0.2603
 6842TIP3   OH220489   6.986   5.413   1.761  0.4490 -0.0563 -0.9047
 6842TIP3    H120490   6.958   5.373   1.842 -0.3832  1.8835 -0.1583
 6842TIP3    H220491   7.072   5.450   1.780 -0.2387  1.4270 -0.4634
 6843TIP3   OH220492   4.993   6.353   1.243  0.2471 -0.1947  0.6691
 6843TIP3    H120493   4.945   6.278   1.277  1.2665 -0.1209  2.3814
 6843TIP3    H220494   4.953   6.429   1.287  0.4004  0.0974  0.3149
 6844TIP3   OH220495   6.911   0.527   5.514  0.8964 -0.1885  0.4672
 6844TIP3    H120496   6.935   0.613   5.549  1.0617 -0.2066  0.4024
 6844TIP3    H220497   6.836   0.544   5.457  0.7022 -0.1410  0.7355
 6845TIP3   OH220498   1.855   3.877   5.492  0.1260 -0.4151 -0.1261
 6845TIP3    H120499   1.871   3.783   5.500  0.6163 -0.2350  1.3753
 6845TIP3    H220500   1.765   3.883   5.460  0.2590 -1.3870 -0.7360
 6846TIP3   OH220501   3.567   0.997   2.387  0.0664 -0.4030 -0.1039
 6846TIP3    H120502   3.594   1.089   2.378  1.1082 -0.8522 -2.0646
 6846TIP3    H220503   3.642   0.953   2.427  0.0274 -0.6026 -0.2464
 6847TIP3   OH220504   1.990   4.020   3.542 -0.5120  0.0372 -0.5836
 6847TIP3    H120505   2.028   3.959   3.478  0.7861  0.2602 -0.0617
 6847TIP3    H220506   1.958   4.093   3.488 -0.6476 -0.3926 -1.0918
 6848TIP3   OH220507   4.263   1.356   2.014  0.3257  0.0101 -0.2386
 6848TIP3    H120508   4.227   1.430   1.965 -1.8215 -1.7192 -1.4573
 6848TIP3    H220509   4.303   1.396   2.091  0.1982  2.5050 -1.3459
 6849TIP3   OH220510   6.489   0.224   3.031  0.2284 -0.2209 -0.0584
 6849TIP3    H120511   6.475   0.266   3.116  1.3303 -2.9107  1.5762
 6849TIP3    H220512   6.401   0.206   2.998 -0.2310  1.8306 -0.0552
 6850TIP3   OH220513   7.138   6.387   1.554  0.3551 -0.4182 -0.1390
 6850TIP3    H120514   7.202   6.407   1.485 -0.0835  1.3754 -0.0677
 6850TIP3    H220515   7.094   6.307   1.523  0.0762  0.4064 -2.0196
 6851TIP3   OH220516   0.696   5.334   2.093  0.2098  0.0557  0.1224
 6851TIP3    H120517   0.736   5.286   2.020 -0.4870  0.7295 -0.7276
 6851TIP3    H220518   0.762   5.331   2.162  0.5656 -1.3054 -0.2336
 6852TIP3   OH220519   5.122   5.892   2.180 -0.1005 -0.4523 -0.1287
 6852TIP3    H120520   5.043   5.856   2.140  0.1700 -0.8251 -0.3353
 6852TIP3    H220521   5.194   5.847   2.136  0.3087  1.3176 -1.3643
 6853TIP3   OH220522   0.306   3.193   0.160 -0.0763  0.0633  0.0190
 6853TIP3    H120523   0.270   3.260   0.218  1.4524 -0.8402  2.1667
 6853TIP3    H220524   0.270   3.111   0.194  3.3453 -0.8247  1.9454
 6854TIP3   OH220525   3.524   4.985   1.369 -0.3316 -0.4092  0.1874
 6854TIP3    H120526   3.444   5.034   1.350 -0.9947 -0.2169  2.9627
 6854TIP3    H220527   3.589   5.051   1.392 -0.6145 -0.6475  1.8576
 6855TIP3   OH220528   7.029   3.436   4.747  0.0396  0.3747  0.1858
 6855TIP3    H120529   7.007   3.452   4.838 -0.4514  2.5407 -0.2454
 6855TIP3    H220530   7.125   3.429   4.746  0.0215  0.0024  0.8981
 6856TIP3   OH220531   1.067   3.166   5.289  0.1123 -0.3490 -0.0837
 6856TIP3    H120532   1.043   3.244   5.238  0.1614 -0.6085 -0.5117
 6856TIP3    H220533   0.998   3.102   5.268 -0.2052 -0.2529  0.6551
 6857TIP3   OH220534   2.128   6.286   4.556  0.2910  0.5168  0.2395
 6857TIP3    H120535   2.120   6.196   4.589  0.3501  0.3253 -0.2547
 6857TIP3    H220536   2.215   6.289   4.517 -1.6580 -1.1733 -5.3284
 6858TIP3   OH220537   1.746   1.659   4.520  0.4084  0.2600 -0.2160
 6858TIP3    H120538   1.774   1.727   4.459  2.4440  1.6759  2.1020
 6858TIP3    H220539   1.662   1.690   4.554  0.6468  0.9136 -0.2121
 6859TIP3   OH220540   0.866   3.235   4.282 -0.7605  0.3931  0.2647
 6859TIP3    H120541   0.885   3.316   4.235  0.0608  0.0041 -0.0885
 6859TIP3    H220542   0.840   3.263   4.369  1.8814  0.9763  0.9470
 6860TIP3   OH220543   3.112   4.586   1.556 -0.2470 -0.0755 -0.6827
 6860TIP3    H120544   3.144   4.580   1.466 -0.4159 -0.3656 -0.7264
 6860TIP3    H220545   3.041   4.651   1.552  1.5456  2.0394 -0.2208
 6861TIP3   OH220546   6.208   3.672   4.990  0.1346 -0.3858 -0.4045
 6861TIP3    H120547   6.155   3.620   4.929  0.6339 -1.1822 -0.1864
 6861TIP3    H220548   6.170   3.654   5.076  0.5564 -0.7143 -0.2826
 6862TIP3   OH220549   2.548   2.722   5.082 -0.1700 -0.1241 -0.1930
 6862TIP3    H120550   2.475   2.780   5.102  0.3988  1.1338 -1.5370
 6862TIP3    H220551   2.521   2.676   5.003  0.2776  0.0158 -0.4371
 6863TIP3   OH220552   6.789   1.344   1.939 -0.0539 -0.6278  0.3310
 6863TIP3    H120553   6.884   1.339   1.935 -0.1435 -2.5361 -0.5747
 6863TIP3    H220554   6.765   1.400   1.865  0.3561  0.0425  0.6967
 6864TIP3   OH220555   2.708   1.461   2.483 -0.0095 -0.3287  0.1702
 6864TIP3    H120556   2.679   1.370   2.490  1.2326 -0.7536 -0.0287
 6864TIP3    H220557   2.750   1.479   2.567  0.6643 -0.2706 -0.1792
 6865TIP3   OH220558   5.996   3.111   0.008 -0.0534 -0.3173 -0.3276
 6865TIP3    H120559   6.083   3.101   0.047  0.5277  0.3292 -1.4193
 6865TIP3    H220560   5.950   3.171   0.067  0.0230 -1.1090  0.5640
 6866TIP3   OH220561   1.749   6.140   0.885  0.4428 -0.0660  0.4023
 6866TIP3    H120562   1.822   6.187   0.845  1.2919 -1.2914  0.4886
 6866TIP3    H220563   1.781   6.114   0.972  0.1369 -1.1353  0.2104
 6867TIP3   OH220564   6.044   0.375   2.292 -0.3127 -0.4472  0.3606
 6867TIP3    H120565   6.034   0.348   2.384 -2.0772 -1.9348 -0.2082
 6867TIP3    H220566   6.007   0.463   2.289 -0.9730 -0.6861  0.9579
 6868TIP3   OH220567   3.428   5.042   4.632 -0.3434 -0.4071  0.3549
 6868TIP3    H120568   3.463   4.996   4.708 -1.5809 -0.2523  1.0526
 6868TIP3    H220569   3.383   4.974   4.581  0.7946 -0.5803 -0.4596
 6869TIP3   OH220570   6.076   6.166   3.606 -0.3792 -0.1743  0.5265
 6869TIP3    H120571   6.008   6.193   3.667 -0.2708 -1.2719  1.1628
 6869TIP3    H220572   6.031   6.113   3.541 -1.0781  3.4604 -2.2565
 6870TIP3   OH220573   4.593   6.762   0.093 -0.0880 -0.7701 -0.0025
 6870TIP3    H120574   4.561   6.829   0.034 -0.4126 -0.3826  0.6091
 6870TIP3    H220575   4.636   6.810   0.164 -0.4087 -1.1889  0.4889
 6871TIP3   OH220576   1.590   5.983   3.542 -0.0537 -0.1395 -0.3721
 6871TIP3    H120577   1.502   5.947   3.529  0.3484 -0.9111 -1.0917
 6871TIP3    H220578   1.602   5.984   3.637 -0.8337 -0.0218 -0.2654
 6872TIP3   OH220579   2.208   5.736   3.101 -0.0169 -0.1674  0.1333
 6872TIP3    H120580   2.292   5.750   3.145 -0.4959  1.0327  0.7188
 6872TIP3    H220581   2.148   5.710   3.171 -1.5011  4.5432  0.9460
 6873TIP3   OH220582   4.795   6.137  -0.034 -0.2927  0.1044  0.4234
 6873TIP3    H120583   4.774   6.050   0.002 -1.1168  0.4653  0.8291
 6873TIP3    H220584   4.773   6.198   0.036 -1.3333  0.7731 -0.4594
 6874TIP3   OH220585   0.464   2.016   1.944  0.2833 -0.4836 -0.2191
 6874TIP3    H120586   0.393   2.079   1.963 -0.5308 -1.4871  0.1411
 6874TIP3    H220587   0.430   1.962   1.873  0.4931 -1.2765  0.2712
 6875TIP3   OH220588   0.548   1.174   1.318 -0.0081 -0.1420 -0.3807
 6875TIP3    H120589   0.575   1.099   1.266  0.4028  0.6417 -1.3170
 6875TIP3    H220590   0.550   1.142   1.409 -2.0042 -1.9349 -0.8773
 6876TIP3   OH220591   3.109   5.972   1.703  0.6161 -0.5043 -0.5446
 6876TIP3    H120592   3.110   5.885   1.664  1.4338 -0.3826 -0.8175
 6876TIP3    H220593   3.145   5.960   1.791 -0.9226 -0.7227  0.0971
 6877TIP3   OH220594   2.738   5.833   0.855  0.5532 -0.6956 -0.2076
 6877TIP3    H120595   2.745   5.915   0.903 -0.5083 -0.7411  0.0560
 6877TIP3    H220596   2.768   5.766   0.917  2.8451 -0.3962 -0.9120
 6878TIP3   OH220597   4.406   3.805   3.240  0.2476 -0.1276 -0.0347
 6878TIP3    H120598   4.322   3.787   3.197 -0.1553  0.8756  0.2941
 6878TIP3    H220599   4.388   3.880   3.297  1.6780  0.9659 -0.9456
 6879TIP3   OH220600   5.577   5.722   5.647  0.4440  0.1154  0.2970
 6879TIP3    H120601   5.631   5.702   5.723  0.9630 -1.5835 -0.4868
 6879TIP3    H220602   5.612   5.805   5.614  2.9688 -1.1750 -0.4862
 6880TIP3   OH220603   5.484   4.899   1.729 -0.4501 -0.1356 -0.1879
 6880TIP3    H120604   5.575   4.888   1.701 -0.4567  1.9689 -1.2746
 6880TIP3    H220605   5.436   4.829   1.684  0.7555 -2.1402  1.4707
 6881TIP3   OH220606   0.069   5.575   0.201  0.0103 -0.2103 -0.6217
 6881TIP3    H120607   0.094   5.639   0.267  0.8402  0.3926 -1.4866
 6881TIP3    H220608  -0.026   5.567   0.210  0.1493 -0.3939  0.8471
 6882TIP3   OH220609   4.353   4.715   4.746 -0.3705  0.4228 -0.5544
 6882TIP3    H120610   4.332   4.688   4.835  0.2315  0.4531 -0.3934
 6882TIP3    H220611   4.276   4.764   4.716  0.1958  2.2238  0.7051
 6883TIP3   OH220612   5.202   5.472   3.737  0.8403 -0.2951 -0.4805
 6883TIP3    H120613   5.210   5.536   3.808 -0.1564  0.8454 -1.3647
 6883TIP3    H220614   5.269   5.406   3.757  0.8606  0.2018  1.2908
 6884TIP3   OH220615   0.364   4.306   1.331  0.2606  0.0558 -0.2332
 6884TIP3    H120616   0.439   4.358   1.302 -0.3788  0.5581 -1.0250
 6884TIP3    H220617   0.403   4.224   1.362  1.0294 -0.2822 -1.9917
 6885TIP3   OH220618   1.756   3.831   5.018  0.3673  0.2236  0.0763
 6885TIP3    H120619   1.780   3.917   4.982 -3.8442  0.2440 -3.5848
 6885TIP3    H220620   1.811   3.769   4.970  0.1916  0.6986 -0.7656
 6886TIP3   OH220621   5.871   2.562   3.289 -0.0293  0.1338  0.1852
 6886TIP3    H120622   5.776   2.555   3.299  0.0785 -1.8373  0.0983
 6886TIP3    H220623   5.906   2.514   3.364  0.8914  0.0816 -0.2743
 6887TIP3   OH220624   1.341   4.287   1.475  0.2891 -0.1946  0.3633
 6887TIP3    H120625   1.246   4.272   1.471  0.7148 -3.5223 -1.9309
 6887TIP3    H220626   1.350   4.378   1.502 -3.6016  0.7666 -0.9334
 6888TIP3   OH220627   1.215   5.999   2.018  0.6187 -0.2649  0.6864
 6888TIP3    H120628   1.196   5.969   2.107  0.3883  1.8586  1.4097
 6888TIP3    H220629   1.129   6.021   1.982  0.7774 -0.4228  0.2164
 6889TIP3   OH220630   2.609   1.427   1.674 -0.4606  0.1803 -0.0895
 6889TIP3    H120631   2.697   1.434   1.637 -0.6226 -0.1501 -0.5586
 6889TIP3    H220632   2.588   1.515   1.705 -0.1652  0.3774 -0.4481
 6890TIP3   OH220633   5.208   5.624   3.983 -0.0535 -0.5188 -0.5379
 6890TIP3    H120634   5.292   5.598   4.020 -0.4574  0.2783  1.0338
 6890TIP3    H220635   5.162   5.667   4.056 -1.2479  0.3406 -1.7513
 6891TIP3   OH220636   5.450   2.709   3.925 -0.0661 -0.2298 -0.1897
 6891TIP3    H120637   5.512   2.775   3.956 -1.6396  1.9164 -1.3568
 6891TIP3    H220638   5.407   2.678   4.005  0.5415  0.2905  0.3552
 6892TIP3   OH220639   4.016   5.611   2.529 -0.2607  0.0062  0.4059
 6892TIP3    H120640   3.937   5.561   2.507 -0.4240  0.3768  0.1156
 6892TIP3    H220641   4.088   5.549   2.520 -0.4828 -0.2357  0.2779
 6893TIP3   OH220642   0.188   1.363   5.474  0.1672  0.3274  0.3520
 6893TIP3    H120643   0.101   1.403   5.479  0.1130  0.2631  0.0131
 6893TIP3    H220644   0.193   1.305   5.549 -1.7961 -2.9967 -1.8480
 6894TIP3   OH220645   6.218   1.864   4.264 -0.3037 -0.2091  0.1430
 6894TIP3    H120646   6.126   1.892   4.273 -0.6694 -1.6383  1.0699
 6894TIP3    H220647   6.234   1.807   4.339  1.8573  1.2463  0.8849
 6895TIP3   OH220648   5.786   3.594   4.862  0.0082  0.3180 -0.0337
 6895TIP3    H120649   5.813   3.645   4.786  0.7856 -0.4002 -0.2617
 6895TIP3    H220650   5.721   3.533   4.829 -0.4995  0.7737  0.1194
 6896TIP3   OH220651   0.226   6.368   3.940  0.3975 -0.1770 -0.0281
 6896TIP3    H120652   0.297   6.389   3.880 -1.5923  0.2135 -2.3920
 6896TIP3    H220653   0.231   6.273   3.952 -0.0207 -0.4877 -2.0236
 6897TIP3   OH220654   5.483   0.393   4.654 -0.2732  0.6070 -0.5601
 6897TIP3    H120655   5.552   0.457   4.672 -1.8450  1.6866  2.3355
 6897TIP3    H220656   5.439   0.427   4.576 -0.6485  2.7783  0.5151
 6898TIP3   OH220657   1.006   3.985   5.124  0.4790  0.1022  0.5484
 6898TIP3    H120658   0.945   3.954   5.057  0.1707 -0.9190  1.2941
 6898TIP3    H220659   1.057   4.053   5.079  0.3433 -0.6213 -0.7580
 6899TIP3   OH220660   2.116   6.241   3.317  0.2372 -0.5938 -0.1438
 6899TIP3    H120661   2.088   6.174   3.378  0.6466 -1.3834 -0.8060
 6899TIP3    H220662   2.209   6.223   3.302  0.7517  1.0330  0.8184
 6900TIP3   OH220663   4.012   4.093   2.776  0.5536 -0.0285 -0.0827
 6900TIP3    H120664   4.094   4.072   2.821  0.2293  0.4557  0.7489
 6900TIP3    H220665   4.022   4.055   2.689  1.2094 -0.9449  0.3834
 6901TIP3   OH220666   2.825   2.459   0.855  0.7551 -0.0651  0.3591
 6901TIP3    H120667   2.730   2.448   0.852  0.5169  1.6343  0.6563
 6901TIP3    H220668   2.851   2.467   0.763  0.9709 -2.8396  0.1053
 6902TIP3   OH220669   4.456   2.995   3.454 -0.2845 -0.1504 -0.1088
 6902TIP3    H120670   4.491   2.946   3.528  0.4904  1.0429  0.3410
 6902TIP3    H220671   4.507   2.965   3.379 -0.2367 -0.4734  0.0527
 6903TIP3   OH220672   5.781   6.286   3.385 -0.5454 -0.2329 -0.3368
 6903TIP3    H120673   5.837   6.261   3.312 -0.8657 -0.4557 -0.5049
 6903TIP3    H220674   5.769   6.205   3.435 -1.6140 -0.4354 -0.9032
 6904TIP3   OH220675   5.810   3.144   2.825 -0.5585  0.3225 -0.3031
 6904TIP3    H120676   5.811   3.168   2.918  0.2076 -1.4611  0.2023
 6904TIP3    H220677   5.836   3.224   2.780  0.2061  0.9240  1.1131
 6905TIP3   OH220678   2.368   5.095   3.519  0.1845  0.0330 -0.5965
 6905TIP3    H120679   2.299   5.049   3.471  0.1363 -1.3352  0.7298
 6905TIP3    H220680   2.435   5.112   3.453 -0.9114  0.4040 -1.6693
 6906TIP3   OH220681   1.917   5.507   1.885  0.9282 -0.6124 -0.3694
 6906TIP3    H120682   1.922   5.586   1.940  0.3447  0.2601 -1.5286
 6906TIP3    H220683   1.844   5.457   1.921  0.4254  0.0484 -0.4572
 6907TIP3   OH220684   2.313   3.780   5.490  0.0681 -0.1171 -0.2379
 6907TIP3    H120685   2.389   3.722   5.501  0.5528  0.8057  1.7112
 6907TIP3    H220686   2.267   3.775   5.574 -0.7222  1.1603 -0.5696
 6908TIP3   OH220687   6.428   5.422   5.679  0.4096  0.5016  0.3726
 6908TIP3    H120688   6.342   5.441   5.715  1.6349  0.8517  3.4171
 6908TIP3    H220689   6.439   5.485   5.609 -2.1126 -0.1388 -0.7147
 6909TIP3   OH220690   6.469   4.002   3.641  0.2440  0.3523  0.4782
 6909TIP3    H120691   6.495   4.093   3.655  1.8783  0.3829 -2.0488
 6909TIP3    H220692   6.531   3.951   3.692  1.7816  0.6134 -1.0377
 6910TIP3   OH220693   0.114   5.710   3.183  0.2690 -0.3018  0.4269
 6910TIP3    H120694   0.021   5.687   3.177  0.5803 -1.4460 -0.3467
 6910TIP3    H220695   0.122   5.791   3.134 -0.1298 -0.8401 -0.5513
 6911TIP3   OH220696   2.548   4.690   2.005 -0.0643 -0.0319 -0.3294
 6911TIP3    H120697   2.591   4.618   1.959 -0.8737 -0.6455 -0.1569
 6911TIP3    H220698   2.553   4.665   2.098  0.1270  0.4050 -0.2170
 6912TIP3   OH220699   5.231   1.683   3.773  0.0164 -0.3249  0.1300
 6912TIP3    H120700   5.321   1.705   3.750 -0.1662 -0.4376 -0.7170
 6912TIP3    H220701   5.224   1.589   3.755  0.1715 -0.6595  1.6790
 6913TIP3   OH220702   1.497   0.180   2.903 -0.1415  0.6491  0.0536
 6913TIP3    H120703   1.402   0.178   2.887 -0.0244 -0.1413 -0.6083
 6913TIP3    H220704   1.527   0.092   2.880  1.2524  1.8000 -3.0038
 6914TIP3   OH220705   6.524   2.711   1.847  0.1956 -0.7126 -0.0064
 6914TIP3    H120706   6.543   2.800   1.816 -0.5206 -1.4975 -3.0693
 6914TIP3    H220707   6.442   2.719   1.896  0.9021  0.4863  1.0474
 6915TIP3   OH220708   4.390   6.154   1.674 -0.5111  0.4445  0.1149
 6915TIP3    H120709   4.301   6.123   1.693 -0.0786 -0.4692  0.6553
 6915TIP3    H220710   4.381   6.198   1.589 -1.2391 -0.7345 -0.4451
 6916TIP3   OH220711   1.368   2.746   2.949 -0.3743 -0.6469  0.0142
 6916TIP3    H120712   1.417   2.826   2.966 -1.2128  0.3451 -1.8949
 6916TIP3    H220713   1.285   2.776   2.913 -1.2066 -2.3634  0.4094
 6917TIP3   OH220714   6.001   2.843   1.324  0.1850 -0.0532 -0.1491
 6917TIP3    H120715   5.964   2.910   1.381  2.6529  1.8098 -0.5818
 6917TIP3    H220716   6.044   2.782   1.385  0.5495  0.4567  0.1073
 6918TIP3   OH220717   6.534   2.246   1.684 -0.7403  0.0930 -0.8541
 6918TIP3    H120718   6.538   2.172   1.745  0.7443  0.3419 -0.6061
 6918TIP3    H220719   6.559   2.209   1.600 -2.0521 -0.0937 -1.1844
 6919TIP3   OH220720   2.879   6.206   2.901  0.4715  0.3900  0.7603
 6919TIP3    H120721   2.786   6.202   2.880  0.8142 -1.0547 -0.7766
 6919TIP3    H220722   2.915   6.269   2.838  0.9271 -1.1893 -0.6421
 6920TIP3   OH220723   3.573   2.162   1.087 -0.0212 -0.2273 -0.6057
 6920TIP3    H120724   3.668   2.155   1.087  0.0730  0.8944 -0.9628
 6920TIP3    H220725   3.554   2.237   1.031 -1.0879 -0.1414 -0.1549
 6921TIP3   OH220726   2.478   0.989   5.073  0.2590  0.4107 -0.0208
 6921TIP3    H120727   2.411   0.975   5.006 -0.8530  2.0658  0.6796
 6921TIP3    H220728   2.433   0.971   5.156  0.7730  1.1221  0.4255
 6922TIP3   OH220729   3.406   0.923   1.219 -0.2137  0.1109 -0.3639
 6922TIP3    H120730   3.328   0.872   1.196 -0.1498 -0.0829 -0.1507
 6922TIP3    H220731   3.475   0.885   1.166 -0.8818  2.4137 -3.1426
 6923TIP3   OH220732   4.800   3.263   2.187  0.2641 -0.1346 -0.2433
 6923TIP3    H120733   4.828   3.252   2.278  1.0214 -1.5792 -0.6135
 6923TIP3    H220734   4.723   3.320   2.192  0.6373  0.2890  1.2342
 6924TIP3   OH220735   0.370   1.392   5.279  0.8817 -0.4751 -0.5850
 6924TIP3    H120736   0.296   1.375   5.337  0.8345 -0.1827 -0.5555
 6924TIP3    H220737   0.382   1.311   5.230  1.8109 -1.2369  0.8183
 6925TIP3   OH220738   5.481   5.576   0.975 -0.6535 -0.1382 -0.1612
 6925TIP3    H120739   5.416   5.621   0.920 -2.1195 -0.9107  0.8871
 6925TIP3    H220740   5.565   5.596   0.933 -1.3025  2.8444 -0.2182
 6926TIP3   OH220741   5.639   0.480   4.090  0.2815  0.1436  0.3201
 6926TIP3    H120742   5.706   0.547   4.099  0.0051  0.4486  0.0922
 6926TIP3    H220743   5.557   0.528   4.082  0.2020 -0.1773 -1.0428
 6927TIP3   OH220744   3.904   0.420   5.671 -0.1533 -0.0259 -0.2974
 6927TIP3    H120745   3.979   0.443   5.616  0.3630 -1.2074 -0.1243
 6927TIP3    H220746   3.905   0.324   5.673 -1.7108 -0.0561 -0.3278
 6928TIP3   OH220747   0.073   0.704   1.443  0.3710 -0.8425  0.3317
 6928TIP3    H120748   0.167   0.721   1.444  0.6606 -2.2281 -0.2440
 6928TIP3    H220749   0.066   0.611   1.421 -1.1962 -0.1251 -2.9264
 6929TIP3   OH220750   3.237   1.404   3.489  0.3770 -0.0391  0.1718
 6929TIP3    H120751   3.213   1.481   3.437  0.5141 -1.1155 -1.5720
 6929TIP3    H220752   3.161   1.346   3.481  1.6912 -1.6539 -1.7758
 6930TIP3   OH220753   5.246   0.563   4.211 -0.3634  0.8085  0.2829
 6930TIP3    H120754   5.184   0.632   4.188 -0.7303  0.1115 -0.8960
 6930TIP3    H220755   5.306   0.557   4.137 -0.5376 -0.3508  0.2122
 6931TIP3   OH220756   4.012   3.941   2.537 -0.3017  0.2887 -0.4672
 6931TIP3    H120757   3.948   3.984   2.480 -1.0431 -0.9887 -0.6233
 6931TIP3    H220758   3.975   3.855   2.555  0.1686  0.4523  1.5192
 6932TIP3   OH220759   2.394   5.523   4.738 -0.3079  0.2874 -0.8427
 6932TIP3    H120760   2.466   5.534   4.677  1.9301 -1.6831  1.2429
 6932TIP3    H220761   2.387   5.608   4.782  1.6989  0.1627 -0.1796
 6933TIP3   OH220762   0.580   4.074   4.172  0.2350 -0.6412  0.3852
 6933TIP3    H120763   0.594   4.024   4.091 -1.3383  0.0057 -0.3281
 6933TIP3    H220764   0.523   4.018   4.224 -0.3804 -0.2115  0.1833
 6934TIP3   OH220765   2.775   0.919   0.799  0.0626  0.4325  0.1380
 6934TIP3    H120766   2.772   0.847   0.736 -0.0269  0.4925  0.0746
 6934TIP3    H220767   2.692   0.913   0.847  0.0526  0.4960  0.1293
 6935TIP3   OH220768   2.525   4.878   2.403  0.5006 -0.4279  0.3210
 6935TIP3    H120769   2.575   4.797   2.400  0.5775 -0.5178  2.6077
 6935TIP3    H220770   2.543   4.921   2.319  0.6545 -2.6204 -0.8284
 6936TIP3   OH220771   1.158   0.591   5.319 -0.0798 -0.0372  0.6573
 6936TIP3    H120772   1.179   0.501   5.293 -0.4557  0.0378  0.0693
 6936TIP3    H220773   1.241   0.627   5.351 -0.2216 -1.0317  2.2478
 6937TIP3   OH220774   1.876   5.734   2.024  1.1085 -0.1536 -0.1986
 6937TIP3    H120775   1.964   5.773   2.027  1.1406 -0.2318 -0.1003
 6937TIP3    H220776   1.817   5.804   2.052  0.9691  0.3800 -1.7042
 6938TIP3   OH220777   3.665   5.938   0.265 -0.2205  0.0718  0.4136
 6938TIP3    H120778   3.603   5.880   0.220  0.6792 -0.7105  0.1488
 6938TIP3    H220779   3.720   5.973   0.195 -0.6484  1.1474  0.5919
 6939TIP3   OH220780   2.872   1.471   1.673 -0.2513  0.8225 -0.1578
 6939TIP3    H120781   2.945   1.521   1.636 -0.0167 -0.3248 -1.3532
 6939TIP3    H220782   2.910   1.426   1.748  0.7219 -0.8435 -1.5554
 6940TIP3   OH220783   1.353   4.861   3.777  0.0086  0.0532 -0.9046
 6940TIP3    H120784   1.390   4.775   3.797 -0.0755 -0.0301 -1.1106
 6940TIP3    H220785   1.429   4.919   3.771 -0.0448  0.5665  1.9177
 6941TIP3   OH220786   3.579   2.629   3.136  0.1716 -0.8829  0.7943
 6941TIP3    H120787   3.643   2.672   3.193 -0.9216  1.9268  0.0473
 6941TIP3    H220788   3.521   2.583   3.196  0.5419 -0.1114  1.7684
 6942TIP3   OH220789   4.320   0.231   1.261 -0.4079  0.3186 -0.0538
 6942TIP3    H120790   4.278   0.181   1.330 -0.2857 -0.3549 -0.4650
 6942TIP3    H220791   4.333   0.318   1.299  0.6038 -0.3304  1.1265
 6943TIP3   OH220792   5.910   4.093   5.871  0.3589  0.4121 -0.0790
 6943TIP3    H120793   5.876   4.089   5.781 -0.7458  0.3487  0.3193
 6943TIP3    H220794   5.875   4.015   5.913  0.7887  0.4920  0.4314
 6944TIP3   OH220795   5.714   4.016   0.811 -0.0928  0.0628  0.1428
 6944TIP3    H120796   5.777   4.074   0.769  1.1545 -1.6188 -0.4264
 6944TIP3    H220797   5.676   4.068   0.882  0.2037  1.8749 -0.9778
 6945TIP3   OH220798   3.652   6.815   0.151 -0.4365 -0.2391  0.2319
 6945TIP3    H120799   3.740   6.791   0.122  0.3455  1.2849  1.2556
 6945TIP3    H220800   3.626   6.744   0.210  0.3429 -0.3927  0.3931
 6946TIP3   OH220801   1.286   1.683   4.805 -0.0091  0.3720 -0.6224
 6946TIP3    H120802   1.238   1.758   4.840 -0.1831  0.6336 -1.4038
 6946TIP3    H220803   1.234   1.607   4.832  0.3801  0.4846  0.5197
 6947TIP3   OH220804   7.045   2.727   0.550  0.1259  0.3833 -0.3805
 6947TIP3    H120805   7.034   2.815   0.515 -1.1981  0.5195  0.3390
 6947TIP3    H220806   7.119   2.734   0.610 -1.6433  1.6837  1.7639
 6948TIP3   OH220807   0.957   2.992   2.152  0.5976  0.1926  0.7688
 6948TIP3    H120808   1.033   3.039   2.187  1.1025 -1.2249  1.6449
 6948TIP3    H220809   0.985   2.901   2.145 -0.7561 -0.2217  0.3133
 6949TIP3   OH220810   6.792   4.427   3.279 -0.2488  0.3916  0.0988
 6949TIP3    H120811   6.789   4.349   3.334  1.6117  0.5672  0.5085
 6949TIP3    H220812   6.840   4.399   3.200  1.0920  1.2695  0.5699
 6950TIP3   OH220813   6.672   1.114   5.124  0.2389  0.1854  0.1562
 6950TIP3    H120814   6.639   1.156   5.045  0.2774  0.1673  0.1302
 6950TIP3    H220815   6.626   1.030   5.128 -0.0786  0.3692  0.3824
 6951TIP3   OH220816   1.261   4.679   0.358 -0.0357  0.4406 -0.2951
 6951TIP3    H120817   1.298   4.592   0.367 -0.1288  0.4245 -0.0517
 6951TIP3    H220818   1.257   4.695   0.264  1.8130  0.9695 -0.3180
 6952TIP3   OH220819   6.375   5.610   1.034  0.1630  0.7431 -0.3510
 6952TIP3    H120820   6.309   5.546   1.007  0.6701  0.2713 -0.4829
 6952TIP3    H220821   6.458   5.573   1.005  0.4318  1.6473 -0.7722
 6953TIP3   OH220822   4.481   4.033   1.668  0.6031  1.1425  0.2907
 6953TIP3    H120823   4.544   4.066   1.604  1.0947 -0.9304 -0.3578
 6953TIP3    H220824   4.429   3.969   1.621 -0.6575  1.3418  1.3549
 6954TIP3   OH220825   2.635   0.320   0.433  0.0285 -0.2878 -0.4610
 6954TIP3    H120826   2.562   0.377   0.457  0.5625  0.1286  0.2472
 6954TIP3    H220827   2.688   0.315   0.513  0.4982 -1.0020 -0.8074
 6955TIP3   OH220828   0.337   2.442   1.418 -0.3087 -0.4141  0.7516
 6955TIP3    H120829   0.421   2.444   1.463 -0.0706 -0.5838  0.3178
 6955TIP3    H220830   0.342   2.366   1.360 -0.4409  0.0450  0.1265
 6956TIP3   OH220831   5.581   5.702   1.969 -0.0360  0.0737 -0.0727
 6956TIP3    H120832   5.622   5.615   1.962  0.9710  0.5815 -0.6388
 6956TIP3    H220833   5.575   5.733   1.879 -1.2620  0.2134  0.0415
 6957TIP3   OH220834   1.003   3.418   3.624  0.6668  1.0164 -0.1085
 6957TIP3    H120835   0.934   3.482   3.639  0.2230  0.2517  1.3583
 6957TIP3    H220836   1.074   3.444   3.683  0.6306  0.3848  0.2228
 6958TIP3   OH220837   0.591   6.004   4.240 -0.0879  0.0164 -0.0767
 6958TIP3    H120838   0.535   5.943   4.192 -0.1435 -1.5126  1.8181
 6958TIP3    H220839   0.536   6.039   4.310 -0.0499  2.3052 -1.1052
 6959TIP3   OH220840   5.926   6.407   0.978  0.4238  0.0546  0.3333
 6959TIP3    H120841   5.962   6.427   0.891  0.3492  1.5903  0.6223
 6959TIP3    H220842   5.939   6.488   1.028 -0.0904 -0.6055  1.5727
 6960TIP3   OH220843   3.925   0.156   2.614 -0.4006  0.2151 -0.2557
 6960TIP3    H120844   3.851   0.211   2.590 -0.2711  1.3533  1.7814
 6960TIP3    H220845   3.996   0.217   2.632  0.3140 -0.7314  0.2351
 6961TIP3   OH220846   5.904   4.551   5.449  0.1290  0.1621 -0.4759
 6961TIP3    H120847   5.960   4.494   5.503 -1.0120 -0.2879  0.2668
 6961TIP3    H220848   5.884   4.499   5.371  1.3363  0.6083 -1.1085
 6962TIP3   OH220849   6.231   4.138   3.034  0.1790 -0.6632 -0.1946
 6962TIP3    H120850   6.238   4.098   3.120 -2.3569 -2.2958 -0.6592
 6962TIP3    H220851   6.243   4.066   2.972 -3.2547 -0.6775 -1.0582
 6963TIP3   OH220852   0.567   1.710   4.679 -0.0097  0.1150 -0.4480
 6963TIP3    H120853   0.594   1.635   4.626 -0.3736 -1.8997  2.0192
 6963TIP3    H220854   0.615   1.699   4.761 -0.6959  2.1786  0.2819
 6964TIP3   OH220855   5.193   4.991   1.277  0.2019 -0.3516  0.0564
 6964TIP3    H120856   5.209   5.045   1.354 -0.5938 -0.6040  0.4217
 6964TIP3    H220857   5.132   4.923   1.308  0.6713 -1.0640 -0.5448
 6965TIP3   OH220858   5.719   3.167   4.385  0.6275 -0.5995 -0.4912
 6965TIP3    H120859   5.805   3.133   4.409  1.5113  1.5508 -0.4488
 6965TIP3    H220860   5.704   3.240   4.445  0.3462  1.2411 -2.6508
 6966TIP3   OH220861   6.618   1.789   0.518  0.1527 -0.8167 -0.3297
 6966TIP3    H120862   6.692   1.784   0.457  0.7458 -0.3494  0.3360
 6966TIP3    H220863   6.542   1.803   0.462  0.1805 -3.7137 -1.2405
 6967TIP3   OH220864   0.846   5.338   5.332 -0.4506  0.3971  0.0284
 6967TIP3    H120865   0.940   5.356   5.340 -0.7948  1.3004  3.0221
 6967TIP3    H220866   0.839   5.243   5.343  0.0291  0.4787  1.1676
 6968TIP3   OH220867   3.723   2.457   4.644 -0.5865 -0.0665 -0.1239
 6968TIP3    H120868   3.639   2.498   4.663  0.1628  1.0405  0.9068
 6968TIP3    H220869   3.736   2.472   4.550 -0.9330  0.9553 -0.0237
 6969TIP3   OH220870   5.746   6.763   2.322 -0.3333 -0.5029 -0.3803
 6969TIP3    H120871   5.738   6.852   2.358  1.3863 -0.3881 -0.2128
 6969TIP3    H220872   5.662   6.748   2.279 -0.4618  1.4414 -0.9342
 6970TIP3   OH220873   3.744   2.999   2.173 -0.2747  0.4584 -0.0771
 6970TIP3    H120874   3.772   2.986   2.082  0.9981 -1.2636  0.5023
 6970TIP3    H220875   3.781   3.083   2.197  0.2778  0.4547 -0.8530
 6971TIP3   OH220876   1.225   4.027   1.219 -0.1378 -0.6170  0.0975
 6971TIP3    H120877   1.272   4.105   1.190 -0.2248 -0.9792 -1.0624
 6971TIP3    H220878   1.293   3.962   1.235 -0.1664 -0.7968 -0.5003
 6972TIP3   OH220879   4.399   1.617   3.201  0.0689  0.1582 -0.1371
 6972TIP3    H120880   4.325   1.667   3.235 -0.9151 -1.5528  0.3318
 6972TIP3    H220881   4.361   1.560   3.134  0.9521 -0.7506  0.1066
 6973TIP3   OH220882   2.821   2.680   5.488  0.0895  0.5167  0.0588
 6973TIP3    H120883   2.870   2.762   5.496  0.3370  0.2977  0.8825
 6973TIP3    H220884   2.734   2.701   5.524 -0.3954  0.8638 -1.2630
 6974TIP3   OH220885   3.282   5.571   2.100 -0.0568  0.5349  0.1481
 6974TIP3    H120886   3.237   5.533   2.176  0.0353 -3.0166 -1.3863
 6974TIP3    H220887   3.371   5.538   2.106  0.5574  2.0071 -0.4128
 6975TIP3   OH220888   2.547   3.301   0.237  0.0989  0.2490  0.0636
 6975TIP3    H120889   2.562   3.364   0.166  2.5457  1.2578  1.3410
 6975TIP3    H220890   2.504   3.227   0.194  0.9242  1.0578 -2.3650
 6976TIP3   OH220891   1.580   2.891   0.338  0.1301 -0.5740  0.2194
 6976TIP3    H120892   1.654   2.923   0.286 -0.7796  0.0696 -0.7232
 6976TIP3    H220893   1.611   2.895   0.428  0.6411  1.4619  0.0076
 6977TIP3   OH220894   2.069   4.327   3.267 -0.2791 -0.2577 -0.3007
 6977TIP3    H120895   2.090   4.413   3.229 -1.4370  0.5327  0.7662
 6977TIP3    H220896   2.044   4.274   3.192  0.5646  0.2925 -0.9954
 6978TIP3   OH220897   6.547   4.237   5.380 -0.2744  0.1209  0.2879
 6978TIP3    H120898   6.613   4.239   5.310 -1.6385  3.1059 -1.0861
 6978TIP3    H220899   6.548   4.147   5.411  0.2594 -1.4863 -3.7473
 6979TIP3   OH220900   3.702   4.251   5.466 -0.0905 -0.0165  0.3595
 6979TIP3    H120901   3.793   4.260   5.436 -0.3575 -0.9869 -0.7985
 6979TIP3    H220902   3.696   4.161   5.495 -0.7646 -0.0375  0.1584
 6980TIP3   OH220903   3.192   0.193   0.233  0.4679 -0.3320 -0.1242
 6980TIP3    H120904   3.218   0.226   0.147  1.6760  0.9916  0.6864
 6980TIP3    H220905   3.266   0.139   0.262  0.0329 -0.8457  0.0505
 6981TIP3   OH220906   4.966   0.029   1.803  0.1032  0.1773  0.0938
 6981TIP3    H120907   5.050   0.075   1.807 -0.0830  0.4598  0.9768
 6981TIP3    H220908   4.954   0.011   1.710  1.0541  0.2916 -0.0691
 6982TIP3   OH220909   0.287   2.797   4.843 -0.1715  0.1996  0.0596
 6982TIP3    H120910   0.202   2.822   4.807  0.6842  0.2458 -2.0263
 6982TIP3    H220911   0.272   2.791   4.938 -2.3699  0.6374 -0.2186
 6983TIP3   OH220912   5.853   1.476   1.318  0.1014  0.1034 -0.1777
 6983TIP3    H120913   5.797   1.403   1.344 -0.0642  0.2051 -0.2482
 6983TIP3    H220914   5.905   1.441   1.245 -0.3792  0.2286 -0.5863
 6984TIP3   OH220915   3.187   5.512   2.884  0.2757 -0.2060 -0.3108
 6984TIP3    H120916   3.235   5.437   2.920  1.4851  0.2413 -0.9216
 6984TIP3    H220917   3.222   5.587   2.932 -1.4054 -0.0798  0.7653
 6985TIP3   OH220918   5.074   6.156   0.004  0.0604  0.5083  0.0469
 6985TIP3    H120919   4.987   6.118   0.014  0.0367  0.5081 -0.1609
 6985TIP3    H220920   5.124   6.122   0.079 -0.0873  0.4249  0.1071
 6986TIP3   OH220921   3.427   2.399   4.366 -0.0478 -0.4878 -0.3104
 6986TIP3    H120922   3.413   2.324   4.423  0.1860 -0.5103 -0.2812
 6986TIP3    H220923   3.345   2.409   4.318  0.5252 -1.8630 -1.6237
 6987TIP3   OH220924   2.051   4.916   1.548 -0.4244  0.0703  0.1846
 6987TIP3    H120925   2.119   4.855   1.519  1.4865  1.9759  0.4341
 6987TIP3    H220926   1.971   4.863   1.552  0.3580 -1.5964 -3.0431
 6988TIP3   OH220927   6.110   4.081   1.355 -0.0532  0.1270 -0.2939
 6988TIP3    H120928   6.136   4.112   1.269 -2.5258  2.0360 -0.4642
 6988TIP3    H220929   6.172   4.121   1.415  1.2557 -0.6470 -1.0784
 6989TIP3   OH220930   2.334   2.234   2.346 -0.0221 -0.5981 -0.7025
 6989TIP3    H120931   2.292   2.245   2.261 -1.4655 -2.1260 -0.2301
 6989TIP3    H220932   2.270   2.185   2.398  1.5733 -1.2775  0.6859
 6990TIP3   OH220933   3.813   0.983   2.119  0.1441 -0.2402  0.5365
 6990TIP3    H120934   3.860   0.939   2.191  2.6636 -0.1662 -0.9434
 6990TIP3    H220935   3.808   0.917   2.050 -1.0709  0.0959  0.2946
 6991TIP3   OH220936   4.699   5.594   2.282  0.3211 -0.1645 -1.0186
 6991TIP3    H120937   4.776   5.618   2.230 -0.0799  0.7945 -1.1955
 6991TIP3    H220938   4.641   5.550   2.219  0.8130 -1.1103 -0.8288
 6992TIP3   OH220939   2.273   0.428   0.295 -0.6393  0.2618  0.0676
 6992TIP3    H120940   2.184   0.408   0.266 -0.6406  0.0088  0.2449
 6992TIP3    H220941   2.271   0.416   0.390 -0.7092  1.3656  0.2107
 6993TIP3   OH220942   4.638   6.658   5.817 -0.0828 -0.1147 -0.0966
 6993TIP3    H120943   4.629   6.680   5.724 -0.3837  2.1608  0.4017
 6993TIP3    H220944   4.731   6.668   5.835 -0.1413  0.2559  0.0121
 6994TIP3   OH220945   5.498   0.893   4.174 -0.1202 -0.2982 -0.5903
 6994TIP3    H120946   5.580   0.843   4.176  0.5579  0.6234 -2.4229
 6994TIP3    H220947   5.491   0.923   4.083 -1.3595  1.4715  0.0337
 6995TIP3   OH220948   1.016   5.126   3.964 -0.1064 -0.0114 -0.3275
 6995TIP3    H120949   1.030   5.212   4.005 -1.7941  0.1852 -0.1000
 6995TIP3    H220950   1.048   5.063   4.028  1.3515  0.4306 -0.5848
 6996TIP3   OH220951   2.896   3.028   1.290 -0.2095  0.2717 -0.1886
 6996TIP3    H120952   2.819   3.053   1.341 -0.3407  1.4395 -0.9310
 6996TIP3    H220953   2.968   3.079   1.327  0.0670 -0.2601  0.0201
 6997TIP3   OH220954   1.425   5.100   5.374  0.0502 -0.2312  0.3295
 6997TIP3    H120955   1.337   5.137   5.365 -0.4573 -1.0949  1.5272
 6997TIP3    H220956   1.473   5.167   5.423  0.2864  0.5499 -0.9236
 6998TIP3   OH220957   0.290   6.713   0.988 -0.3187 -0.5644 -0.3226
 6998TIP3    H120958   0.385   6.726   0.976 -0.6849  0.8886 -2.2696
 6998TIP3    H220959   0.273   6.745   1.077  0.9524 -0.3466 -0.1286
 6999TIP3   OH220960   6.099   4.628   3.293 -0.0357 -0.5672  0.3989
 6999TIP3    H120961   6.166   4.680   3.338 -0.4502 -0.8097  1.3182
 6999TIP3    H220962   6.140   4.543   3.279 -0.1954 -0.7793  1.1380
 7000TIP3   OH220963   5.969   4.627   2.388  0.0725 -0.4323 -0.2369
 7000TIP3    H120964   5.897   4.595   2.335 -0.1712 -0.1926 -0.0566
 7000TIP3    H220965   5.966   4.574   2.468  0.3731 -0.7221 -0.4160
 7001TIP3   OH220966   6.954   5.588   5.054 -0.1517 -0.0883 -0.5929
 7001TIP3    H120967   7.046   5.580   5.078 -0.1357 -0.6741 -0.8548
 7001TIP3    H220968   6.942   5.530   4.979 -0.8546 -0.4296 -0.2358
 7002TIP3   OH220969   1.130   3.894   1.931 -0.5700  0.1245 -0.1820
 7002TIP3    H120970   1.221   3.913   1.908  0.2606 -2.0744  1.0239
 7002TIP3    H220971   1.114   3.945   2.011 -1.2476  2.3744 -1.6524
 7003TIP3   OH220972   0.079   6.539   3.769  0.3009  0.3054  0.1543
 7003TIP3    H120973   0.130   6.511   3.846  0.8186  0.6933 -0.0465
 7003TIP3    H220974   0.076   6.634   3.776 -2.3267  0.2231  1.3925
 7004TIP3   OH220975   6.717   1.761   3.808  0.2178 -0.2352 -0.4588
 7004TIP3    H120976   6.720   1.766   3.713 -2.4773 -0.2459 -0.6296
 7004TIP3    H220977   6.705   1.668   3.827  2.4864 -0.4844  0.0532
 7005TIP3   OH220978   0.362   5.473   0.235  0.1588 -0.7037 -0.3051
 7005TIP3    H120979   0.426   5.528   0.191  1.0995  0.7941  2.6293
 7005TIP3    H220980   0.278   5.513   0.216  0.5705  0.0700 -0.5417
 7006TIP3   OH220981   4.123   0.412   4.016  0.0621  0.6039 -0.6513
 7006TIP3    H120982   4.140   0.325   3.981 -0.1326 -0.0777  0.8625
 7006TIP3    H220983   4.203   0.461   3.999  0.6076 -0.2238 -0.5121
 7007TIP3   OH220984  -0.017   1.162   0.836 -0.2205  0.2544  0.0713
 7007TIP3    H120985   0.066   1.197   0.803  0.1704  0.1135  0.8927
 7007TIP3    H220986  -0.008   1.163   0.931  0.0131 -2.5391  0.1550
 7008TIP3   OH220987   6.524   6.489   1.868 -0.1632 -1.1589  0.2951
 7008TIP3    H120988   6.488   6.442   1.792 -0.0007 -1.4402  0.3922
 7008TIP3    H220989   6.619   6.486   1.855 -0.0511 -2.4029  1.2033
 7009TIP3   OH220990   2.795   1.193   0.824  0.6335  0.2149 -0.1149
 7009TIP3    H120991   2.824   1.219   0.737 -0.5715 -0.2554 -0.6915
 7009TIP3    H220992   2.784   1.098   0.818 -0.8763  0.3539  0.0880
 7010TIP3   OH220993   6.831   0.625   4.094  0.2837 -0.2556 -0.5930
 7010TIP3    H120994   6.907   0.573   4.121 -0.3104 -0.0830  1.5409
 7010TIP3    H220995   6.756   0.570   4.115 -0.3119  1.0142  0.7496
 7011TIP3   OH220996   0.539   4.589   3.004  0.2867 -0.4120 -0.2378
 7011TIP3    H120997   0.605   4.618   3.067 -2.2654 -0.6042  2.7544
 7011TIP3    H220998   0.544   4.494   3.005 -0.3949 -0.4512  0.4819
 7012TIP3   OH220999   7.020   4.116   0.671  0.0248 -0.1689  0.4473
 7012TIP3    H121000   6.943   4.091   0.722 -0.2192 -1.9097 -0.6984
 7012TIP3    H221001   6.995   4.197   0.627 -1.0647 -0.5491  0.3281
 7013TIP3   OH221002   1.818   4.004   5.754  0.1956  0.0548 -0.0834
 7013TIP3    H121003   1.844   3.980   5.665 -0.1583  1.4465 -0.5819
 7013TIP3    H221004   1.726   4.029   5.747  0.0132 -0.3047  0.7835
 7014TIP3   OH221005   5.560   3.064   2.682 -0.3516  0.0423  0.1534
 7014TIP3    H121006   5.638   3.088   2.732 -1.5715 -0.9034  2.7276
 7014TIP3    H221007   5.542   3.141   2.628  1.5319  0.8277  0.5407
 7015TIP3   OH221008   3.568   2.532   1.540 -0.9547  0.0669  0.3577
 7015TIP3    H121009   3.487   2.501   1.581 -1.2838  0.3400 -0.0825
 7015TIP3    H221010   3.585   2.468   1.471 -1.0855  0.3058  0.1040
 7016TIP3   OH221011   6.811   3.398   2.509 -0.0217 -0.6582  0.5383
 7016TIP3    H121012   6.743   3.462   2.529  0.9099  0.5241  0.0861
 7016TIP3    H221013   6.881   3.450   2.469  1.6230 -1.6176  1.9992
 7017TIP3   OH221014   1.599   5.032   2.778  0.4271 -0.4202  0.2058
 7017TIP3    H121015   1.663   5.088   2.822 -0.8340  0.8807  0.4455
 7017TIP3    H221016   1.605   5.056   2.686  0.0555 -0.0706  0.2741
 7018TIP3   OH221017   3.115   1.274   2.162 -0.4732  0.2519  0.0047
 7018TIP3    H121018   3.172   1.340   2.203  0.2689 -0.4896  0.2015
 7018TIP3    H221019   3.161   1.191   2.176 -0.5908 -0.1259 -1.6289
 7019TIP3   OH221020   4.737   0.220   1.225 -0.5196  0.0961  0.2088
 7019TIP3    H121021   4.710   0.170   1.148 -0.5964  0.2959  0.1071
 7019TIP3    H221022   4.805   0.166   1.265 -0.8466 -0.2599  0.2943
 7020TIP3   OH221023   0.276   0.772   5.208 -0.6193  0.3913  0.3974
 7020TIP3    H121024   0.326   0.853   5.201 -1.8463  1.0630 -1.6716
 7020TIP3    H221025   0.195   0.797   5.253  0.0697 -0.3082  2.1252
 7021TIP3   OH221026   5.738   4.847   0.596 -0.0259  0.6052 -0.0823
 7021TIP3    H121027   5.712   4.769   0.545 -2.1399  0.2864  1.3482
 7021TIP3    H221028   5.692   4.919   0.554 -1.8288  0.3322  1.2994
 7022TIP3   OH221029   3.521   1.635   0.455  0.2217  0.1393  0.0458
 7022TIP3    H121030   3.476   1.576   0.516 -0.3897 -0.5235 -0.9956
 7022TIP3    H221031   3.614   1.617   0.469  0.1485  0.7552  1.4902
 7023TIP3   OH221032   4.735   0.916   1.398  0.1472 -0.0124 -0.1755
 7023TIP3    H121033   4.684   0.875   1.328  1.2310  0.7916 -1.4817
 7023TIP3    H221034   4.786   0.984   1.354 -0.3397  1.6299  1.6464
 7024TIP3   OH221035   7.149   1.658   4.701  0.1497 -0.0210 -0.2459
 7024TIP3    H121036   7.065   1.617   4.680 -1.6564  2.0629  2.2974
 7024TIP3    H221037   7.151   1.737   4.647 -0.1488  0.5429  0.5406
 7025TIP3   OH221038   5.819   5.226   1.234  0.2829 -0.0648 -0.1887
 7025TIP3    H121039   5.808   5.307   1.183  2.3443  1.3715  1.4716
 7025TIP3    H221040   5.801   5.252   1.324  1.1933 -1.4118  0.4074
 7026TIP3   OH221041   5.969   0.669   2.322 -0.3396  0.1602  0.0528
 7026TIP3    H121042   5.921   0.752   2.323 -1.0757 -0.1915 -1.7233
 7026TIP3    H221043   6.058   0.694   2.298 -0.2654  0.5399  0.6940
 7027TIP3   OH221044   6.873   6.591   2.923  0.5206  0.0656  0.7567
 7027TIP3    H121045   6.856   6.502   2.893 -0.6707  0.8590 -1.1083
 7027TIP3    H221046   6.855   6.588   3.017 -1.1045 -1.3061  0.4565
 7028TIP3   OH221047   5.527   5.210   3.738 -0.3413  0.5268 -0.0811
 7028TIP3    H121048   5.459   5.163   3.688 -0.7921 -0.5633  1.4783
 7028TIP3    H221049   5.600   5.148   3.741 -0.4279  0.4653  0.8364
 7029TIP3   OH221050   7.131   5.303   2.789 -0.1122  0.0606  0.0216
 7029TIP3    H121051   7.199   5.257   2.839 -0.8702  1.1447  2.1680
 7029TIP3    H221052   7.049   5.268   2.823 -0.6765 -0.7215 -2.0492
 7030TIP3   OH221053   5.573   6.336   1.375  0.4352  0.1894 -0.3025
 7030TIP3    H121054   5.542   6.349   1.286  0.7862  1.3118 -0.2727
 7030TIP3    H221055   5.643   6.401   1.387 -0.6177  1.1258  1.2668
 7031TIP3   OH221056   2.766   0.824   1.618  0.0237 -0.4401  0.1444
 7031TIP3    H121057   2.721   0.890   1.669 -1.6815 -1.3731 -0.0708
 7031TIP3    H221058   2.707   0.806   1.544  1.1666 -1.0727 -0.6543
 7032TIP3   OH221059   6.655   1.524   0.612  0.1067 -0.2816 -0.0998
 7032TIP3    H121060   6.622   1.612   0.593 -2.4492 -1.0686  0.2677
 7032TIP3    H221061   6.648   1.516   0.707  0.2899 -0.8838 -0.1323
 7033TIP3   OH221062   5.014   0.318   3.277  0.3012  0.3850 -0.1970
 7033TIP3    H121063   5.097   0.297   3.319  0.4533  1.7211  0.2191
 7033TIP3    H221064   4.960   0.354   3.348  0.0272  1.2728 -0.8416
 7034TIP3   OH221065   2.095   1.642   2.538 -1.1065 -0.1434 -0.1924
 7034TIP3    H121066   2.111   1.722   2.488 -0.7105  2.3971  3.5838
 7034TIP3    H221067   2.120   1.571   2.479  0.2834  2.5675 -3.1493
 7035TIP3   OH221068   0.005   3.002   1.218 -0.3338 -0.3297  0.2120
 7035TIP3    H121069   0.094   2.968   1.224  0.1907  0.3480 -2.4461
 7035TIP3    H221070  -0.046   2.945   1.275  1.2777 -2.7243 -0.5855
 7036TIP3   OH221071   1.942   2.013   4.590 -0.6168  0.0084 -0.6302
 7036TIP3    H121072   1.851   2.016   4.620 -0.2701 -2.3767  0.9793
 7036TIP3    H221073   1.976   2.101   4.604 -2.3159  0.6029 -0.0328
 7037TIP3   OH221074   1.350   1.353   3.003 -0.3292 -0.6180 -0.6076
 7037TIP3    H121075   1.378   1.283   3.062 -0.8858 -1.4279 -1.2838
 7037TIP3    H221076   1.289   1.405   3.056  0.2980 -0.4693 -0.0155
 7038TIP3   OH221077   1.909   5.987   3.941  0.2285  0.0293 -0.0363
 7038TIP3    H121078   1.950   6.029   3.865 -2.1130 -0.5855 -1.7759
 7038TIP3    H221079   1.930   5.894   3.932  0.0597 -0.0262  0.1420
 7039TIP3   OH221080   4.048   0.288   1.652 -0.1905 -0.1288  0.5647
 7039TIP3    H121081   3.999   0.369   1.664  1.0255  0.9248 -1.1351
 7039TIP3    H221082   3.983   0.225   1.620 -0.7074  0.8770 -0.4331
 7040TIP3   OH221083   3.389   1.591   1.116  0.1975 -0.2381  0.2256
 7040TIP3    H121084   3.432   1.658   1.170 -0.1064 -0.7368  1.1013
 7040TIP3    H221085   3.415   1.508   1.156 -0.7279 -0.5843  0.1380
 7041TIP3   OH221086   5.342   4.682   2.041 -0.2239  0.5511  0.7863
 7041TIP3    H121087   5.326   4.677   2.136 -0.1987  0.5849  0.7921
 7041TIP3    H221088   5.270   4.735   2.008 -0.8609 -0.3712  0.6378
 7042TIP3   OH221089   1.866   0.787   3.846 -0.3880 -0.3824  0.3473
 7042TIP3    H121090   1.836   0.874   3.874  0.6002 -0.1117  0.6272
 7042TIP3    H221091   1.870   0.736   3.926 -3.3195 -1.4835 -0.1088
 7043TIP3   OH221092   3.605   1.264   0.988 -0.4069  0.0026  0.0083
 7043TIP3    H121093   3.686   1.316   0.985 -0.1373 -0.3384  0.9295
 7043TIP3    H221094   3.537   1.323   0.957  0.2252  0.2293 -0.9908
 7044TIP3   OH221095   0.613   5.364   5.160 -0.2005 -0.0768 -0.6441
 7044TIP3    H121096   0.635   5.273   5.182 -0.1738  0.4339  1.7452
 7044TIP3    H221097   0.688   5.415   5.190 -1.3092  0.9602  0.5180
 7045TIP3   OH221098   6.612   5.591   3.792  0.6300 -0.4357  0.5799
 7045TIP3    H121099   6.651   5.532   3.857  1.3974 -0.7450 -0.1493
 7045TIP3    H221100   6.573   5.661   3.844  1.5972 -0.4599  1.3650
 7046TIP3   OH221101   1.391   0.272   4.802 -0.2401  0.2471 -0.2799
 7046TIP3    H121102   1.354   0.208   4.863  0.1247 -0.1254 -0.4396
 7046TIP3    H221103   1.476   0.294   4.841  0.9083 -1.4921 -1.6219
 7047TIP3   OH221104   4.483   0.118   5.851  0.2170  0.1990 -0.4996
 7047TIP3    H121105   4.578   0.122   5.842  0.0449  1.8047 -2.0365
 7047TIP3    H221106   4.463   0.179   5.922  0.3213 -0.1531 -0.1632
 7048TIP3   OH221107   3.159   1.691   4.092  0.8711 -0.3606  0.1907
 7048TIP3    H121108   3.162   1.756   4.021 -1.2650 -0.5467 -0.1168
 7048TIP3    H221109   3.130   1.610   4.050 -0.0161 -0.5862  1.2028
 7049TIP3   OH221110   1.580   6.049   0.198 -0.1152 -0.4451 -0.0645
 7049TIP3    H121111   1.651   6.110   0.179 -0.7237  0.0124 -0.9148
 7049TIP3    H221112   1.571   5.996   0.119 -0.9866 -0.2137 -0.1354
 7050TIP3   OH221113   4.604   4.560   1.868  0.8744 -0.5668 -0.2226
 7050TIP3    H121114   4.698   4.574   1.853  0.6280 -0.3771 -1.7303
 7050TIP3    H221115   4.599   4.471   1.903  1.5962 -0.7246 -0.4883
 7051TIP3   OH221116   2.021   2.956   3.933 -0.3156  0.8004  0.5039
 7051TIP3    H121117   2.062   3.029   3.979 -0.0398  1.6037 -0.9289
 7051TIP3    H221118   1.995   2.994   3.848 -0.9573 -0.5527  0.0738
 7052TIP3   OH221119   6.392   0.078   5.390 -0.0459 -0.3731 -0.6082
 7052TIP3    H121120   6.302   0.106   5.375 -0.5033 -1.3137  0.2454
 7052TIP3    H221121   6.400   0.072   5.485  0.9681 -0.1539 -0.6720
 7053TIP3   OH221122   4.567   0.712   3.858  0.0543  0.0386 -0.0123
 7053TIP3    H121123   4.566   0.753   3.945  0.4363 -1.6774  0.8506
 7053TIP3    H221124   4.649   0.663   3.856 -0.8979 -1.5888 -0.5213
 7054TIP3   OH221125   3.652   4.797   0.289  0.0432  0.2603  0.4610
 7054TIP3    H121126   3.695   4.754   0.363 -1.1556  1.5203  1.9741
 7054TIP3    H221127   3.559   4.779   0.303 -0.3235  1.7695  0.0988
 7055TIP3   OH221128   3.185   3.522   1.705  0.1327  0.1791 -0.0861
 7055TIP3    H121129   3.231   3.574   1.771 -0.8988  0.9638  0.0307
 7055TIP3    H221130   3.239   3.443   1.695  1.0596  0.7040  0.6407
 7056TIP3   OH221131   0.750   2.205   0.979 -0.3838 -0.2229 -0.3249
 7056TIP3    H121132   0.807   2.131   0.958 -1.5803 -1.2218 -0.1790
 7056TIP3    H221133   0.762   2.220   1.073 -1.1311 -1.1367 -0.0676
 7057TIP3   OH221134   4.004   4.388   2.610  0.0390  0.1142  0.1630
 7057TIP3    H121135   3.928   4.339   2.578  0.3471 -0.0819 -0.2872
 7057TIP3    H221136   3.970   4.441   2.682 -0.2716 -0.8860  0.7730
 7058TIP3   OH221137   6.354   6.676   3.362  0.2293 -0.1011 -0.2493
 7058TIP3    H121138   6.313   6.700   3.445  1.6612  0.1128  0.4334
 7058TIP3    H221139   6.394   6.590   3.379  0.6451  0.0067 -0.6620
 7059TIP3   OH221140   2.329   3.630   1.492  0.2284 -0.2406  0.0888
 7059TIP3    H121141   2.361   3.686   1.420  1.1869 -0.5639  0.2557
 7059TIP3    H221142   2.396   3.637   1.559 -0.1943 -0.7241  0.5637
 7060TIP3   OH221143   4.225   2.791   3.533  0.3133 -0.1735  0.4684
 7060TIP3    H121144   4.197   2.808   3.623  2.6928 -1.3679  1.5302
 7060TIP3    H221145   4.284   2.864   3.513 -0.1352  0.0365 -0.0896
 7061TIP3   OH221146   3.955   5.480   0.952 -0.0043 -0.2089 -0.1575
 7061TIP3    H121147   3.919   5.500   1.038  0.3367 -2.1162  0.4863
 7061TIP3    H221148   3.972   5.386   0.955 -1.6165 -0.7117 -2.8982
 7062TIP3   OH221149   5.263   5.429   5.712 -0.4109 -0.4315 -0.4651
 7062TIP3    H121150   5.203   5.414   5.639  0.1501 -3.3577 -0.4734
 7062TIP3    H221151   5.212   5.407   5.790  0.8445 -4.6787 -0.5649
 7063TIP3   OH221152   5.274   4.665   2.306 -0.0967 -0.1574 -0.3815
 7063TIP3    H121153   5.221   4.700   2.377 -0.0094  1.6234 -1.1224
 7063TIP3    H221154   5.247   4.574   2.298 -0.8098 -0.1223  1.2603
 7064TIP3   OH221155   4.801   1.596   1.889  0.1200  0.5037 -0.3779
 7064TIP3    H121156   4.747   1.664   1.931  1.4440  0.8084  0.9095
 7064TIP3    H221157   4.855   1.644   1.826 -1.1387  0.1823 -1.7537
 7065TIP3   OH221158   1.864   5.540   2.646  0.0444 -0.0252 -0.5193
 7065TIP3    H121159   1.851   5.606   2.577  1.2900  1.1929  0.3538
 7065TIP3    H221160   1.791   5.552   2.706  0.6868  1.1714  0.0640
 7066TIP3   OH221161   2.291   0.524   4.543  0.0226 -0.2885 -0.4924
 7066TIP3    H121162   2.201   0.557   4.544  0.5762  1.3046  0.3058
 7066TIP3    H221163   2.287   0.440   4.588 -0.8745  0.3568  0.6697
 7067TIP3   OH221164   6.274   0.062   4.349  0.4169 -0.4428 -0.3058
 7067TIP3    H121165   6.324   0.000   4.402 -0.1257 -0.8154 -0.2178
 7067TIP3    H221166   6.234   0.008   4.281 -2.0472 -0.6401  1.1764
 7068TIP3   OH221167   6.080   1.165   1.776  0.4096  0.1149 -0.0158
 7068TIP3    H121168   6.028   1.227   1.726 -0.1987 -0.9895 -0.8074
 7068TIP3    H221169   6.171   1.192   1.762  0.1760  0.5382 -0.7227
 7069TIP3   OH221170   5.168   1.249   4.479  0.4580  0.2834 -0.3212
 7069TIP3    H121171   5.153   1.208   4.394 -1.1026 -2.1162  0.9830
 7069TIP3    H221172   5.181   1.175   4.539  0.3766  1.8481  1.7304
 7070TIP3   OH221173   5.986   5.062   0.325 -0.0084 -0.2561 -0.3552
 7070TIP3    H121174   5.918   5.011   0.280 -0.2390 -0.0347 -0.2580
 7070TIP3    H221175   5.938   5.116   0.388  0.2962 -0.4024  0.0054
 7071TIP3   OH221176   4.138   6.040   2.532  0.2544 -0.3457 -0.4240
 7071TIP3    H121177   4.139   6.056   2.438  1.5555  0.0619 -0.3519
 7071TIP3    H221178   4.229   6.028   2.556 -0.1876 -2.2207  0.5081
 7072TIP3   OH221179   7.064   3.687   5.655  0.2807  0.5042  0.3637
 7072TIP3    H121180   7.150   3.647   5.666  0.4473  1.2382  2.0719
 7072TIP3    H221181   7.008   3.617   5.620  1.5838  0.0727 -0.9639
 7073TIP3   OH221182   3.355   2.716   3.942 -0.1271 -0.1107 -0.1061
 7073TIP3    H121183   3.407   2.638   3.922  1.0989  1.0227 -1.5846
 7073TIP3    H221184   3.410   2.767   4.002 -0.6245 -0.0646  0.3124
 7074TIP3   OH221185   3.865   3.927   3.097 -0.8898 -0.1474  0.3876
 7074TIP3    H121186   3.947   3.883   3.073 -0.5460 -0.2025  1.6152
 7074TIP3    H221187   3.854   3.994   3.029  0.1021 -0.2342  0.1183
 7075TIP3   OH221188   7.041   0.342   5.636 -0.0268 -0.1786  0.0293
 7075TIP3    H121189   7.110   0.315   5.575  1.0061  0.5077  0.8547
 7075TIP3    H221190   6.990   0.407   5.588 -0.5865 -1.2457 -0.8580
 7076TIP3   OH221191   4.523   5.413   3.496 -0.2957 -0.1224 -0.1316
 7076TIP3    H121192   4.482   5.335   3.459 -0.1776 -0.6327  0.7843
 7076TIP3    H221193   4.452   5.457   3.543  0.1414 -0.9462  1.3608
 7077TIP3   OH221194   6.557   1.915   0.757 -0.2202 -0.2964  0.3841
 7077TIP3    H121195   6.582   2.007   0.745  0.2691 -0.4383  0.2974
 7077TIP3    H221196   6.596   1.870   0.682  0.9288 -0.8293  1.2649
 7078TIP3   OH221197   2.322   5.210   1.662  0.0517 -0.1819  0.3384
 7078TIP3    H121198   2.329   5.280   1.596  2.3068  0.2131  0.8971
 7078TIP3    H221199   2.259   5.242   1.726 -1.1042  0.0454 -0.8740
 7079TIP3   OH221200   5.448   6.511   2.368  0.3612  1.0714 -0.0683
 7079TIP3    H121201   5.424   6.578   2.305  1.4605  0.7764 -0.8375
 7079TIP3    H221202   5.389   6.438   2.350 -1.0591  1.9077  0.9871
 7080TIP3   OH221203   1.555   5.884   0.587 -0.6466 -0.2751 -0.0692
 7080TIP3    H121204   1.545   5.979   0.581  2.0895  0.1477  0.7328
 7080TIP3    H221205   1.596   5.870   0.673 -1.0441 -2.1981 -0.1492
 7081TIP3   OH221206   1.922   5.569   2.240  0.1195 -0.3004  0.4917
 7081TIP3    H121207   1.897   5.595   2.329 -1.8941  0.5366 -0.2745
 7081TIP3    H221208   1.900   5.644   2.186  0.6911 -1.0576 -0.8279
 7082TIP3   OH221209   7.093   4.915   0.224 -0.2573  0.3714  0.4530
 7082TIP3    H121210   7.073   4.843   0.284 -1.6348 -0.9819 -1.4822
 7082TIP3    H221211   7.048   4.891   0.142  1.9603  1.8285 -1.3166
 7083TIP3   OH221212   5.738   6.571   0.238 -0.2853  0.4132 -0.1872
 7083TIP3    H121213   5.821   6.597   0.278  0.2475 -0.6610 -0.5594
 7083TIP3    H221214   5.743   6.476   0.232 -1.7780  0.2852  0.2660
 7084TIP3   OH221215   3.341   2.892   0.826  0.3058  0.2499  0.0255
 7084TIP3    H121216   3.371   2.843   0.902  1.6918 -0.5407 -0.9925
 7084TIP3    H221217   3.339   2.829   0.755 -0.8803  0.9938 -0.6472
 7085TIP3   OH221218   6.969   0.823   5.018 -0.1460  0.2921  0.1938
 7085TIP3    H121219   6.941   0.733   5.036 -0.1911  0.3420  0.3762
 7085TIP3    H221220   7.062   0.816   4.999  0.4719  0.5333  2.8374
 7086TIP3   OH221221   5.226   4.750   1.599 -0.0920 -0.1328  0.3453
 7086TIP3    H121222   5.209   4.665   1.638 -1.8952  0.5442  1.1290
 7086TIP3    H221223   5.182   4.747   1.514  0.3617 -0.1764  0.1068
 7087TIP3   OH221224   3.832   2.448   2.512 -0.1861  0.1804 -0.1981
 7087TIP3    H121225   3.786   2.408   2.438  0.4086 -0.9340  0.0222
 7087TIP3    H221226   3.916   2.403   2.516 -1.0044 -1.3019  2.4425
 7088TIP3   OH221227   2.447   0.458   3.215 -0.0227 -0.2804  0.1882
 7088TIP3    H121228   2.409   0.458   3.303  0.5275  1.3948  0.4569
 7088TIP3    H221229   2.532   0.414   3.226  1.0934  1.9318  1.0408
 7089TIP3   OH221230   5.830   3.852   3.404 -0.8888 -0.3436 -0.1455
 7089TIP3    H121231   5.750   3.901   3.425 -2.2698 -1.4407 -2.4320
 7089TIP3    H221232   5.802   3.761   3.405  0.6722 -0.8312  0.2393
 7090TIP3   OH221233   0.094   2.389   4.171 -0.2706 -0.1004  0.5501
 7090TIP3    H121234   0.003   2.368   4.150 -0.2246  0.1123  0.1362
 7090TIP3    H221235   0.090   2.435   4.255 -0.5164 -0.3332  0.6679
 7091TIP3   OH221236   7.013   4.045   2.871 -0.4887 -0.2025 -0.1399
 7091TIP3    H121237   7.039   3.978   2.934 -0.0999 -0.4759 -0.5894
 7091TIP3    H221238   7.003   3.998   2.789 -0.1536  0.3004 -0.4737
 7092TIP3   OH221239   6.111   5.439   0.989 -0.2921 -0.1088 -1.0400
 7092TIP3    H121240   6.147   5.355   0.960 -1.3870 -0.2785 -2.0164
 7092TIP3    H221241   6.078   5.480   0.908 -0.1262  1.0859 -0.5235
 7093TIP3   OH221242   0.784   4.306   4.143  0.2787 -0.1233  1.0172
 7093TIP3    H121243   0.808   4.375   4.205 -0.4956 -1.7932  3.3181
 7093TIP3    H221244   0.691   4.292   4.159  0.3101 -1.3353  0.1983
 7094TIP3   OH221245   4.888   6.701   3.150  0.4840  0.4472 -0.3022
 7094TIP3    H121246   4.902   6.621   3.099  0.1955 -0.3826  0.8799
 7094TIP3    H221247   4.956   6.698   3.218 -1.5610 -0.5640  1.8301
 7095TIP3   OH221248   2.134   6.613   3.066  0.5839  0.2818 -0.3480
 7095TIP3    H121249   2.196   6.657   3.009  2.4984 -2.7127 -0.8208
 7095TIP3    H221250   2.057   6.670   3.068  2.8923  3.6802 -0.5757
 7096TIP3   OH221251   0.489   6.562   3.490  0.0298  0.0039 -0.0914
 7096TIP3    H121252   0.398   6.574   3.461 -0.4246 -2.3538  0.1360
 7096TIP3    H221253   0.524   6.650   3.497 -2.3115  0.9954 -0.0167
 7097TIP3   OH221254   4.462   4.757   1.392  0.0989 -0.5515  0.8030
 7097TIP3    H121255   4.451   4.717   1.478  1.3379  0.7871  1.6288
 7097TIP3    H221256   4.452   4.684   1.331  2.2768 -2.1896  2.2320
 7098TIP3   OH221257   4.381   4.016   4.611 -0.1804  0.0227 -0.3333
 7098TIP3    H121258   4.358   3.929   4.579 -1.5353 -0.5150  1.8639
 7098TIP3    H221259   4.300   4.067   4.602  0.6364  1.1319 -1.7300
 7099TIP3   OH221260   6.832   0.675   1.610  0.3817 -0.8815 -0.0560
 7099TIP3    H121261   6.878   0.654   1.528  0.3301  1.2812 -0.6922
 7099TIP3    H221262   6.900   0.711   1.667 -0.3032  1.6943 -0.7576
 7100TIP3   OH221263   2.191   1.597   5.045 -0.2066  0.1104  0.4188
 7100TIP3    H121264   2.134   1.658   4.999  1.0728  0.3726 -0.8915
 7100TIP3    H221265   2.161   1.510   5.018 -0.2659  0.2337  0.0852
 7101TIP3   OH221266   5.354   4.714   5.184  0.4254 -0.1347 -0.3099
 7101TIP3    H121267   5.390   4.800   5.206 -2.8815  1.8052 -1.7718
 7101TIP3    H221268   5.351   4.713   5.089  0.1780 -1.7785 -0.3077
 7102TIP3   OH221269   0.414   3.932   0.568 -0.4457  0.3194 -0.3850
 7102TIP3    H121270   0.352   4.003   0.550 -0.7738 -0.1069 -0.9518
 7102TIP3    H221271   0.427   3.889   0.484  0.5537  0.3396 -0.2517
 7103TIP3   OH221272   0.522   5.458   1.583 -0.3799  0.3727 -0.2514
 7103TIP3    H121273   0.476   5.468   1.500 -2.4860 -0.4313  0.7292
 7103TIP3    H221274   0.577   5.536   1.590 -1.5493  1.3660 -1.5780
 7104TIP3   OH221275   2.333   4.198   0.954 -0.5305  0.7508 -0.2713
 7104TIP3    H121276   2.383   4.278   0.935 -0.2824  0.0257 -3.0850
 7104TIP3    H221277   2.242   4.222   0.937 -0.5974  0.7184  0.0260
 7105TIP3   OH221278   0.228   4.405   1.108  0.1882 -0.0650 -0.5075
 7105TIP3    H121279   0.260   4.390   1.197  0.2241 -0.5315 -0.6022
 7105TIP3    H221280   0.133   4.398   1.116  0.2302 -0.7651 -0.6360
 7106TIP3   OH221281   4.380   2.729   2.774  0.3815  0.0053  0.5313
 7106TIP3    H121282   4.389   2.684   2.691  0.7923 -0.8575  1.0274
 7106TIP3    H221283   4.392   2.660   2.840 -1.2519  0.4086  1.3064
 7107TIP3   OH221284   0.855   2.387   2.038 -0.4133 -1.0180  0.5541
 7107TIP3    H121285   0.773   2.403   1.993 -0.2796 -0.5291  0.4786
 7107TIP3    H221286   0.835   2.400   2.131 -0.3745 -0.6815  0.5178
 7108TIP3   OH221287   5.519   6.078   5.431 -0.9070 -0.1609  0.0975
 7108TIP3    H121288   5.498   6.147   5.494  1.8029  1.0430 -0.1718
 7108TIP3    H221289   5.453   6.088   5.362 -1.3314  1.3639  0.6754
 7109TIP3   OH221290   6.248   5.810   1.203 -0.5421  0.7628  0.3792
 7109TIP3    H121291   6.328   5.815   1.254 -0.4243 -0.9108  0.4293
 7109TIP3    H221292   6.265   5.741   1.139 -2.1484 -0.0898  0.8144
 7110TIP3   OH221293   1.880   5.170   0.799 -0.2228  0.2114  0.1542
 7110TIP3    H121294   1.787   5.156   0.812 -0.3576  1.4245  0.7112
 7110TIP3    H221295   1.885   5.232   0.726  0.1525 -0.0716 -0.0611
 7111TIP3   OH221296   2.596   5.081   3.355 -0.3175  0.1765  0.5608
 7111TIP3    H121297   2.567   5.054   3.268 -1.5145 -1.6145  1.4679
 7111TIP3    H221298   2.662   5.016   3.380 -2.3023 -1.3300  2.2461
 7112TIP3   OH221299   4.834   2.515   1.443 -0.1200 -0.2073 -0.0900
 7112TIP3    H121300   4.809   2.602   1.474  2.5136  1.0143 -1.0764
 7112TIP3    H221301   4.779   2.501   1.365 -1.6087 -0.1275  0.9133
 7113TIP3   OH221302   5.515   1.903   0.280 -0.8266  0.5033  0.1353
 7113TIP3    H121303   5.531   1.884   0.372 -1.4433  0.3773  0.2207
 7113TIP3    H221304   5.420   1.899   0.271 -0.7577  0.2914 -0.5564
 7114TIP3   OH221305   0.438   5.974   0.598  0.7724 -0.1299 -0.4245
 7114TIP3    H121306   0.497   6.031   0.549  0.6717  1.1696  0.9069
 7114TIP3    H221307   0.368   6.031   0.628  0.7608 -0.8872  1.1125
 7115TIP3   OH221308   2.785   0.187   5.342 -0.1472  0.4259 -0.3254
 7115TIP3    H121309   2.752   0.138   5.267 -0.4270 -1.1671  0.7823
 7115TIP3    H221310   2.869   0.146   5.361 -0.5934  0.0620  0.9092
 7116TIP3   OH221311   1.737   6.540   1.575  0.2177  0.5693  0.3046
 7116TIP3    H121312   1.678   6.511   1.645  0.4337 -0.2125  0.1798
 7116TIP3    H221313   1.825   6.531   1.613  0.2688  1.7793  0.5104
 7117TIP3   OH221314   5.632   4.404   1.662  0.5344  0.0027  0.8990
 7117TIP3    H121315   5.671   4.346   1.597  0.8810  0.0365  1.0767
 7117TIP3    H221316   5.700   4.468   1.682  0.2523  0.3053  0.9142
 7118TIP3   OH221317   6.563   3.793   2.002  0.3894  0.3813  0.6131
 7118TIP3    H121318   6.538   3.712   1.958 -2.8755  1.0666  0.9353
 7118TIP3    H221319   6.546   3.776   2.095 -1.7642  1.8241  0.5362
 7119TIP3   OH221320   7.182   4.732   3.325  0.1409 -0.5162 -0.0460
 7119TIP3    H121321   7.129   4.661   3.362  2.6754 -0.6050  3.9463
 7119TIP3    H221322   7.123   4.808   3.326 -0.6871 -1.1274  1.9027
 7120TIP3   OH221323   5.426   0.084   0.858  0.4056 -0.0999 -0.0247
 7120TIP3    H121324   5.445   0.089   0.952 -0.5588 -1.7821  0.3087
 7120TIP3    H221325   5.503   0.124   0.816  1.2198 -0.0289  1.4413
 7121TIP3   OH221326   0.506   0.084   2.568  0.0122 -0.2229 -0.3715
 7121TIP3    H121327   0.523   0.168   2.611  0.0602 -1.2503  1.7113
 7121TIP3    H221328   0.593   0.044   2.559  0.0771  0.1918 -2.0050
 7122TIP3   OH221329   3.713   2.719   2.111  0.2739  0.1392 -0.2796
 7122TIP3    H121330   3.723   2.788   2.177 -0.8818  0.5125 -0.4706
 7122TIP3    H221331   3.638   2.746   2.059  0.0071 -1.1036 -0.5805
 7123TIP3   OH221332   4.905   4.576   1.624 -0.2157  0.1077  0.0285
 7123TIP3    H121333   4.984   4.573   1.569  0.8834 -0.8023  1.5536
 7123TIP3    H221334   4.903   4.665   1.658 -0.9433  0.7001 -1.4716
 7124TIP3   OH221335   2.151   1.943   3.973  0.2234 -0.2054  0.4959
 7124TIP3    H121336   2.236   1.919   3.936 -0.5700 -1.2020 -0.7643
 7124TIP3    H221337   2.150   2.039   3.969 -0.0451 -0.2066 -2.8138
 7125TIP3   OH221338   4.305   1.075   2.270 -0.9662  0.5086 -0.0119
 7125TIP3    H121339   4.380   1.098   2.215 -1.6276  0.3669 -0.9989
 7125TIP3    H221340   4.230   1.079   2.211 -1.3980 -2.1820  0.2080
 7126TIP3   OH221341   4.162   6.528   4.986 -0.0489 -0.0689  0.2299
 7126TIP3    H121342   4.068   6.534   4.973 -0.2860 -0.7700  1.5074
 7126TIP3    H221343   4.197   6.503   4.901 -1.1467 -0.9891  0.0305
 7127TIP3   OH221344   1.936   3.979   1.892  0.5838 -0.0418  0.3218
 7127TIP3    H121345   1.990   3.955   1.817  0.4420  1.3665 -0.2607
 7127TIP3    H221346   1.999   3.996   1.963  0.8305  0.2801  0.0298
 7128TIP3   OH221347   1.499   2.173   3.122  0.1128  0.4194  0.2618
 7128TIP3    H121348   1.469   2.189   3.032  0.1663  1.2491  0.3855
 7128TIP3    H221349   1.571   2.111   3.113 -0.6288 -0.4082 -0.1663
 7129TIP3   OH221350   2.247   3.919   5.030 -0.4396 -0.1151  0.2971
 7129TIP3    H121351   2.331   3.917   5.076 -0.8346  0.7882  1.1040
 7129TIP3    H221352   2.182   3.907   5.100 -1.0494  1.2344 -0.0111
 7130TIP3   OH221353   1.513   3.968   2.511  0.0344 -0.3003  0.0610
 7130TIP3    H121354   1.573   3.893   2.513 -0.1642 -0.4780 -0.6204
 7130TIP3    H221355   1.427   3.929   2.527 -0.1143 -0.2652 -0.6488
 7131TIP3   OH221356   1.251   3.101   3.662  0.6676  0.6211 -0.3143
 7131TIP3    H121357   1.237   3.111   3.757 -0.2511  0.5332 -0.4255
 7131TIP3    H221358   1.169   3.062   3.631  1.4009 -0.4340 -0.9778
 7132TIP3   OH221359   1.756   1.161   2.323 -0.1912 -0.2279 -0.3150
 7132TIP3    H121360   1.765   1.134   2.232  2.8518  0.0229 -0.1877
 7132TIP3    H221361   1.687   1.228   2.322  1.4233  1.5869 -2.8942
 7133TIP3   OH221362   3.634   0.989   5.543 -0.3643  0.2415  0.1287
 7133TIP3    H121363   3.597   0.989   5.631  0.8642 -0.4497  0.6650
 7133TIP3    H221364   3.561   0.961   5.487 -0.9350 -0.0964  1.0243
 7134TIP3   OH221365   6.130   6.050   4.087 -0.1833  0.1622 -0.6228
 7134TIP3    H121366   6.102   5.976   4.034 -0.0195  0.2741 -0.8687
 7134TIP3    H221367   6.048   6.093   4.113 -0.2742 -0.0608 -0.5418
 7135TIP3   OH221368   2.301   6.751   2.926 -0.0677 -0.1388 -0.3432
 7135TIP3    H121369   2.304   6.733   2.832 -0.6980  0.6996 -0.5396
 7135TIP3    H221370   2.384   6.794   2.946 -0.6188  1.2612 -0.8885
 7136TIP3   OH221371   1.322   1.070   3.789  0.6362  0.0265 -0.0610
 7136TIP3    H121372   1.268   1.101   3.717  1.5488  1.1754 -0.2940
 7136TIP3    H221373   1.412   1.088   3.761  1.0378 -0.0743  1.0945
 7137TIP3   OH221374   6.894   3.159   2.437 -0.1333 -0.0934 -0.1477
 7137TIP3    H121375   6.873   3.242   2.478 -0.2282  0.1786 -0.7438
 7137TIP3    H221376   6.812   3.110   2.436  0.0293 -0.3889  0.6437
 7138TIP3   OH221377   7.196   3.520   1.953  0.0915  0.2119 -0.5649
 7138TIP3    H121378   7.178   3.429   1.977  1.8981 -0.3527 -1.1955
 7138TIP3    H221379   7.194   3.568   2.036  0.8754 -0.7276  0.0176
 7139TIP3   OH221380   5.999   2.577   0.906 -0.4774 -0.0437  0.2855
 7139TIP3    H121381   5.935   2.626   0.958 -1.5853  0.2704 -1.2954
 7139TIP3    H221382   6.078   2.631   0.909 -0.3450 -0.2617  1.9854
 7140TIP3   OH221383   2.888   6.745   0.171 -0.1214 -0.7209 -0.1165
 7140TIP3    H121384   2.841   6.752   0.254  2.5928 -0.7225  1.5431
 7140TIP3    H221385   2.907   6.651   0.163 -2.0363 -1.0445 -1.8413
 7141TIP3   OH221386   5.072   6.815   4.292 -0.0247 -0.3162 -0.0710
 7141TIP3    H121387   4.998   6.754   4.301 -0.5010  0.2215 -0.2478
 7141TIP3    H221388   5.150   6.760   4.299 -0.4417 -0.8764  0.2757
 7142TIP3   OH221389   2.391   6.434   1.676 -0.4600 -0.2372  0.3149
 7142TIP3    H121390   2.481   6.405   1.691 -0.4252 -0.3539 -0.1065
 7142TIP3    H221391   2.370   6.403   1.588  0.1733  2.4954 -0.8920
 7143TIP3   OH221392   4.526  -0.016   4.724  0.1379  0.2106  0.6065
 7143TIP3    H121393   4.440   0.017   4.697 -0.0350  0.6154  1.6232
 7143TIP3    H221394   4.549   0.036   4.801  2.6525  2.1524 -1.2945
 7144TIP3   OH221395   4.722   1.022   4.783 -0.0565  0.0598  0.4387
 7144TIP3    H121396   4.653   0.994   4.723  1.4046 -2.0107 -0.3853
 7144TIP3    H221397   4.742   1.112   4.757 -2.1874  0.5887  0.4937
 7145TIP3   OH221398   5.690   4.607   2.919 -0.0745 -0.2107 -0.4670
 7145TIP3    H121399   5.707   4.616   3.012 -0.6021  0.1934 -0.4049
 7145TIP3    H221400   5.776   4.619   2.877  0.1832 -0.5309 -0.0280
 7146TIP3   OH221401   2.983   0.846   4.328  0.3340 -0.6535  0.4150
 7146TIP3    H121402   3.028   0.764   4.349  1.6806  0.5202  2.4235
 7146TIP3    H221403   2.895   0.818   4.302  0.4020 -2.6981  2.0747
 7147TIP3   OH221404   5.537   3.472   2.934  0.3471  0.6189  0.2653
 7147TIP3    H121405   5.516   3.398   2.991 -0.8131  2.2169  2.0707
 7147TIP3    H221406   5.461   3.531   2.943  0.9329  1.7395 -1.6048
 7148TIP3   OH221407   0.902   2.737   5.074 -0.4265 -0.1261 -0.6744
 7148TIP3    H121408   0.994   2.742   5.097 -0.7739 -2.0143  1.5309
 7148TIP3    H221409   0.901   2.687   4.992  0.5007 -0.8092 -0.2908
 7149TIP3   OH221410   1.664   4.527   4.785  0.0776  0.5209 -0.1922
 7149TIP3    H121411   1.624   4.544   4.699 -0.4090 -2.9450 -0.7929
 7149TIP3    H221412   1.597   4.480   4.834  1.5273 -0.6333  0.7704
 7150TIP3   OH221413   2.252   5.494   0.453  0.4411 -0.1898 -0.0949
 7150TIP3    H121414   2.335   5.539   0.467  0.9297 -1.1787  0.2666
 7150TIP3    H221415   2.266   5.406   0.489 -1.2378  0.0833  1.3878
 7151TIP3   OH221416   2.149   4.187   3.018  0.0145 -0.1290  0.5998
 7151TIP3    H121417   2.189   4.145   2.941 -1.9803  0.7324 -0.9919
 7151TIP3    H221418   2.165   4.280   3.005  1.2614 -0.0615  2.2602
 7152TIP3   OH221419   5.494   5.640   0.550 -0.1602 -0.6672 -0.6944
 7152TIP3    H121420   5.544   5.721   0.550 -0.9030 -0.1895 -1.4474
 7152TIP3    H221421   5.556   5.573   0.519 -0.1364  0.0130 -2.1586
 7153TIP3   OH221422   6.166   0.331   0.533  0.1764  0.2666 -0.4347
 7153TIP3    H121423   6.149   0.335   0.439 -1.0105  0.1984 -0.2343
 7153TIP3    H221424   6.137   0.244   0.559  0.7027  0.2043 -0.0343
 7154TIP3   OH221425   5.078   6.518   2.513 -0.1992 -0.5978 -0.1409
 7154TIP3    H121426   5.010   6.477   2.461 -0.8085  1.0509 -0.7100
 7154TIP3    H221427   5.108   6.592   2.460  2.3600 -1.5004 -0.0920
 7155TIP3   OH221428   6.356   1.823   0.391  0.3306 -0.0197  0.0796
 7155TIP3    H121429   6.347   1.777   0.308 -1.8433  0.5263 -0.0534
 7155TIP3    H221430   6.285   1.789   0.446 -1.1680  2.7922  0.1034
 7156TIP3   OH221431   4.132   5.974   2.944  0.3338  0.1132 -0.5271
 7156TIP3    H121432   4.148   6.056   2.897  0.8636  0.7762  0.7531
 7156TIP3    H221433   4.154   5.905   2.880  1.5078  0.9819 -1.1040
 7157TIP3   OH221434   4.818   3.639   1.550 -0.5518  0.3863 -0.7406
 7157TIP3    H121435   4.855   3.723   1.576  0.7278 -0.7262  1.3163
 7157TIP3    H221436   4.892   3.578   1.549 -1.8823 -1.4392  1.3432
 7158TIP3   OH221437   4.070   1.703   0.669  0.0765 -0.5094 -0.2777
 7158TIP3    H121438   4.150   1.651   0.669  1.0024  0.5003  4.4344
 7158TIP3    H221439   4.000   1.639   0.659  1.3343 -2.3060  1.6166
 7159TIP3   OH221440   1.151   2.036   4.886 -0.0030 -0.0351 -0.0611
 7159TIP3    H121441   1.163   2.077   4.800  2.5336  0.6961  0.5706
 7159TIP3    H221442   1.132   2.110   4.945 -2.4064 -0.5962 -0.0372
 7160TIP3   OH221443   7.181   1.931   1.066 -0.3946  0.1192 -0.0600
 7160TIP3    H121444   7.176   1.836   1.057  0.6842  0.0873 -0.3608
 7160TIP3    H221445   7.099   1.962   1.026 -0.6781 -0.6628 -0.1162
 7161TIP3   OH221446   6.069   0.624   3.750  0.1338 -0.1189  0.3037
 7161TIP3    H121447   6.059   0.538   3.709 -0.1533  0.4354 -0.8138
 7161TIP3    H221448   5.988   0.670   3.729  0.5626  0.6594  0.3317
 7162TIP3   OH221449   2.874   5.067   2.698  0.1835 -0.7409 -0.2889
 7162TIP3    H121450   2.856   5.158   2.723  1.1494 -1.1843  2.4316
 7162TIP3    H221451   2.795   5.020   2.725  0.0879 -0.8560 -0.7658
 7163TIP3   OH221452   6.935   1.410   0.271  0.1602 -0.5683 -0.1142
 7163TIP3    H121453   6.853   1.450   0.243  0.7644 -0.0817 -1.2199
 7163TIP3    H221454   6.950   1.338   0.210  0.4164 -0.8299  0.2488
 7164TIP3   OH221455   3.053   3.040   4.551  0.5584  1.4829  0.1940
 7164TIP3    H121456   3.121   2.975   4.533  0.1641  1.0077  0.4030
 7164TIP3    H221457   2.971   2.990   4.548  0.4294  1.3042  3.2754
 7165TIP3   OH221458   0.901   3.834   4.875 -0.1283 -0.7360  0.0050
 7165TIP3    H121459   0.993   3.813   4.857  0.0032  0.9234 -1.6921
 7165TIP3    H221460   0.870   3.875   4.794 -2.2796 -0.9474  0.6590
 7166TIP3   OH221461   5.306   0.473   1.973 -0.2313 -0.3661  0.6224
 7166TIP3    H121462   5.248   0.412   2.018 -0.2436  0.0008  1.1051
 7166TIP3    H221463   5.385   0.475   2.026  0.0437 -0.4983  0.2243
 7167TIP3   OH221464   3.867   0.792   5.427 -0.4843 -0.3694  0.2799
 7167TIP3    H121465   3.873   0.753   5.514  0.7098  0.0260  0.3889
 7167TIP3    H221466   3.869   0.717   5.368 -0.9712 -0.6189  0.5672
 7168TIP3   OH221467   2.961   3.525   3.484  0.2927 -0.4316  0.3059
 7168TIP3    H121468   2.922   3.545   3.569 -1.8012 -1.1966 -0.3971
 7168TIP3    H221469   2.904   3.457   3.447  1.3569 -0.3796 -1.5497
 7169TIP3   OH221470   5.417   5.143   1.655  0.4660  0.2401  0.5763
 7169TIP3    H121471   5.499   5.191   1.670  0.5220  0.1647  0.5124
 7169TIP3    H221472   5.440   5.051   1.667  0.8632  0.0242 -1.3748
 7170TIP3   OH221473   0.200   4.382   0.655  0.1329 -0.1912  0.1909
 7170TIP3    H121474   0.211   4.477   0.659  1.6452 -0.3293 -0.1452
 7170TIP3    H221475   0.155   4.367   0.572 -0.8243  0.2633  0.6050
 7171TIP3   OH221476   4.287   3.224   3.848 -0.2791  0.1182 -0.0732
 7171TIP3    H121477   4.352   3.284   3.811  0.1612  1.5586  2.7557
 7171TIP3    H221478   4.229   3.280   3.899 -1.1867 -1.6390  0.9257
 7172TIP3   OH221479   1.433   4.068   0.647  0.6005  0.7979 -0.0531
 7172TIP3    H121480   1.497   4.051   0.716  0.4403  2.1930  0.4778
 7172TIP3    H221481   1.399   3.981   0.623  0.7911  0.2653  1.5014
 7173TIP3   OH221482   4.649   5.567   4.419  0.0513  0.2403  0.1499
 7173TIP3    H121483   4.607   5.652   4.416 -0.7590 -0.1675 -0.6235
 7173TIP3    H221484   4.598   5.516   4.482  1.0721  0.5782  1.2917
 7174TIP3   OH221485   0.169   3.155   4.910 -0.3914  0.5432  0.0919
 7174TIP3    H121486   0.162   3.131   5.002 -0.0834 -0.7152 -0.1916
 7174TIP3    H221487   0.120   3.087   4.864 -2.1770  2.1903 -0.5736
 7175TIP3   OH221488   5.011   1.157   3.442  0.3812  0.2005 -0.5997
 7175TIP3    H121489   4.982   1.246   3.460  0.6890  0.2509 -0.3213
 7175TIP3    H221490   4.971   1.105   3.511  1.1361  0.3089 -0.0696
 7176TIP3   OH221491   4.740   2.362   0.521  0.1614  0.3004  0.4938
 7176TIP3    H121492   4.752   2.399   0.433 -0.0421  3.2080  1.5721
 7176TIP3    H221493   4.661   2.308   0.514  0.1882  0.4246 -1.1007
 7177TIP3   OH221494   5.140   2.315   5.318  0.0968 -0.5110 -0.1322
 7177TIP3    H121495   5.177   2.228   5.331  0.2345 -0.8400 -2.4770
 7177TIP3    H221496   5.104   2.314   5.230 -0.2228  1.6958 -0.0932
 7178TIP3   OH221497   0.841   2.392   2.511 -0.0442  0.4925 -0.4887
 7178TIP3    H121498   0.840   2.337   2.590  0.7221  0.1496 -0.7055
 7178TIP3    H221499   0.932   2.389   2.481 -0.6687 -1.0410 -2.5171
 7179TIP3   OH221500   5.337   3.434   3.931  0.1248  0.3533 -0.6881
 7179TIP3    H121501   5.355   3.347   3.894 -0.8184  0.0628 -0.5065
 7179TIP3    H221502   5.242   3.443   3.924  0.2517  1.5718 -1.1219
 7180TIP3   OH221503   2.379   4.766   4.701  0.4065  0.7467 -0.0703
 7180TIP3    H121504   2.397   4.855   4.732  0.1802  0.2060  1.7262
 7180TIP3    H221505   2.311   4.733   4.760  1.4063 -1.0699  0.1262
 7181TIP3   OH221506   4.496   1.443   2.208  0.2206 -0.1681  0.0347
 7181TIP3    H121507   4.544   1.418   2.128 -0.4350  0.0042 -0.4193
 7181TIP3    H221508   4.564   1.447   2.276  0.7408 -0.6393 -0.4380
 7182TIP3   OH221509   2.374   1.216   1.799  0.4232  0.1832 -0.6093
 7182TIP3    H121510   2.316   1.194   1.872 -1.0248  0.3135 -1.6947
 7182TIP3    H221511   2.456   1.241   1.842 -0.3405  0.1518  0.9711
 7183TIP3   OH221512   5.589   1.327   0.402  0.8019 -0.0347  0.7071
 7183TIP3    H121513   5.675   1.294   0.374  0.1707  0.0781 -1.6097
 7183TIP3    H221514   5.527   1.262   0.369 -0.2371  1.7529 -1.0839
 7184TIP3   OH221515   4.562   3.631   0.249  0.0031 -0.3225  0.2358
 7184TIP3    H121516   4.585   3.700   0.312 -0.2257 -1.2992  1.4361
 7184TIP3    H221517   4.645   3.588   0.229  0.0726 -0.0269 -0.1277
 7185TIP3   OH221518   2.929   5.526   0.004 -0.5464  0.0384 -0.1122
 7185TIP3    H121519   2.863   5.513  -0.063  0.2257  1.2841 -1.1500
 7185TIP3    H221520   2.922   5.448   0.060 -2.3962 -0.1729 -0.5754
 7186TIP3   OH221521   3.811   4.378   3.858  0.5426 -0.9839  0.2016
 7186TIP3    H121522   3.880   4.443   3.874 -0.6943  1.6593 -3.7296
 7186TIP3    H221523   3.838   4.334   3.777 -0.4531 -2.8461  0.8348
 7187TIP3   OH221524   0.888   4.785   3.514 -0.1620 -0.0418 -0.0108
 7187TIP3    H121525   0.811   4.832   3.481 -0.6237 -0.2484  0.7500
 7187TIP3    H221526   0.953   4.854   3.528 -0.8762  0.4289  1.2228
 7188TIP3   OH221527   4.693   5.396   4.996  0.5514 -0.3397  0.7049
 7188TIP3    H121528   4.639   5.347   4.933 -2.5037  1.3499  1.7975
 7188TIP3    H221529   4.720   5.330   5.060 -0.2196 -1.2915  0.0901
 7189TIP3   OH221530   3.308   2.367   2.262  0.0353  0.4408 -0.2995
 7189TIP3    H121531   3.235   2.382   2.322  0.9194 -0.3915  1.0526
 7189TIP3    H221532   3.381   2.415   2.301  0.5203  0.2327 -0.9345
 7190TIP3   OH221533   2.919   1.346   0.613  0.2970  0.1030  0.7468
 7190TIP3    H121534   2.836   1.370   0.573  1.2098  1.1653 -0.5866
 7190TIP3    H221535   2.952   1.275   0.558  0.1378 -0.5530  1.4778
 7191TIP3   OH221536   1.048   2.517   4.275  0.0581 -0.1494  0.0225
 7191TIP3    H121537   0.983   2.458   4.238  0.4960 -0.4702 -0.2491
 7191TIP3    H221538   0.999   2.575   4.333 -0.1429 -1.9727  1.7709
 7192TIP3   OH221539   2.914   1.767   0.268  0.0703 -0.0242  0.3717
 7192TIP3    H121540   2.969   1.711   0.323  0.4047  0.8997  1.0008
 7192TIP3    H221541   2.973   1.834   0.235  0.1016 -1.0909 -1.9573
 7193TIP3   OH221542   3.406   2.001   3.912 -0.5717  0.0450 -0.1802
 7193TIP3    H121543   3.401   1.929   3.975 -0.8415  0.9913  0.9036
 7193TIP3    H221544   3.500   2.012   3.896 -0.5416 -0.7611 -0.6275
 7194TIP3   OH221545   3.906   1.374   3.207 -0.3163 -0.4775  0.4087
 7194TIP3    H121546   3.824   1.333   3.181  0.4114 -1.9156  0.2630
 7194TIP3    H221547   3.958   1.302   3.243  1.5133  0.0438 -1.0303
 7195TIP3   OH221548   3.796   3.984   3.559 -0.6100  0.3140  0.1963
 7195TIP3    H121549   3.856   4.003   3.631 -0.4340  1.1859 -0.1732
 7195TIP3    H221550   3.761   3.897   3.580 -0.5645  0.5530  1.3335
 7196TIP3   OH221551   6.266   2.227   1.931 -0.1081 -0.0959  0.3028
 7196TIP3    H121552   6.304   2.159   1.876 -0.7701 -1.3304  1.3263
 7196TIP3    H221553   6.342   2.275   1.965  0.3946 -0.6791  0.0193
 7197TIP3   OH221554   3.111   1.047   1.382 -0.2631  0.5025  0.1735
 7197TIP3    H121555   3.194   1.078   1.417  0.1260 -0.2340 -0.0754
 7197TIP3    H221556   3.104   0.957   1.413 -0.5533  0.2807 -0.5179
 7198TIP3   OH221557   6.510   5.640   1.423  0.1390 -0.4437  0.1409
 7198TIP3    H121558   6.551   5.607   1.343 -1.2812 -0.7256 -0.5172
 7198TIP3    H221559   6.446   5.572   1.445 -2.3263  1.4338 -0.8004
 7199TIP3   OH221560   1.330   6.422   1.883  0.2831  0.0150 -0.1029
 7199TIP3    H121561   1.425   6.428   1.896  0.2078  0.1204  0.4280
 7199TIP3    H221562   1.316   6.332   1.854  0.4350 -0.3517  0.9128
 7200TIP3   OH221563   2.833   3.633   4.352  0.5008  0.1146 -0.0342
 7200TIP3    H121564   2.738   3.632   4.341  0.6587 -0.6899 -1.6738
 7200TIP3    H221565   2.854   3.548   4.390  0.6383 -0.0246 -0.4208
 7201TIP3   OH221566   4.226   2.988   3.005  0.4613 -0.6351 -0.3037
 7201TIP3    H121567   4.246   3.071   3.048  1.3967 -1.2414  0.4788
 7201TIP3    H221568   4.302   2.932   3.023  0.9723 -0.9142 -2.8193
 7202TIP3   OH221569   6.658   1.139   4.355  0.0593  0.0385  0.3468
 7202TIP3    H121570   6.649   1.197   4.279 -1.3695 -0.6580 -0.0397
 7202TIP3    H221571   6.746   1.157   4.387  0.8804  0.0787 -1.7246
 7203TIP3   OH221572   3.271   5.525   3.815 -0.3032  0.5805  0.0451
 7203TIP3    H121573   3.231   5.442   3.838  0.5325  0.2472  0.3205
 7203TIP3    H221574   3.343   5.536   3.878  1.8021 -0.1651 -2.0570
 7204TIP3   OH221575   0.278   5.310   2.267 -0.2618 -0.3606 -0.1621
 7204TIP3    H121576   0.206   5.252   2.291  0.6540 -0.6397  2.2313
 7204TIP3    H221577   0.315   5.271   2.188 -1.5240 -1.2867 -0.3284
 7205TIP3   OH221578   3.921   2.884   1.167 -0.3430 -0.1003 -0.4623
 7205TIP3    H121579   3.907   2.901   1.260  1.4678  1.2730 -0.3879
 7205TIP3    H221580   3.898   2.791   1.156 -0.6842 -0.2639  1.3085
 7206TIP3   OH221581   4.537   0.653   0.868  0.1136  0.1570 -0.0473
 7206TIP3    H121582   4.450   0.634   0.903 -0.3065  0.1088 -1.0733
 7206TIP3    H221583   4.579   0.568   0.859 -0.1700  0.0663 -0.6092
 7207TIP3   OH221584   3.013   1.574   3.873 -0.1779  0.8940 -0.1998
 7207TIP3    H121585   3.018   1.631   3.797  0.4664 -1.6743 -2.2017
 7207TIP3    H221586   2.939   1.516   3.855 -0.5653  0.7677  1.5795
 7208TIP3   OH221587  -0.011   0.897   1.614 -0.1318  0.0712  0.0622
 7208TIP3    H121588   0.041   0.824   1.580  0.5969  0.6887 -0.1859
 7208TIP3    H221589   0.028   0.975   1.574 -0.3493  0.6724  0.9860
 7209TIP3   OH221590   3.326   0.528   4.000  0.2027  0.8711 -0.0192
 7209TIP3    H121591   3.414   0.512   3.968 -0.1166  0.2790 -0.6144
 7209TIP3    H221592   3.273   0.456   3.965  0.1797 -1.0435  3.4331
 7210TIP3   OH221593   4.478   3.776   4.837 -0.1504  0.0944 -0.0912
 7210TIP3    H121594   4.573   3.780   4.829 -0.2210  1.1783 -0.6114
 7210TIP3    H221595   4.463   3.741   4.925  0.7077 -1.6965 -0.6127
 7211TIP3   OH221596   3.036   3.475   4.037  0.5894 -0.0393 -0.1601
 7211TIP3    H121597   3.068   3.563   4.058  1.4709 -0.3209 -0.2692
 7211TIP3    H221598   2.944   3.476   4.062  0.9844  0.4163  1.3989
 7212TIP3   OH221599   6.869   4.822   2.037 -0.4370  0.9864  0.0524
 7212TIP3    H121600   6.866   4.851   1.946  2.7953  0.9681 -0.1439
 7212TIP3    H221601   6.938   4.874   2.077 -0.6467 -0.1847  2.0791
 7213TIP3   OH221602   4.265   0.142   2.642 -0.2909 -0.4052 -0.1219
 7213TIP3    H121603   4.171   0.151   2.624  0.0615  0.3992 -1.6864
 7213TIP3    H221604   4.303   0.224   2.612  0.8608 -0.4456  1.1168
 7214TIP3   OH221605   7.105   4.748   4.983  0.7591 -0.6559 -0.1957
 7214TIP3    H121606   7.144   4.835   4.978 -1.0376  0.2399  0.4375
 7214TIP3    H221607   7.178   4.688   4.966  2.3309  0.9119  0.6495
 7215TIP3   OH221608   2.831   3.284   3.469 -0.1236  0.3006  0.2888
 7215TIP3    H121609   2.742   3.250   3.461 -0.2500 -0.3143  3.2244
 7215TIP3    H221610   2.887   3.213   3.436 -0.6357  0.1757 -0.3421
 7216TIP3   OH221611   4.510   5.967   2.929 -0.2558 -0.2895  0.0532
 7216TIP3    H121612   4.479   5.881   2.901  0.4259 -0.5908  0.2088
 7216TIP3    H221613   4.441   6.001   2.986  0.7457 -1.9851  2.3941
 7217TIP3   OH221614   1.048   1.996   1.519 -0.2471 -0.7411  0.0640
 7217TIP3    H121615   1.055   2.007   1.614  0.7895  0.8964 -0.1511
 7217TIP3    H221616   0.969   2.045   1.495 -0.0114 -0.3852 -0.0014
 7218TIP3   OH221617   4.032   5.310   2.725 -0.2886  0.2875 -0.4912
 7218TIP3    H121618   3.964   5.302   2.793  0.8141 -0.4491  0.5598
 7218TIP3    H221619   4.110   5.339   2.772  0.3042  0.4980 -1.5727
 7219TIP3   OH221620   1.937   4.597   0.438 -0.2851  0.0590 -0.7329
 7219TIP3    H121621   1.932   4.502   0.435  1.5091 -0.2415  2.3857
 7219TIP3    H221622   2.025   4.618   0.406  1.1015  0.1716  2.7262
 7220TIP3   OH221623   1.232   2.062   2.032 -0.0471  0.1587 -0.3397
 7220TIP3    H121624   1.142   2.077   2.060  0.4287  1.1708  0.7194
 7220TIP3    H221625   1.237   2.101   1.944 -0.3762  1.0840  0.0366
 7221TIP3   OH221626   6.290   2.124   1.069 -0.0214  0.5750 -0.0283
 7221TIP3    H121627   6.366   2.090   1.115  0.7158 -0.4780 -1.8766
 7221TIP3    H221628   6.301   2.093   0.979 -1.4655  2.3307 -0.8843
 7222TIP3   OH221629   2.778   0.961   0.449  0.5677 -0.0687 -0.0130
 7222TIP3    H121630   2.741   1.048   0.464  2.1831  0.6141  0.1949
 7222TIP3    H221631   2.710   0.914   0.401 -0.1620  1.4470 -0.5253
 7223TIP3   OH221632   6.811   5.970   1.443 -0.7498 -0.4420  0.3936
 7223TIP3    H121633   6.736   6.030   1.442 -1.2533 -0.9973  1.5628
 7223TIP3    H221634   6.816   5.936   1.354 -1.7101 -0.1680  0.2192
 7224TIP3   OH221635   0.701   6.248   5.513  0.1658  0.0231  0.2043
 7224TIP3    H121636   0.647   6.203   5.578  0.8874 -1.5807 -0.2403
 7224TIP3    H221637   0.766   6.183   5.487 -0.1799  0.5507 -2.2254
 7225TIP3   OH221638   2.618   2.630   0.402  0.0154 -1.0207 -0.2194
 7225TIP3    H121639   2.550   2.596   0.343 -0.7113  0.1837 -0.1162
 7225TIP3    H221640   2.614   2.574   0.479 -1.1273 -0.7600 -0.0675
 7226TIP3   OH221641   6.756   5.152   1.086  0.0272 -0.1945 -0.3343
 7226TIP3    H121642   6.720   5.135   0.999 -0.4442  1.1977 -0.4302
 7226TIP3    H221643   6.757   5.247   1.094  2.0164 -0.2339  0.3906
 7227TIP3   OH221644   6.248   0.033   3.447  0.6085  0.3087 -0.1622
 7227TIP3    H121645   6.285   0.004   3.364  1.3185  0.8595 -0.0522
 7227TIP3    H221646   6.158   0.002   3.446 -0.4165  2.8905 -2.5143
 7228TIP3   OH221647   7.085   6.512   1.259  0.4560  0.5545  0.4832
 7228TIP3    H121648   7.009   6.459   1.234 -0.6438  1.7984  1.0913
 7228TIP3    H221649   7.160   6.458   1.235 -0.6000 -0.4319 -0.7551
 7229TIP3   OH221650   5.634   4.367   5.023  0.0975  0.3280  0.3693
 7229TIP3    H121651   5.610   4.396   4.935 -2.2924 -1.3095  0.4022
 7229TIP3    H221652   5.553   4.370   5.073  1.3624  1.0678  2.5377
 7230TIP3   OH221653   6.977   1.343   5.473  0.3829 -0.5429  0.1898
 7230TIP3    H121654   6.930   1.427   5.480  0.3906 -0.4498 -0.7461
 7230TIP3    H221655   6.922   1.290   5.416  0.6968 -0.9489  0.2645
 7231TIP3   OH221656   5.000   5.123   0.609  0.1639  0.2979  0.1630
 7231TIP3    H121657   4.961   5.070   0.540  0.3332 -1.0174  1.0468
 7231TIP3    H221658   5.062   5.180   0.564  0.3346 -0.5899 -0.7520
 7232TIP3   OH221659   1.486   4.334   4.963  0.0080  1.0040 -0.2916
 7232TIP3    H121660   1.519   4.362   5.049 -0.3691  0.6339 -0.0224
 7232TIP3    H221661   1.410   4.390   4.947 -0.0873  0.8871 -0.2540
 7233TIP3   OH221662   3.169   0.034   2.881 -0.3869 -0.0543  0.1852
 7233TIP3    H121663   3.081   0.039   2.917 -0.6086 -0.5363 -0.2722
 7233TIP3    H221664   3.192   0.125   2.861 -1.2394 -0.0279 -0.7725
 7234TIP3   OH221665   4.394   0.526   1.109 -0.0340  0.1676 -0.1997
 7234TIP3    H121666   4.368   0.617   1.119 -2.3541 -0.6925  3.0620
 7234TIP3    H221667   4.456   0.510   1.180  1.6795 -0.4693 -1.7429
 7235TIP3   OH221668   6.159   5.498   2.945  0.2952  0.1039 -0.2411
 7235TIP3    H121669   6.091   5.432   2.956 -0.3501  0.3757 -2.1986
 7235TIP3    H221670   6.112   5.582   2.954  0.6398  0.2894 -0.1723
 7236TIP3   OH221671   5.123   3.720   4.876 -0.3333  0.1395 -0.0104
 7236TIP3    H121672   5.068   3.796   4.896 -0.4630 -0.3269  1.6160
 7236TIP3    H221673   5.213   3.753   4.883 -0.3606 -0.0539  1.8433
 7237TIP3   OH221674   0.275   6.239   2.274 -0.2594  0.3946 -0.4031
 7237TIP3    H121675   0.254   6.156   2.230 -0.7744  0.5938 -0.5445
 7237TIP3    H221676   0.343   6.278   2.219  0.0350  0.0359 -0.2997
 7238TIP3   OH221677   1.263   0.928   5.052 -0.0767 -0.0078  1.1390
 7238TIP3    H121678   1.262   1.019   5.082 -1.6816 -0.3168  2.1167
 7238TIP3    H221679   1.324   0.884   5.111  1.0276  0.4864  0.4009
 7239TIP3   OH221680   0.767   1.952   0.669 -0.0691  0.4927  0.2754
 7239TIP3    H121681   0.762   1.924   0.761 -0.1351  2.0032  0.7656
 7239TIP3    H221682   0.852   1.996   0.662  0.2016 -0.1476 -0.5550
 7240TIP3   OH221683   6.265   2.803   1.465 -0.0726  0.3756 -0.2084
 7240TIP3    H121684   6.359   2.793   1.446  0.3233  1.9898  0.7172
 7240TIP3    H221685   6.230   2.715   1.456  1.4152 -0.1763 -1.1580
 7241TIP3   OH221686   2.845   4.329   4.871  0.1738  0.1520  0.8009
 7241TIP3    H121687   2.755   4.355   4.855 -1.0557 -2.4094  2.7775
 7241TIP3    H221688   2.867   4.369   4.956  0.9885  0.8721  0.2701
 7242TIP3   OH221689   1.475   3.853   5.225  0.5395  0.1167 -0.2106
 7242TIP3    H121690   1.549   3.836   5.167 -1.2069 -1.2182 -2.2135
 7242TIP3    H221691   1.410   3.894   5.168 -1.0080 -0.6461  0.9458
 7243TIP3   OH221692   0.948   5.997   5.732 -0.1778 -0.0576  0.3870
 7243TIP3    H121693   0.954   6.075   5.787 -0.6433  0.9107 -0.8792
 7243TIP3    H221694   0.864   5.958   5.755  0.2148 -0.3936  1.2784
 7244TIP3   OH221695   6.946   0.356   5.899 -0.2231 -0.1357  0.5019
 7244TIP3    H121696   6.966   0.377   5.808  2.1535  1.7082  1.3434
 7244TIP3    H221697   6.984   0.269   5.912 -0.4451 -0.3484 -0.2231
 7245TIP3   OH221698   4.552   1.884   5.204 -0.3124  0.0864  0.3228
 7245TIP3    H121699   4.550   1.790   5.217 -0.3854  0.0825  0.2819
 7245TIP3    H221700   4.623   1.899   5.142 -0.5678  0.0222  0.0144
 7246TIP3   OH221701   5.635   3.820   1.504  0.2911 -0.0255 -0.5095
 7246TIP3    H121702   5.593   3.792   1.585  1.0600  1.2980  0.3956
 7246TIP3    H221703   5.724   3.783   1.509 -0.3096 -1.8096 -1.8430
 7247TIP3   OH221704   2.216   3.244   5.106 -0.3119 -0.2868  0.0433
 7247TIP3    H121705   2.280   3.313   5.095  1.4079 -2.0521 -1.7902
 7247TIP3    H221706   2.253   3.187   5.174 -1.1958 -0.0037  0.7865
 7248TIP3   OH221707   2.370   6.066   4.093  0.1755  0.0989 -0.5498
 7248TIP3    H121708   2.368   5.980   4.134 -2.3149 -0.5487 -1.8447
 7248TIP3    H221709   2.381   6.049   3.999  2.7014  1.3993 -0.5831
 7249TIP3   OH221710   0.060   1.113   5.169  0.2853  0.1154  0.2182
 7249TIP3    H121711  -0.005   1.061   5.215  0.1247 -0.0292 -0.1628
 7249TIP3    H221712   0.023   1.201   5.167 -0.4533 -0.1928 -0.9930
 7250TIP3   OH221713   0.212   4.945   4.963  0.3838  0.0101  0.0903
 7250TIP3    H121714   0.206   4.849   4.961 -0.3591  0.0263 -2.8742
 7250TIP3    H221715   0.180   4.969   5.050  0.1438 -2.4005  0.7350
 7251TIP3   OH221716   5.506   3.231   2.375 -0.6254  0.3473  0.1647
 7251TIP3    H121717   5.545   3.312   2.342 -0.0539 -0.0351 -0.1222
 7251TIP3    H221718   5.429   3.260   2.424  0.7975  1.2720  2.0020
 7252TIP3   OH221719   6.931   2.401   1.735  0.4893  0.3066 -0.0011
 7252TIP3    H121720   6.847   2.430   1.771  0.1618  1.5716 -1.6578
 7252TIP3    H221721   6.981   2.371   1.812 -1.7280 -1.2787  0.9439
 7253TIP3   OH221722   6.605   1.872   5.418 -0.6743 -0.3999  0.0035
 7253TIP3    H121723   6.654   1.855   5.337 -0.7290  0.8820 -0.3137
 7253TIP3    H221724   6.528   1.814   5.412 -0.1456 -1.0791 -0.3547
 7254TIP3   OH221725   6.734   4.496   3.552  0.0724 -0.0272 -0.3598
 7254TIP3    H121726   6.734   4.402   3.570  0.5050  0.1014  0.3062
 7254TIP3    H221727   6.726   4.501   3.456  1.5556 -0.7754 -0.5520
 7255TIP3   OH221728   3.511   0.192   2.485 -0.2691 -0.1552 -0.4993
 7255TIP3    H121729   3.439   0.232   2.534  0.6276  0.1968  0.5449
 7255TIP3    H221730   3.589   0.240   2.511  0.5137 -1.2100 -0.8273
 7256TIP3   OH221731   0.480   1.939   3.916 -0.3392  0.2164  0.2970
 7256TIP3    H121732   0.461   1.904   4.003  0.7836  0.6196  0.7200
 7256TIP3    H221733   0.485   1.862   3.860 -2.3480  0.0280  0.2984
 7257TIP3   OH221734   1.745   3.850   1.412 -0.8734 -0.1292 -0.7089
 7257TIP3    H121735   1.672   3.793   1.436 -0.6493  0.3429  1.2179
 7257TIP3    H221736   1.802   3.793   1.360 -0.3891 -1.9382  1.5911
 7258TIP3   OH221737   2.259   5.803   5.408  0.0549  0.7648  0.2164
 7258TIP3    H121738   2.248   5.896   5.428  0.8356  0.7123  0.9080
 7258TIP3    H221739   2.236   5.758   5.489  2.5386  0.5157  0.8512
 7259TIP3   OH221740   2.570   2.289   1.449  0.0327  0.1864 -0.3015
 7259TIP3    H121741   2.512   2.305   1.524 -0.0655 -1.2423 -0.0434
 7259TIP3    H221742   2.617   2.372   1.437 -1.7814  1.2757 -0.2856
 7260TIP3   OH221743   5.449   6.279   1.703 -0.0945  0.5828  0.3970
 7260TIP3    H121744   5.460   6.276   1.798 -1.5454 -1.4716  0.5708
 7260TIP3    H221745   5.376   6.219   1.685  0.9383 -0.0607 -2.1228
 7261TIP3   OH221746   0.871   3.671   2.004 -0.1587  0.7510  0.1326
 7261TIP3    H121747   0.873   3.766   2.016 -1.6322  0.9339 -0.7989
 7261TIP3    H221748   0.802   3.641   2.062 -1.3355  0.5807 -1.2899
 7262TIP3   OH221749   4.594   0.474   1.708  0.3647 -0.6102  0.0981
 7262TIP3    H121750   4.541   0.395   1.714  1.5878 -1.5839 -1.2886
 7262TIP3    H221751   4.629   0.487   1.796 -1.0829 -0.6940  0.7102
 7263TIP3   OH221752   4.165   4.005   0.869  0.5478 -0.1445 -0.1055
 7263TIP3    H121753   4.173   3.916   0.902 -0.6152  0.1975  1.2394
 7263TIP3    H221754   4.100   4.046   0.926 -1.4428  0.6034 -2.6815
 7264TIP3   OH221755   6.219   2.861   5.450 -0.3074 -0.1905 -0.3351
 7264TIP3    H121756   6.139   2.847   5.400 -1.2356 -1.9717  1.4884
 7264TIP3    H221757   6.196   2.930   5.512 -0.9103 -1.5024  0.9785
 7265TIP3   OH221758   5.411   0.699   2.943 -0.5452 -0.0702  0.1422
 7265TIP3    H121759   5.318   0.721   2.949 -0.5312 -0.1737  0.7531
 7265TIP3    H221760   5.413   0.604   2.932 -0.5255 -0.0101 -0.4442
 7266TIP3   OH221761   1.830   6.078   5.145 -0.1519  0.3577  0.7548
 7266TIP3    H121762   1.895   6.007   5.142 -1.0295 -0.4448 -0.6752
 7266TIP3    H221763   1.883   6.158   5.145  0.8535 -0.2768  0.4655
 7267TIP3   OH221764   5.192   4.815   4.158 -0.0580 -0.0169 -0.1954
 7267TIP3    H121765   5.253   4.797   4.230  0.4507 -0.3483 -0.7034
 7267TIP3    H221766   5.164   4.905   4.173 -0.4368 -0.2838  0.7668
 7268TIP3   OH221767   3.442   1.749   3.594  0.7802  0.2690 -0.1230
 7268TIP3    H121768   3.524   1.783   3.630  0.5213  0.0308  0.7225
 7268TIP3    H221769   3.405   1.696   3.665  0.0345  0.1449 -0.5929
 7269TIP3   OH221770   5.046   1.461   5.109  0.3853 -0.4856 -0.0443
 7269TIP3    H121771   5.104   1.439   5.036  0.1848  0.3187 -0.4437
 7269TIP3    H221772   4.984   1.524   5.074 -1.5083 -2.1929  0.0533
 7270TIP3   OH221773   2.507   5.023   1.756  0.2339  0.4253  0.3889
 7270TIP3    H121774   2.444   5.092   1.739  1.2315  1.0154 -1.0389
 7270TIP3    H221775   2.575   5.066   1.808  0.3753  0.2677  0.3329
 7271TIP3   OH221776   3.919   0.514   1.721 -0.0868 -0.2040  0.0494
 7271TIP3    H121777   3.954   0.603   1.722 -1.2890  0.3416 -1.7264
 7271TIP3    H221778   3.874   0.505   1.806 -1.6951  1.6674 -0.5213
 7272TIP3   OH221779   1.454   5.201   1.991 -0.3194  0.7152  0.1855
 7272TIP3    H121780   1.366   5.237   1.994 -0.7419 -0.3632  1.7218
 7272TIP3    H221781   1.467   5.160   2.077  0.4108 -2.0628 -1.1295
 7273TIP3   OH221782   3.628   6.639   4.107  0.5298 -0.2859 -0.3250
 7273TIP3    H121783   3.587   6.696   4.172 -1.0104  0.3625 -1.8065
 7273TIP3    H221784   3.559   6.621   4.043  1.3005 -2.8634 -0.5658
 7274TIP3   OH221785   0.874   5.973   3.029 -0.4858  0.5754 -0.3257
 7274TIP3    H121786   0.907   6.063   3.025 -3.3667  1.8434  1.3419
 7274TIP3    H221787   0.844   5.954   2.940  2.6651  0.0940 -1.4016
 7275TIP3   OH221788   3.844   5.664   2.249 -0.4291  0.3165 -0.6072
 7275TIP3    H121789   3.830   5.595   2.314  0.5456  2.2869  1.8423
 7275TIP3    H221790   3.923   5.636   2.202  0.8037  0.3715  1.3193
 7276TIP3   OH221791   3.172   3.986   5.000  0.5937  0.4824  0.2924
 7276TIP3    H121792   3.208   3.984   4.911  1.7008  1.9071  0.6792
 7276TIP3    H221793   3.249   3.988   5.057 -0.0686  1.7460  1.1988
 7277TIP3   OH221794   2.283   0.233   4.646  0.2756  0.2044  0.6468
 7277TIP3    H121795   2.368   0.197   4.669  1.5861  1.7343 -1.4105
 7277TIP3    H221796   2.262   0.195   4.561 -0.2820  1.1100  0.3588
 7278TIP3   OH221797   7.010   1.477   1.510  0.2446  0.4017  0.1902
 7278TIP3    H121798   7.035   1.562   1.472  1.4858 -0.5280 -1.1802
 7278TIP3    H221799   7.028   1.487   1.603 -0.1063  1.7974  0.1371
 7279TIP3   OH221800   4.858   2.634   4.201 -0.2166  0.1468 -0.0578
 7279TIP3    H121801   4.916   2.631   4.278 -1.6656 -1.6932  1.0571
 7279TIP3    H221802   4.909   2.681   4.135  3.1072 -2.3661  0.4162
 7280TIP3   OH221803   3.085   6.080   3.964  0.1423  0.9040 -0.4762
 7280TIP3    H121804   3.077   6.176   3.960  1.0615  1.4580  4.5320
 7280TIP3    H221805   3.179   6.064   3.971 -0.0429 -0.3122 -0.5439
 7281TIP3   OH221806   1.475   2.137   3.834 -1.1810  0.0357 -0.0289
 7281TIP3    H121807   1.392   2.184   3.825 -0.8771  0.7185  0.6153
 7281TIP3    H221808   1.450   2.048   3.856 -1.7754 -0.1659 -1.4249
 7282TIP3   OH221809   3.787   0.858   3.069 -0.3062 -0.1709  0.1091
 7282TIP3    H121810   3.868   0.838   3.116  0.9883 -0.8917 -2.2542
 7282TIP3    H221811   3.772   0.951   3.086  1.0893  0.0066  0.5399
 7283TIP3   OH221812   7.104   4.926   0.679  0.5475 -0.2773 -0.2128
 7283TIP3    H121813   7.170   4.917   0.747  0.0396  0.0475  0.3339
 7283TIP3    H221814   7.137   4.995   0.622  0.3609  0.3604  0.4418
 7284TIP3   OH221815   5.500   0.370   5.577 -0.5430 -0.0825 -0.2222
 7284TIP3    H121816   5.579   0.342   5.623 -0.8859  0.9563  1.0437
 7284TIP3    H221817   5.431   0.315   5.612 -0.5135 -0.5158 -0.8256
 7285TIP3   OH221818   0.898   0.260   3.263 -0.8013 -0.3559  0.3517
 7285TIP3    H121819   0.805   0.277   3.248 -1.2472 -2.0988  0.8191
 7285TIP3    H221820   0.917   0.184   3.209  0.9703  1.2571 -1.4479
 7286TIP3   OH221821   6.713   0.529   2.876 -0.4295 -0.2356  0.0380
 7286TIP3    H121822   6.698   0.491   2.790  0.7607  0.6580 -0.6086
 7286TIP3    H221823   6.782   0.475   2.915 -1.0620 -0.7226  0.5052
 7287TIP3   OH221824   1.306   5.759   5.092 -0.0105 -0.8073  0.0964
 7287TIP3    H121825   1.318   5.696   5.020 -0.2906 -0.4443 -0.2744
 7287TIP3    H221826   1.375   5.824   5.077 -1.0050  0.0977 -0.7533
 7288TIP3   OH221827   1.537   3.420   5.675  0.5750  0.2029 -0.0815
 7288TIP3    H121828   1.455   3.404   5.722  0.9918  0.1879  0.6616
 7288TIP3    H221829   1.528   3.509   5.641  0.1481  0.1072 -0.2177
 7289TIP3   OH221830   3.830   2.411   0.793  0.2335  0.3713 -0.7145
 7289TIP3    H121831   3.849   2.490   0.843 -0.6297  0.4744 -0.5220
 7289TIP3    H221832   3.889   2.345   0.828 -1.5130 -0.0512  1.7306
 7290TIP3   OH221833   3.812   6.600   5.691 -0.6271  0.3434  0.1063
 7290TIP3    H121834   3.736   6.550   5.662  1.0226 -3.0913  1.1764
 7290TIP3    H221835   3.815   6.587   5.786  2.8307 -2.2872 -0.1662
 7291TIP3   OH221836   1.948   5.049   3.991  0.2163  0.0016  0.0192
 7291TIP3    H121837   1.970   5.119   3.930 -0.1489  0.5809  0.5360
 7291TIP3    H221838   1.891   5.091   4.056 -0.0384 -0.7838  0.3176
 7292TIP3   OH221839   0.561   1.634   3.330  0.4367 -0.2496 -0.0746
 7292TIP3    H121840   0.525   1.721   3.348 -0.5400 -0.6730  0.0724
 7292TIP3    H221841   0.588   1.601   3.415 -1.0658 -0.8912  0.1800
 7293TIP3   OH221842   6.013   1.408   1.102 -0.2321 -0.0847  0.0941
 7293TIP3    H121843   6.007   1.396   1.007 -0.3023  2.0120 -0.2204
 7293TIP3    H221844   6.104   1.387   1.124 -0.0103  0.1530 -0.5778
 7294TIP3   OH221845   4.003   2.387   1.692 -0.1053 -0.3455  0.1158
 7294TIP3    H121846   4.070   2.419   1.753 -0.5129  0.0341  0.3749
 7294TIP3    H221847   4.025   2.427   1.608 -1.3250  1.7007  0.6967
 7295TIP3   OH221848   1.911   5.730   2.459  0.0535  0.2013  0.1769
 7295TIP3    H121849   1.872   5.811   2.426 -0.7984  0.4520  1.7553
 7295TIP3    H221850   1.994   5.757   2.498  0.4428  0.0802 -0.5268
 7296TIP3   OH221851   7.041   3.956   3.830  0.4331  0.6910 -0.0595
 7296TIP3    H121852   7.120   3.993   3.791  1.2451  1.4696  2.1681
 7296TIP3    H221853   7.048   3.977   3.923 -1.8603 -0.2139  0.3865
 7297TIP3   OH221854   2.402   4.840   5.340 -0.6707  0.6033  0.1470
 7297TIP3    H121855   2.413   4.751   5.374 -0.4603  0.2713 -0.7560
 7297TIP3    H221856   2.320   4.871   5.379 -0.7616  0.0022  0.4422
 7298TIP3   OH221857   4.182   1.033   1.419  0.0501  0.0806 -0.2368
 7298TIP3    H121858   4.273   1.062   1.416  0.5315 -1.4164 -0.8323
 7298TIP3    H221859   4.131   1.114   1.413  1.3183  1.0069  0.7916
 7299TIP3   OH221860   3.732   5.919   5.131  0.3745 -0.1543  0.2977
 7299TIP3    H121861   3.777   6.001   5.150 -0.5665  0.3304  0.4970
 7299TIP3    H221862   3.794   5.851   5.158  0.6518  0.4941  1.3847
 7300TIP3   OH221863   3.937   6.709   0.639 -0.1479 -0.5381  0.5748
 7300TIP3    H121864   4.010   6.753   0.595  0.0043 -2.1274 -0.8846
 7300TIP3    H221865   3.963   6.705   0.731 -0.2296  2.4262  0.8292
 7301TIP3   OH221866   3.798   1.752   3.962 -0.1222 -0.0703 -0.2262
 7301TIP3    H121867   3.856   1.677   3.977  0.0852  0.3269  1.0888
 7301TIP3    H221868   3.843   1.804   3.895  0.5250 -0.3068  0.0170
 7302TIP3   OH221869   6.890   5.239   5.892 -0.7614 -0.2262 -0.6969
 7302TIP3    H121870   6.818   5.300   5.875 -0.2237  0.8676  0.7904
 7302TIP3    H221871   6.936   5.232   5.808 -0.0363  2.4924 -0.5906
 7303TIP3   OH221872   1.391   3.450   4.239 -0.4761  0.1056  0.6138
 7303TIP3    H121873   1.406   3.400   4.318  1.9525  0.2890  0.3504
 7303TIP3    H221874   1.452   3.413   4.175 -1.6182  0.6552 -0.8556
 7304TIP3   OH221875   1.629   0.422   3.565  0.1618 -0.4886 -0.9065
 7304TIP3    H121876   1.679   0.345   3.539  0.2710 -0.5242 -0.6042
 7304TIP3    H221877   1.687   0.468   3.626 -0.6679 -1.2018  0.4704
 7305TIP3   OH221878   5.051   2.270   0.365  0.0330  0.3697 -0.4991
 7305TIP3    H121879   4.998   2.349   0.358  0.1944  0.4734 -0.5352
 7305TIP3    H221880   5.054   2.251   0.459 -0.0242  0.3927 -0.4924
 7306TIP3   OH221881   1.045   6.235   5.367  0.6059  0.7224  0.2141
 7306TIP3    H121882   1.006   6.170   5.425  2.3627  0.9156  1.7072
 7306TIP3    H221883   1.132   6.199   5.347  0.9922  1.8701 -0.2251
 7307TIP3   OH221884   3.234   1.475   2.748  0.2616 -0.2090 -0.3474
 7307TIP3    H121885   3.167   1.483   2.681  0.8061 -0.0952 -0.8789
 7307TIP3    H221886   3.200   1.524   2.823 -0.5623 -0.7409 -0.3616
 7308TIP3   OH221887   5.909   2.103   1.060 -0.4220 -0.6002  0.5920
 7308TIP3    H121888   5.979   2.044   1.033 -0.8611 -0.7096 -0.3754
 7308TIP3    H221889   5.834   2.046   1.077 -0.6352 -0.3908  0.3714
 7309TIP3   OH221890   6.473   4.329   3.424  0.0901 -0.1299 -0.0183
 7309TIP3    H121891   6.523   4.286   3.494  0.7905 -0.5263 -0.7369
 7309TIP3    H221892   6.522   4.308   3.344 -2.2840 -2.2800 -1.0671
 7310TIP3   OH221893   7.019   5.731   0.683  0.2142 -0.1150 -0.1765
 7310TIP3    H121894   7.098   5.699   0.727  0.6598 -0.2875 -1.0714
 7310TIP3    H221895   7.046   5.742   0.591 -0.8993 -0.5135 -0.5652
 7311TIP3   OH221896   0.349   6.307   1.460 -0.1306  0.2831 -0.3073
 7311TIP3    H121897   0.380   6.230   1.412  1.0483  0.6959 -0.2357
 7311TIP3    H221898   0.358   6.282   1.552  2.0430  1.1489 -0.2431
 7312TIP3   OH221899   1.778   1.499   0.068  1.0326 -0.3793 -0.2615
 7312TIP3    H121900   1.871   1.512   0.052  0.8177  0.8557 -0.6165
 7312TIP3    H221901   1.764   1.532   0.157  0.9830 -0.9009 -0.0672
 7313TIP3   OH221902   3.658   0.540   5.151 -0.5220 -0.1818 -0.5777
 7313TIP3    H121903   3.581   0.545   5.094 -1.2223 -1.1685  0.2640
 7313TIP3    H221904   3.730   0.516   5.092 -1.1739 -0.8741 -1.1079
 7314TIP3   OH221905   6.510   0.591   0.279  0.0800 -0.0509  0.3018
 7314TIP3    H121906   6.486   0.636   0.360  0.6223  0.2234  0.3206
 7314TIP3    H221907   6.434   0.603   0.221  0.0744  0.5948  0.4318
 7315TIP3   OH221908   4.782   0.189   1.965  0.4087  0.1384  0.2257
 7315TIP3    H121909   4.860   0.232   2.000  0.5859 -0.9334  1.2066
 7315TIP3    H221910   4.816   0.128   1.900  0.2379  0.7343 -0.4433
 7316TIP3   OH221911   0.319   3.334   5.600 -0.0570 -0.2113  0.5321
 7316TIP3    H121912   0.333   3.423   5.632  0.3140  0.1960 -0.7080
 7316TIP3    H221913   0.352   3.278   5.670  0.9962  0.6475  0.7541
 7317TIP3   OH221914   5.147   0.508   1.243  0.2451  0.3895  0.0245
 7317TIP3    H121915   5.080   0.560   1.286  0.4960  0.0221  0.8799
 7317TIP3    H221916   5.099   0.450   1.184 -0.4382 -1.5415  2.3337
 7318TIP3   OH221917   6.080   2.040   4.664  0.0133  0.1438  0.0408
 7318TIP3    H121918   6.025   2.061   4.740  0.9092  0.7638  0.5584
 7318TIP3    H221919   6.052   1.954   4.636 -2.0703  0.9579 -0.5117
 7319TIP3   OH221920   2.326   6.126   0.862 -0.4402  0.4802 -0.1389
 7319TIP3    H121921   2.395   6.148   0.924 -1.6341 -0.0454  1.4375
 7319TIP3    H221922   2.354   6.043   0.824 -1.4401 -1.1971  2.5445
 7320TIP3   OH221923   0.266   1.817   3.385  0.1259 -0.1410 -0.2259
 7320TIP3    H121924   0.243   1.724   3.380 -1.7182  0.1545  1.5041
 7320TIP3    H221925   0.261   1.838   3.478  1.2777  1.5357 -0.5007
 7321TIP3   OH221926   3.572   5.332   2.942  0.1514  0.1001 -0.1891
 7321TIP3    H121927   3.556   5.407   2.884  0.4001 -0.6557 -1.2848
 7321TIP3    H221928   3.485   5.295   2.958  0.1229  0.0162 -0.5145
 7322TIP3   OH221929   4.454   1.321   5.037 -0.1107  0.5867 -0.0712
 7322TIP3    H121930   4.424   1.287   5.122 -1.0694  0.1119 -0.5750
 7322TIP3    H221931   4.411   1.263   4.973  1.1878  0.4735 -0.8581
 7323TIP3   OH221932   0.224   0.284   4.137 -0.1370  0.6071  0.4865
 7323TIP3    H121933   0.296   0.343   4.162  0.5618  0.4004 -0.9338
 7323TIP3    H221934   0.236   0.207   4.194  1.6929 -0.0531 -0.6963
 7324TIP3   OH221935   0.460   1.496   4.528 -0.2534  0.4946 -0.3108
 7324TIP3    H121936   0.370   1.509   4.560 -0.1272  0.4151  0.0792
 7324TIP3    H221937   0.453   1.506   4.433 -0.4827  1.5742 -0.1905
 7325TIP3   OH221938   5.929   2.772   4.547 -0.2687 -0.3917  0.0140
 7325TIP3    H121939   5.848   2.822   4.534 -0.7097 -1.2231 -0.5181
 7325TIP3    H221940   5.990   2.811   4.485 -0.0773  0.5920  0.7864
 7326TIP3   OH221941   5.112   2.658   0.009  0.0609 -0.0837 -0.1830
 7326TIP3    H121942   5.155   2.670   0.093  0.8372 -1.5793 -0.3389
 7326TIP3    H221943   5.043   2.724   0.007  0.7640  0.7072  1.1337
 7327TIP3   OH221944   3.184   4.267   0.470 -0.0198 -0.4670  0.4017
 7327TIP3    H121945   3.245   4.317   0.523  1.6199 -3.1867  1.3030
 7327TIP3    H221946   3.136   4.212   0.533 -0.7920 -1.0021 -0.6114
 7328TIP3   OH221947   1.656   2.772   5.378  0.3367  0.5125  0.2506
 7328TIP3    H121948   1.650   2.778   5.473 -0.0310  1.4447  0.1810
 7328TIP3    H221949   1.566   2.753   5.350  0.0340  2.2496 -0.0270
 7329TIP3   OH221950   0.000   6.167   3.321  0.2987  0.3943 -0.0068
 7329TIP3    H121951   0.042   6.089   3.356  4.3873  1.2067 -2.4482
 7329TIP3    H221952   0.003   6.230   3.394  1.2595 -0.3445  0.6166
 7330TIP3   OH221953   4.651   0.077   4.489  0.2465  0.3957  0.0567
 7330TIP3    H121954   4.594   0.051   4.562 -1.5919 -1.5258 -1.9248
 7330TIP3    H221955   4.740   0.070   4.525 -0.5214 -1.6025  1.8081
 7331TIP3   OH221956   6.241   2.547   1.026 -0.0128  0.3038  0.0143
 7331TIP3    H121957   6.261   2.549   1.119  1.6880  1.0906 -0.3242
 7331TIP3    H221958   6.179   2.474   1.016  2.7584 -2.4414  1.2288
 7332TIP3   OH221959   2.527   0.771   2.359  0.3781 -0.0727 -0.1582
 7332TIP3    H121960   2.557   0.718   2.433 -3.7170 -1.4905  0.7918
 7332TIP3    H221961   2.597   0.834   2.343  1.7625 -0.0758  4.5462
 7333TIP3   OH221962   0.637   0.733   5.794 -0.2159  0.2110  0.4924
 7333TIP3    H121963   0.668   0.647   5.765  0.4735 -0.5196  3.1758
 7333TIP3    H221964   0.575   0.714   5.864 -2.2298  1.8784 -0.7142
 7334TIP3   OH221965   6.906   5.954   4.063 -1.0149 -0.3757  0.3038
 7334TIP3    H121966   6.858   6.024   4.018 -1.2242 -1.3928 -1.1160
 7334TIP3    H221967   6.839   5.908   4.114 -1.6230 -1.7507 -1.6233
 7335TIP3   OH221968   5.806   5.979   5.107 -0.0128  0.6760 -0.0175
 7335TIP3    H121969   5.880   6.021   5.064  0.8265 -0.3860  0.3374
 7335TIP3    H221970   5.838   5.892   5.130 -2.1323 -0.7253 -2.0081
 7336TIP3   OH221971   6.596   6.228   0.869  0.0936 -0.3483  0.1650
 7336TIP3    H121972   6.580   6.166   0.940  1.0962  0.4762  1.1530
 7336TIP3    H221973   6.690   6.219   0.851  0.3632  1.1769  0.6567
 7337TIP3   OH221974   0.500   2.673   2.702 -0.6701  0.0419 -0.7924
 7337TIP3    H121975   0.449   2.708   2.629 -0.4982 -1.0591 -1.4614
 7337TIP3    H221976   0.576   2.632   2.661  1.1869  2.2289  0.2122
 7338TIP3   OH221977   4.773   4.266   3.919  0.1909 -0.9756  0.7012
 7338TIP3    H121978   4.844   4.295   3.863  1.7373 -1.3659  2.3664
 7338TIP3    H221979   4.781   4.320   3.998 -0.9639 -1.4724  1.1932
 7339TIP3   OH221980   0.034   0.570   5.040  0.0064  0.3294  0.2571
 7339TIP3    H121981   0.053   0.664   5.036 -1.0490  0.5617  0.2862
 7339TIP3    H221982   0.118   0.529   5.059  0.6383  1.2042 -0.5339
 7340TIP3   OH221983   2.485   1.586   1.094 -0.0016 -0.1271  0.3210
 7340TIP3    H121984   2.418   1.518   1.104  1.3046 -1.4502  0.4659
 7340TIP3    H221985   2.567   1.542   1.114  0.8691  1.6129  0.8054
 7341TIP3   OH221986   5.185   4.831   2.640  0.0592 -0.7061 -0.0805
 7341TIP3    H121987   5.229   4.749   2.663  1.0733 -0.1579 -0.0199
 7341TIP3    H221988   5.096   4.820   2.675  0.9061 -0.7843  2.2087
 7342TIP3   OH221989   1.590   2.301   4.545 -0.0357 -0.1241  0.3142
 7342TIP3    H121990   1.534   2.258   4.480 -0.9665  1.6444 -0.1218
 7342TIP3    H221991   1.562   2.393   4.544  2.5259  0.7621  0.4556
 7343TIP3   OH221992   4.361   3.690   5.118  0.3146 -0.2755  0.4457
 7343TIP3    H121993   4.301   3.666   5.048 -0.1369 -0.5287  0.9107
 7343TIP3    H221994   4.420   3.614   5.126  0.0814 -0.4374  0.6411
 7344TIP3   OH221995   3.333   4.919   1.832  0.2598  0.5616  0.2300
 7344TIP3    H121996   3.358   4.931   1.923  1.3048 -1.0984  0.2099
 7344TIP3    H221997   3.416   4.901   1.786 -0.3320  0.6173 -0.9078
 7345TIP3   OH221998   3.695   6.002   4.658  0.0202  0.2491 -0.2837
 7345TIP3    H121999   3.758   6.074   4.653 -0.9215  1.0162 -2.3734
 7345TIP3    H222000   3.749   5.923   4.652  0.8624  0.8781 -1.5039
 7346TIP3   OH222001   6.738   4.064   1.557 -0.3063 -0.4709  0.0339
 7346TIP3    H122002   6.700   4.012   1.628  0.9205 -1.9860 -0.3533
 7346TIP3    H222003   6.772   4.143   1.599  1.0309 -1.6486  1.2883
 7347TIP3   OH222004   4.887   6.029   3.870 -0.7917 -0.3547 -0.2300
 7347TIP3    H122005   4.842   5.949   3.845 -2.2635  0.9253 -2.0027
 7347TIP3    H222006   4.869   6.039   3.963 -2.9131 -0.7402 -0.5366
 7348TIP3   OH222007   0.995   1.887   0.114  0.1624 -0.1137  0.2485
 7348TIP3    H122008   1.066   1.943   0.145 -0.1351  0.3292  0.1340
 7348TIP3    H222009   0.944   1.943   0.056 -0.8960 -0.1035  1.1551
 7349TIP3   OH222010   1.363   4.057   3.263  0.3782  0.3300  0.2290
 7349TIP3    H122011   1.317   4.024   3.340 -1.1801  1.2958 -0.2551
 7349TIP3    H222012   1.394   4.144   3.288 -0.8909  1.0134 -0.4795
 7350TIP3   OH222013   3.098   6.429   4.959 -0.0621 -1.1093  0.5396
 7350TIP3    H122014   3.029   6.365   4.975  0.0190 -0.8761  1.9218
 7350TIP3    H222015   3.164   6.380   4.909 -0.3953 -1.8572  0.8131
 7351TIP3   OH222016   2.550   2.034   0.903 -0.1303  0.0222 -0.4442
 7351TIP3    H122017   2.597   2.004   0.981  0.2798  0.6522 -0.4448
 7351TIP3    H222018   2.571   1.968   0.837 -1.1733 -0.9903  0.1896
 7352TIP3   OH222019   6.697   5.989   5.881 -0.4765  0.2210 -1.0053
 7352TIP3    H122020   6.689   5.899   5.850  0.8506  0.3205 -1.7251
 7352TIP3    H222021   6.613   6.030   5.860 -1.5078 -1.0971  0.2999
 7353TIP3   OH222022   4.403   1.667   1.694 -0.3849  0.5239  0.1350
 7353TIP3    H122023   4.351   1.746   1.702 -1.0954 -0.0339  1.1304
 7353TIP3    H222024   4.484   1.696   1.650 -0.1548  1.9979  1.4552
 7354TIP3   OH222025   5.130   3.459   3.665  0.1619 -0.4850  0.1395
 7354TIP3    H122026   5.220   3.434   3.644 -0.3241 -1.6185 -0.7169
 7354TIP3    H222027   5.094   3.382   3.709 -0.5072 -0.1691  0.1514
 7355TIP3   OH222028   2.974   5.420   1.652  0.2610 -0.0865 -0.1979
 7355TIP3    H122029   3.053   5.472   1.635  0.0008  1.1765  2.0696
 7355TIP3    H222030   2.953   5.436   1.744 -1.8713 -1.4907 -0.3470
 7356TIP3   OH222031   0.185   2.426   2.171  0.2612 -0.1502  0.2570
 7356TIP3    H122032   0.118   2.494   2.156  0.5707  0.0539 -0.2198
 7356TIP3    H222033   0.161   2.388   2.255 -0.4700 -0.0879  0.0922
 7357TIP3   OH222034   5.428   4.463   5.556 -0.1704 -0.3106 -0.5564
 7357TIP3    H122035   5.369   4.463   5.481 -0.5796 -0.5107 -0.2426
 7357TIP3    H222036   5.456   4.372   5.565 -0.3569 -0.3456 -0.2942
 7358TIP3   OH222037   1.532   4.695   1.257 -0.4535 -0.3817 -0.0950
 7358TIP3    H122038   1.609   4.644   1.282 -1.0526 -0.4593  1.7393
 7358TIP3    H222039   1.499   4.651   1.179  0.2934 -1.5058  0.1912
 7359TIP3   OH222040   0.161   1.428   3.916 -0.4378  0.0469  0.1003
 7359TIP3    H122041   0.233   1.365   3.909  1.7122  2.4739 -0.9090
 7359TIP3    H222042   0.197   1.510   3.883 -3.9228  1.2452 -1.1387
 7360TIP3   OH222043   1.411   1.526   4.033  0.0733 -0.0471  0.1270
 7360TIP3    H122044   1.323   1.518   3.996 -0.1615  1.1002  0.4293
 7360TIP3    H222045   1.461   1.457   3.989 -0.5107  0.4739 -1.4212
 7361TIP3   OH222046   0.302   0.918   0.284 -0.2176 -0.3066  0.0218
 7361TIP3    H122047   0.230   0.956   0.234 -0.7153 -1.4587 -0.1693
 7361TIP3    H222048   0.352   0.868   0.219  0.3857 -0.0467  0.2760
 7362TIP3   OH222049   0.788   3.322   5.298 -0.5684  0.1850  0.6561
 7362TIP3    H122050   0.731   3.310   5.221  2.4070  0.4423 -1.7963
 7362TIP3    H222051   0.810   3.233   5.325 -0.4556  0.0804  0.2375
 7363TIP3   OH222052   1.861   4.729   1.630  0.1144 -0.3298  0.2121
 7363TIP3    H122053   1.901   4.642   1.634 -0.5014 -0.5803  1.3517
 7363TIP3    H222054   1.767   4.712   1.634 -0.0019  0.3962  0.6497
 7364TIP3   OH222055   0.398   2.579   0.351 -0.0195  0.1600 -0.7229
 7364TIP3    H122056   0.404   2.484   0.344  1.9081  0.2702 -1.2056
 7364TIP3    H222057   0.308   2.600   0.327 -0.4795 -1.5288 -0.5811
 7365TIP3   OH222058   2.649   6.069   0.235  0.0606 -0.0128  0.4298
 7365TIP3    H122059   2.598   6.009   0.288  0.5829 -1.3005 -0.4871
 7365TIP3    H222060   2.615   6.156   0.258 -0.9045 -0.6595  1.5571
 7366TIP3   OH222061   5.266   0.912   2.256 -0.2840  0.9358 -0.1429
 7366TIP3    H122062   5.269   0.868   2.171 -0.1993  0.7279 -0.0338
 7366TIP3    H222063   5.357   0.911   2.287 -0.5182 -0.1882  0.5549
 7367TIP3   OH222064   6.115   0.967   5.767 -0.2824  0.4889 -0.9600
 7367TIP3    H122065   6.100   0.947   5.674 -2.7439 -1.8613 -0.1752
 7367TIP3    H222066   6.085   0.890   5.814 -1.8971  2.6734  1.9643
 7368TIP3   OH222067   2.562   1.133   0.458  0.3275 -0.0582  0.1484
 7368TIP3    H122068   2.519   1.218   0.464 -0.6720 -0.5952  0.9869
 7368TIP3    H222069   2.541   1.102   0.370  0.8135  0.6099 -0.2086
 7369TIP3   OH222070   5.537   1.616   2.242 -0.0520  0.3055 -0.3212
 7369TIP3    H122071   5.558   1.700   2.283  0.0095  0.3197 -0.3816
 7369TIP3    H222072   5.443   1.620   2.226  0.2309  1.0905 -1.9664
 7370TIP3   OH222073   2.970   4.088   1.900  0.0602 -0.2651 -0.0258
 7370TIP3    H122074   3.055   4.130   1.914 -0.4082  0.1029  2.1338
 7370TIP3    H222075   2.967   4.070   1.807  3.1601 -1.6882  0.0240
 7371TIP3   OH222076   4.083   4.713   1.972 -0.2326 -0.1041  0.1240
 7371TIP3    H122077   4.109   4.758   1.892  1.6475 -0.1007  0.6993
 7371TIP3    H222078   4.007   4.660   1.946 -0.9530  1.4747 -1.1428
 7372TIP3   OH222079   6.883   0.201   4.296  0.4992  0.1859 -0.6568
 7372TIP3    H122080   6.824   0.126   4.307  1.5864 -0.8561 -1.6563
 7372TIP3    H222081   6.827   0.271   4.261 -0.3676 -0.4056 -0.4855
 7373TIP3   OH222082   0.862   2.818   0.809 -0.1410 -0.0199  0.1404
 7373TIP3    H122083   0.919   2.762   0.757 -1.0118  0.8000 -1.8115
 7373TIP3    H222084   0.921   2.880   0.853  0.6622 -1.1498  0.6994
 7374TIP3   OH222085   5.900   0.591   5.245 -0.7241  0.7819  0.4258
 7374TIP3    H122086   5.819   0.554   5.280 -0.2330 -1.9463 -1.0262
 7374TIP3    H222087   5.966   0.573   5.312 -0.3281 -1.9894 -0.5569
 7375TIP3   OH222088   1.635   1.637   4.951  0.3364 -0.2951  1.1138
 7375TIP3    H122089   1.676   1.551   4.961 -0.3117 -0.9196 -1.0629
 7375TIP3    H222090   1.613   1.643   4.858 -0.7311  1.7407  1.4290
 7376TIP3   OH222091   4.651   6.540   4.606  0.6643 -0.7691  0.3885
 7376TIP3    H122092   4.570   6.560   4.653  1.2601 -0.3098  1.2460
 7376TIP3    H222093   4.668   6.618   4.553  0.4753 -0.9246  0.0948
 7377TIP3   OH222094   3.856   0.129   1.023 -0.2156 -0.3472  0.3289
 7377TIP3    H122095   3.842   0.150   0.931 -0.9633  1.7830  0.8822
 7377TIP3    H222096   3.768   0.121   1.059 -0.0023 -3.6702  0.4240
 7378TIP3   OH222097   5.036   3.671   3.790  0.1864 -0.2420  0.2313
 7378TIP3    H122098   5.087   3.604   3.746 -2.0300 -1.8044 -0.1415
 7378TIP3    H222099   5.036   3.646   3.883 -0.7018 -0.8595  0.0817
 7379TIP3   OH222100   0.613   2.675   4.012  0.3397  0.1940  0.1175
 7379TIP3    H122101   0.602   2.602   3.951  0.5208 -0.4647  0.8581
 7379TIP3    H222102   0.553   2.742   3.980 -0.8594 -0.7942  0.2063
 7380TIP3   OH222103   3.407   2.241   1.879  0.4482  0.3024 -0.7932
 7380TIP3    H122104   3.485   2.209   1.926 -1.4711 -2.3759  0.8661
 7380TIP3    H222105   3.405   2.190   1.799  0.3103  0.2377 -0.7485
 7381TIP3   OH222106   2.312   1.353   0.173  0.3268 -0.4023 -0.0988
 7381TIP3    H122107   2.337   1.261   0.176 -2.0673 -1.1003  0.5558
 7381TIP3    H222108   2.247   1.363   0.243 -0.6784  1.3824 -1.1957
 7382TIP3   OH222109   6.964   5.779   4.806 -0.2142  0.2726 -0.6987
 7382TIP3    H122110   6.999   5.847   4.864 -0.5752  1.0443 -1.3639
 7382TIP3    H222111   7.002   5.798   4.721 -1.8118  0.8105 -1.3239
 7383TIP3   OH222112   2.603   3.425   4.981 -0.0618  0.0220  0.5580
 7383TIP3    H122113   2.657   3.503   4.987 -0.4794  0.2754  1.0808
 7383TIP3    H222114   2.656   3.362   4.932  0.7524  0.2302  1.1565
 7384TIP3   OH222115   3.332   4.393   5.369  0.0747  0.2294  0.0346
 7384TIP3    H122116   3.386   4.468   5.343  1.4968 -0.2022  1.5752
 7384TIP3    H222117   3.328   4.339   5.290  2.0674  0.2088 -0.1195
 7385TIP3   OH222118   0.638   3.657   3.950 -0.2983  0.2197 -0.5480
 7385TIP3    H122119   0.595   3.645   3.865 -1.9561 -1.5130  0.4270
 7385TIP3    H222120   0.660   3.750   3.954 -2.4665  0.8629 -1.8599
 7386TIP3   OH222121   1.267   1.183   5.147 -0.2511 -0.1833  0.4840
 7386TIP3    H122122   1.356   1.168   5.181  0.0053 -0.4945 -0.2988
 7386TIP3    H222123   1.216   1.207   5.224  0.3265 -0.8194  1.0835
 7387TIP3   OH222124   2.303   5.859   4.498 -0.1088 -0.1939 -0.3320
 7387TIP3    H122125   2.372   5.922   4.475  0.2347 -0.3573  0.2343
 7387TIP3    H222126   2.342   5.773   4.484  0.5333 -0.3331  1.9269
 7388TIP3   OH222127   2.403   2.874   1.488 -0.0882  0.1288  0.1158
 7388TIP3    H122128   2.443   2.927   1.419  2.1769  1.2000  2.1176
 7388TIP3    H222129   2.419   2.922   1.569  0.0323 -2.4829  1.7859
 7389TIP3   OH222130   1.123   1.926   3.631 -0.1392 -0.2629  0.2428
 7389TIP3    H122131   1.046   1.876   3.606 -0.4308 -0.5241  1.6110
 7389TIP3    H222132   1.089   2.009   3.663  0.0689 -0.5976  1.4013
 7390TIP3   OH222133   6.233   6.038   1.610 -0.1916 -0.6391 -0.1629
 7390TIP3    H122134   6.153   5.989   1.591 -0.2743 -0.9277  0.8757
 7390TIP3    H222135   6.289   5.975   1.656  0.0318 -0.0027  0.4493
 7391TIP3   OH222136   1.295   2.314   4.058 -0.3077 -0.4261  0.3725
 7391TIP3    H122137   1.243   2.388   4.027  1.1055  0.3462 -0.2086
 7391TIP3    H222138   1.386   2.343   4.050  0.3652 -2.7372 -1.2585
 7392TIP3   OH222139   5.536   5.938   5.118 -0.4163  0.7446  0.5498
 7392TIP3    H122140   5.621   5.913   5.083 -1.2864 -0.1985 -0.9833
 7392TIP3    H222141   5.557   5.984   5.200  1.5264  0.2224  0.4012
 7393TIP3   OH222142   7.169   2.872   2.904  0.3148  0.0947  0.1822
 7393TIP3    H122143   7.218   2.942   2.948  0.5263  0.0784 -0.0252
 7393TIP3    H222144   7.078   2.901   2.909  0.1523 -0.5627  1.8732
 7394TIP3   OH222145   4.116   0.242   3.575  0.9504  0.1302  0.3093
 7394TIP3    H122146   4.172   0.291   3.515  1.5654 -0.9521 -0.0486
 7394TIP3    H222147   4.131   0.150   3.551 -1.3163 -0.1980 -0.0938
 7395TIP3   OH222148   1.155   0.942   4.125  0.2879  0.2338  0.3154
 7395TIP3    H122149   1.170   0.907   4.037 -0.3401 -0.6568  0.5533
 7395TIP3    H222150   1.221   0.898   4.180  0.3435  0.3999  0.3824
 7396TIP3   OH222151   5.862   1.274   4.475  0.8091 -0.4936  0.3225
 7396TIP3    H122152   5.833   1.244   4.388  0.2008  1.1627 -0.0936
 7396TIP3    H222153   5.791   1.332   4.504  1.2281 -0.6691  1.7294
 7397TIP3   OH222154   5.966   1.943   4.279 -0.5936  0.7186 -0.2726
 7397TIP3    H122155   5.899   1.902   4.333 -1.0552  0.9786 -0.6391
 7397TIP3    H222156   5.973   2.033   4.313  0.2604  0.4182  0.3893
 7398TIP3   OH222157   4.808   6.771   0.287  0.2603 -0.4195  0.1311
 7398TIP3    H122158   4.893   6.788   0.247 -0.3276 -1.1730 -1.5373
 7398TIP3    H222159   4.827   6.763   0.380  1.7016  1.3679  0.0449
 7399TIP3   OH222160   3.382   5.327   0.363 -0.3015 -0.0544  0.0118
 7399TIP3    H122161   3.464   5.287   0.389  0.3400 -0.0418 -1.8107
 7399TIP3    H222162   3.402   5.371   0.280 -1.9119  0.7827  0.0215
 7400TIP3   OH222163   6.509   6.430   3.350 -0.1263  0.6408 -0.0589
 7400TIP3    H122164   6.537   6.339   3.340 -1.6991  0.0757  0.3912
 7400TIP3    H222165   6.585   6.476   3.385  0.5116 -0.6082  0.2160
 7401TIP3   OH222166   0.542   3.339   5.447 -0.3236  0.0739  0.1793
 7401TIP3    H122167   0.464   3.345   5.503 -0.4739 -0.7708  0.0774
 7401TIP3    H222168   0.602   3.284   5.497  0.1535  0.6085  0.1929
 7402TIP3   OH222169   3.974   4.537   2.875 -0.2309 -0.1270  0.9476
 7402TIP3    H122170   4.052   4.572   2.918  0.5689  0.7874 -1.1362
 7402TIP3    H222171   3.905   4.600   2.896  0.4114  0.9207  0.0442
 7403TIP3   OH222172   1.105   2.395   2.449  0.2342  0.0195  0.3291
 7403TIP3    H122173   1.102   2.304   2.418 -1.4623  0.4179 -0.8312
 7403TIP3    H222174   1.146   2.443   2.377  0.2123  0.3230  0.5179
 7404TIP3   OH222175   5.873   0.791   1.205 -0.3908  0.0884 -0.1882
 7404TIP3    H122176   5.816   0.865   1.185 -0.4579  0.0583 -0.1073
 7404TIP3    H222177   5.937   0.790   1.134 -1.1763 -0.5765 -0.9087
 7405TIP3   OH222178   2.572   6.553   0.299 -0.4445 -0.3232  0.1747
 7405TIP3    H122179   2.644   6.607   0.331 -1.5329 -0.1779  2.6669
 7405TIP3    H222180   2.542   6.597   0.219  0.2400  1.3789  0.8038
 7406TIP3   OH222181   3.527   1.146   1.762 -0.3487 -0.2064 -0.6017
 7406TIP3    H122182   3.552   1.062   1.723 -1.4332 -0.7660 -0.1388
 7406TIP3    H222183   3.586   1.210   1.722 -0.3686 -0.9909 -1.9399
 7407TIP3   OH222184   1.100   2.282   3.074  0.0872  0.5299 -0.1969
 7407TIP3    H122185   1.040   2.294   3.148 -0.3199  0.6999 -0.5530
 7407TIP3    H222186   1.176   2.336   3.096  0.0852  0.3625  0.2275
 7408TIP3   OH222187   6.478   2.333   3.047 -0.1153  0.2324 -0.0695
 7408TIP3    H122188   6.400   2.278   3.048  0.0167  0.0313 -0.6120
 7408TIP3    H222189   6.520   2.313   2.963  1.0985 -0.4783  0.6811
 7409TIP3   OH222190   1.550   1.175   1.316  0.0552 -0.1076 -0.1535
 7409TIP3    H122191   1.627   1.136   1.275  0.8295  0.8183  0.3747
 7409TIP3    H222192   1.576   1.191   1.407 -1.3987 -1.4840  0.5612
 7410TIP3   OH222193   6.751   5.621   2.968  0.0751 -0.1253  0.7479
 7410TIP3    H122194   6.659   5.645   2.955  0.3266  0.7926  0.6556
 7410TIP3    H222195   6.747   5.540   3.020 -0.8433 -1.5405 -1.3695
 7411TIP3   OH222196   3.699   1.831   2.306  0.1810 -0.2214  0.5013
 7411TIP3    H122197   3.652   1.830   2.222  0.2378  1.1309  0.4246
 7411TIP3    H222198   3.639   1.875   2.366  0.3532 -0.7233  1.0418
 7412TIP3   OH222199   3.250   3.863   2.143 -0.2034  0.0953  0.1328
 7412TIP3    H122200   3.318   3.843   2.207  0.1919  0.8345 -0.0389
 7412TIP3    H222201   3.222   3.952   2.165 -1.5066 -0.3966  0.5326
 7413TIP3   OH222202   3.146   0.272   2.297 -0.3515  0.2605  1.1255
 7413TIP3    H122203   3.070   0.215   2.305 -0.5341 -0.4227 -3.1989
 7413TIP3    H222204   3.115   0.348   2.247  1.7395 -0.1560 -0.9810
 7414TIP3   OH222205   3.492   5.604   0.744  0.1949 -0.7412 -0.1467
 7414TIP3    H122206   3.518   5.538   0.680  0.0072 -1.2508  0.2882
 7414TIP3    H222207   3.410   5.640   0.709  0.6157 -0.2996 -0.6908
 7415TIP3   OH222208   6.801   1.884   1.966  0.0495 -0.3322  0.3464
 7415TIP3    H122209   6.758   1.855   2.047  0.6699 -0.6521  0.5652
 7415TIP3    H222210   6.777   1.977   1.958 -1.0921 -0.6249  0.1943
 7416TIP3   OH222211   1.516   5.644   0.979 -0.1266 -0.3258  0.2633
 7416TIP3    H122212   1.552   5.728   0.954  1.7806 -1.3290 -0.5382
 7416TIP3    H222213   1.524   5.642   1.074  0.1493  0.2481  0.2560
 7417TIP3   OH222214   6.040   6.544   3.818 -0.3164 -0.0014 -0.4148
 7417TIP3    H122215   6.003   6.484   3.883  0.3315  0.7695  0.7028
 7417TIP3    H222216   5.994   6.523   3.737 -1.0449 -1.0941  0.2528
 7418TIP3   OH222217   6.750   1.637   5.877 -0.4848  0.1008 -0.4286
 7418TIP3    H122218   6.823   1.698   5.863 -0.4037  0.4957  1.4777
 7418TIP3    H222219   6.737   1.595   5.792  0.8609  1.2384 -1.2315
 7419TIP3   OH222220   5.263   5.223   2.020  0.1429 -0.5065 -0.0646
 7419TIP3    H122221   5.248   5.318   2.017 -0.4123 -0.5510  0.9434
 7419TIP3    H222222   5.305   5.208   2.104 -0.7002 -1.2676  0.2396
 7420TIP3   OH222223   2.256   0.715   3.326 -0.7679 -0.3546  0.1227
 7420TIP3    H122224   2.228   0.796   3.368 -0.8925  0.3081 -1.1841
 7420TIP3    H222225   2.198   0.648   3.362  0.2210 -0.1410  2.2362
 7421TIP3   OH222226   6.016   6.089   4.971 -0.6298 -0.2559  0.0992
 7421TIP3    H122227   6.085   6.128   5.024 -1.3478  0.1849  0.7394
 7421TIP3    H222228   6.055   6.078   4.884  0.0821  0.4447  0.3192
 7422TIP3   OH222229   2.732   4.081   5.382 -0.6465 -0.4707 -0.0091
 7422TIP3    H122230   2.825   4.060   5.395 -0.3170  0.1101 -1.2878
 7422TIP3    H222231   2.724   4.095   5.287 -1.7417  0.8997  0.2620
 7423TIP3   OH222232   5.453  -0.014   3.372  0.6221  0.0976  0.1683
 7423TIP3    H122233   5.476   0.069   3.414  0.8630 -1.0086  2.3371
 7423TIP3    H222234   5.389  -0.054   3.431  2.0039 -2.1439  0.2390
 7424TIP3   OH222235   6.282   3.689   4.242 -0.7018  0.1943 -0.7166
 7424TIP3    H122236   6.301   3.782   4.243 -0.2979  0.1220  0.7310
 7424TIP3    H222237   6.364   3.647   4.267 -1.0714 -0.5082 -0.6463
 7425TIP3   OH222238   6.390   5.308   5.115  0.6458  0.1832 -0.3721
 7425TIP3    H122239   6.304   5.286   5.079 -0.0222  2.1443 -0.0666
 7425TIP3    H222240   6.390   5.267   5.202  0.7499 -1.2946 -1.0283
 7426TIP3   OH222241   3.881   2.781   3.466  0.0518  0.0163  0.4233
 7426TIP3    H122242   3.865   2.839   3.541  3.7775  1.2471  0.5098
 7426TIP3    H222243   3.926   2.705   3.503 -1.3239 -1.1491 -0.1942
 7427TIP3   OH222244   0.375   0.889   4.382  0.4092  0.4820  0.7225
 7427TIP3    H122245   0.463   0.879   4.344 -0.3381 -3.1988 -0.4435
 7427TIP3    H222246   0.380   0.843   4.466 -0.8625 -1.7529 -0.3495
 7428TIP3   OH222247   4.842   4.601   3.577  0.0445 -0.0910 -0.2566
 7428TIP3    H122248   4.773   4.568   3.635 -0.4770  0.8343 -0.3423
 7428TIP3    H222249   4.878   4.677   3.622 -1.5543  1.7339 -1.8723
 7429TIP3   OH222250   3.300   1.864   4.268 -0.1277  0.1671 -0.4574
 7429TIP3    H122251   3.390   1.851   4.238 -0.4418  1.8682 -2.3982
 7429TIP3    H222252   3.248   1.806   4.214 -0.4071  1.0493 -1.1679
 7430TIP3   OH222253   6.964   2.137   1.585  0.7238 -0.0498 -0.3279
 7430TIP3    H122254   6.958   2.228   1.613  0.4010  0.1411 -1.0056
 7430TIP3    H222255   7.016   2.139   1.505  0.6696 -0.4550 -0.3767
 7431TIP3   OH222256   7.135   2.673   1.405 -0.1388 -0.3126 -0.2778
 7431TIP3    H122257   7.074   2.725   1.353  1.5598 -2.0529 -4.4733
 7431TIP3    H222258   7.082   2.602   1.440 -1.2312  0.4106 -0.4402
 7432TIP3   OH222259   1.735   1.976   0.505 -0.4637 -0.3191  0.1925
 7432TIP3    H122260   1.723   1.952   0.597 -1.6986  1.3939  0.5321
 7432TIP3    H222261   1.648   1.965   0.465  0.0602 -1.0520 -0.7811
 7433TIP3   OH222262   7.172   1.528   5.583 -0.2167  0.3326  0.6759
 7433TIP3    H122263   7.100   1.499   5.526 -1.3697 -0.0837  2.2738
 7433TIP3    H222264   7.181   1.622   5.565  0.0489  0.0457 -0.8084
 7434TIP3   OH222265   5.998   1.508   4.614 -0.1572 -0.0609 -0.3729
 7434TIP3    H122266   6.041   1.440   4.562 -1.3496  0.6997 -2.5039
 7434TIP3    H222267   5.906   1.481   4.617 -0.2816  0.4437  0.4778
 7435TIP3   OH222268   4.816   5.290   0.218 -0.7085 -0.3409  0.6815
 7435TIP3    H122269   4.859   5.351   0.278  0.7737  0.8280 -1.4259
 7435TIP3    H222270   4.812   5.208   0.266  3.4032 -0.3688  1.3478
 7436TIP3   OH222271   0.083   3.747   2.857  0.2229 -0.1379  0.4332
 7436TIP3    H122272   0.033   3.798   2.921  1.7217 -0.2229  1.7432
 7436TIP3    H222273   0.032   3.667   2.846 -1.3367  0.9355 -0.4272
 7437TIP3   OH222274   3.904   3.783   5.340 -0.0596 -0.0719  0.1450
 7437TIP3    H122275   3.986   3.750   5.303  0.1533  1.6130 -1.0289
 7437TIP3    H222276   3.927   3.812   5.428  0.6748  0.6142 -0.2623
 7438TIP3   OH222277   2.456   3.514   1.911  0.2423  0.0179 -0.1508
 7438TIP3    H122278   2.418   3.426   1.919 -0.9030  0.6328  1.9463
 7438TIP3    H222279   2.541   3.507   1.955 -0.3936  0.2168  1.1631
 7439TIP3   OH222280   5.627   0.569   0.213  0.3085 -0.9550  0.3268
 7439TIP3    H122281   5.652   0.656   0.181  0.2386 -0.6623  1.0464
 7439TIP3    H222282   5.703   0.514   0.198  0.3504 -0.7705 -0.1396
 7440TIP3   OH222283   0.123   0.766   4.628  0.4241  0.0630 -0.1521
 7440TIP3    H122284   0.082   0.721   4.702  0.8180  2.7317  1.8299
 7440TIP3    H222285   0.052   0.813   4.586  0.5153  0.0425 -0.3326
 7441TIP3   OH222286   0.735   6.813   5.835 -0.0305  0.2454 -0.1869
 7441TIP3    H122287   0.727   6.779   5.925 -1.2250  2.1777  0.5061
 7441TIP3    H222288   0.676   6.758   5.784  0.6476 -0.8707  0.1966
 7442TIP3   OH222289   6.745   2.728   1.416  0.4753 -0.3939 -0.3917
 7442TIP3    H122290   6.657   2.707   1.386  0.3983 -0.3313 -0.2059
 7442TIP3    H222291   6.788   2.643   1.428  0.4514 -0.4233 -0.5135
 7443TIP3   OH222292   5.772   5.099   4.614  0.0603  0.1777  0.0535
 7443TIP3    H122293   5.780   5.025   4.674  0.8454 -0.8621 -1.2712
 7443TIP3    H222294   5.862   5.120   4.589 -0.2521  0.3414 -1.0242
 7444TIP3   OH222295   6.530   5.632   3.368  0.0360 -0.0489 -0.0926
 7444TIP3    H122296   6.463   5.579   3.325 -0.7186  0.4622  0.4320
 7444TIP3    H222297   6.483   5.680   3.436  0.3684  2.4131 -1.4713
 7445TIP3   OH222298   1.319   0.354   2.381  0.3366  0.5708  0.4347
 7445TIP3    H122299   1.303   0.283   2.442  1.3211 -1.2310 -1.2717
 7445TIP3    H222300   1.245   0.414   2.392  0.3450  0.1841  3.0968
 7446TIP3   OH222301   2.593   0.483   1.935 -0.0460 -0.1092  0.0091
 7446TIP3    H122302   2.523   0.527   1.887 -0.2323 -0.6387 -0.2124
 7446TIP3    H222303   2.674   0.523   1.902 -0.1984 -0.1159 -0.3778
 7447TIP3   OH222304   0.951   5.233   4.668  0.3304 -0.0823  0.8054
 7447TIP3    H122305   0.991   5.147   4.676  0.7533  0.2069  1.9615
 7447TIP3    H222306   1.007   5.280   4.607 -0.0807 -0.7097 -0.0819
 7448TIP3   OH222307   1.753   5.554   3.091  0.7933  0.4062 -0.0467
 7448TIP3    H122308   1.758   5.472   3.141  0.0026  0.1038 -0.4507
 7448TIP3    H222309   1.761   5.527   3.000 -0.4257  0.6640 -0.2463
 7449TIP3   OH222310   6.602   4.150   1.859  0.2045 -0.0084 -0.8976
 7449TIP3    H122311   6.518   4.104   1.852 -0.4906  0.4104  2.6624
 7449TIP3    H222312   6.578   4.243   1.863  0.2618  0.0191  3.6630
 7450TIP3   OH222313   7.175   5.431   0.533  0.0922  0.5977  0.2594
 7450TIP3    H122314   7.217   5.391   0.457 -1.2330 -1.2914  0.4725
 7450TIP3    H222315   7.107   5.487   0.496 -1.6842 -1.5997 -0.0147
 7451TIP3   OH222316   4.545   3.779   5.481  0.0849 -0.1762 -0.0141
 7451TIP3    H122317   4.523   3.734   5.563 -0.7232 -0.2759 -0.2822
 7451TIP3    H222318   4.574   3.710   5.422  1.8301  0.0207  0.5381
 7452TIP3   OH222319   5.145   5.137   3.764 -0.0617 -0.7253 -0.3061
 7452TIP3    H122320   5.055   5.136   3.797 -0.2701 -0.2406 -0.8292
 7452TIP3    H222321   5.191   5.074   3.818 -0.7709 -1.1450 -0.1738
 7453TIP3   OH222322   2.001   2.065   3.459 -0.2726 -0.0549  0.2700
 7453TIP3    H122323   1.971   2.147   3.499  1.5923  0.1264  1.4101
 7453TIP3    H222324   2.009   2.004   3.533 -3.7207 -2.0504 -0.7968
 7454TIP3   OH222325   6.365   5.933   2.639  0.1170 -0.0247  0.7763
 7454TIP3    H122326   6.294   5.954   2.700 -0.3922  2.4975 -0.5408
 7454TIP3    H222327   6.441   5.982   2.671 -0.0276  0.9519 -0.2793
 7455TIP3   OH222328   2.998   0.587   0.444  0.0026  0.2616  0.5904
 7455TIP3    H122329   3.027   0.499   0.418  0.5288  0.1324  1.5632
 7455TIP3    H222330   2.920   0.603   0.392 -0.8596 -1.3262  1.3240
 7456TIP3   OH222331   4.673   2.679   5.659  0.2421 -0.1086  0.0160
 7456TIP3    H122332   4.695   2.755   5.605  1.9143 -0.3064  0.3928
 7456TIP3    H222333   4.609   2.631   5.607  3.1104 -1.2790 -2.7327
 7457TIP3   OH222334   3.845   0.470   4.980 -0.6978  0.1005  0.3135
 7457TIP3    H122335   3.905   0.430   4.917 -0.2817 -0.8007  1.2589
 7457TIP3    H222336   3.884   0.555   5.000 -0.4065  0.0468 -0.0136
 7458TIP3   OH222337   6.575   2.399   1.205 -0.8197 -0.2418 -0.0682
 7458TIP3    H122338   6.573   2.428   1.114  0.9693 -0.3682 -0.1831
 7458TIP3    H222339   6.519   2.461   1.252 -0.9356  0.4300 -1.0830
 7459TIP3   OH222340   4.593   1.733   5.481 -0.5606 -0.2275 -0.3273
 7459TIP3    H122341   4.611   1.822   5.510 -2.5322 -0.0432  0.4514
 7459TIP3    H222342   4.498   1.723   5.490 -0.1883 -3.1252  1.8002
 7460TIP3   OH222343   4.399   3.162   3.135 -0.4163  0.2632  0.1795
 7460TIP3    H122344   4.474   3.219   3.156  0.6214 -0.9724 -0.0199
 7460TIP3    H222345   4.359   3.143   3.220  0.7722 -0.7224  0.5531
 7461TIP3   OH222346   0.426   5.820   3.729  0.4655  0.3106 -0.4635
 7461TIP3    H122347   0.488   5.870   3.783 -0.0451 -1.5944  2.0978
 7461TIP3    H222348   0.466   5.733   3.722 -1.5996 -0.8106  0.8209
 7462TIP3   OH222349   4.324   1.670   5.512 -0.4385 -0.5696 -0.1026
 7462TIP3    H122350   4.321   1.748   5.568 -1.0657  1.3413 -2.5865
 7462TIP3    H222351   4.264   1.608   5.554  0.1266  0.2010  1.9895
 7463TIP3   OH222352   2.814   5.708   1.066  0.3151  0.0485 -0.6286
 7463TIP3    H122353   2.807   5.801   1.086 -3.3098  0.1894 -2.0112
 7463TIP3    H222354   2.756   5.665   1.130 -2.8218 -0.5251 -3.6014
 7464TIP3   OH222355   7.072   3.019   4.401  0.0890 -0.3489 -0.0491
 7464TIP3    H122356   7.007   2.963   4.359  0.4936 -0.7490 -0.1432
 7464TIP3    H222357   7.067   2.995   4.494  1.0434 -1.3455 -0.2415
 7465TIP3   OH222358   6.810   2.037   0.671  0.1449  0.2995 -0.0777
 7465TIP3    H122359   6.854   1.968   0.622 -1.0426 -1.2256  0.8781
 7465TIP3    H222360   6.776   2.097   0.605  3.0156  1.1975 -0.8546
 7466TIP3   OH222361   0.208   0.419   1.138  0.0396 -0.5527  0.3417
 7466TIP3    H122362   0.231   0.381   1.054 -0.7443  0.8577 -0.5525
 7466TIP3    H222363   0.220   0.513   1.126 -0.7911 -0.2611  1.5758
 7467TIP3   OH222364   0.323   0.517   1.830  0.6478 -1.1648  0.3738
 7467TIP3    H122365   0.354   0.608   1.832 -1.0099 -0.5661  0.3713
 7467TIP3    H222366   0.360   0.478   1.909  0.0822 -0.0103  1.2453
 7468TIP3   OH222367   0.793   5.560   1.305 -0.4034 -0.1995 -0.8476
 7468TIP3    H122368   0.739   5.576   1.383  0.6397 -0.8724  0.0505
 7468TIP3    H222369   0.763   5.625   1.241 -2.9138 -1.1724 -0.7475
 7469TIP3   OH222370   6.980   3.046   2.197 -0.0153 -0.6866  0.0858
 7469TIP3    H122371   6.909   3.110   2.201 -1.4421 -2.2717  1.7970
 7469TIP3    H222372   6.950   2.981   2.134  1.0499 -0.1743 -0.9985
 7470TIP3   OH222373   2.572   2.299   2.988 -0.2327  0.3718  0.5667
 7470TIP3    H122374   2.623   2.367   3.031  1.0180 -1.3502  1.9613
 7470TIP3    H222375   2.515   2.265   3.057 -0.4483 -0.3555  0.0369
 7471TIP3   OH222376   0.416   1.091   1.609  0.5127  0.1531 -0.0164
 7471TIP3    H122377   0.340   1.144   1.635  0.4223 -1.0689  2.4716
 7471TIP3    H222378   0.491   1.138   1.644  1.1721  1.8990 -3.3347
 7472TIP3   OH222379   6.599   4.975   4.084  0.4513 -0.4548 -0.5451
 7472TIP3    H122380   6.588   4.923   4.163 -0.6132  1.2725  0.4911
 7472TIP3    H222381   6.636   4.913   4.020  1.3840 -1.8792  1.2718
 7473TIP3   OH222382   1.572   1.209   5.258 -0.3864 -0.5804 -0.2546
 7473TIP3    H122383   1.579   1.175   5.347 -3.1326  0.0861  0.2892
 7473TIP3    H222384   1.576   1.304   5.267 -0.6379 -0.5062 -0.8450
 7474TIP3   OH222385   5.308   5.981   1.028 -0.0431 -0.1805 -0.2349
 7474TIP3    H122386   5.221   6.005   1.059 -0.2887 -1.5279  0.2100
 7474TIP3    H222387   5.301   5.981   0.933 -1.0272 -1.8303 -0.2053
 7475TIP3   OH222388   4.930   1.728   5.414 -0.2449  0.6198  0.1948
 7475TIP3    H122389   4.913   1.823   5.414  2.0155  1.0885 -1.0699
 7475TIP3    H222390   4.866   1.693   5.352 -0.0998  1.5460 -0.4982
 7476TIP3   OH222391   5.414   2.246   2.045 -0.1318  0.7326 -0.3973
 7476TIP3    H122392   5.375   2.320   2.091 -1.4091  1.0002 -1.8457
 7476TIP3    H222393   5.472   2.285   1.980  0.1851  0.4136 -0.3118
 7477TIP3   OH222394   1.824   2.433   3.382 -0.2721  0.1787  0.1082
 7477TIP3    H122395   1.729   2.428   3.377 -0.2491 -0.1779 -0.0067
 7477TIP3    H222396   1.848   2.373   3.452  0.0146 -1.4406 -1.3217
 7478TIP3   OH222397   1.838   1.128   2.035  0.3152 -0.2583 -0.7961
 7478TIP3    H122398   1.807   1.058   1.977 -1.4044 -0.5391  0.4027
 7478TIP3    H222399   1.844   1.205   1.978 -0.9149 -0.6200 -1.4437
 7479TIP3   OH222400   3.054   0.590   1.928 -0.2854  0.5487  0.2387
 7479TIP3    H122401   2.965   0.615   1.900  0.6077  3.4402 -0.3340
 7479TIP3    H222402   3.101   0.577   1.846  0.8179  3.2018  0.3432
 7480TIP3   OH222403   4.252   5.918   5.073 -0.2046 -0.5280 -0.0509
 7480TIP3    H122404   4.201   5.901   5.152 -0.0084 -0.3317  0.1194
 7480TIP3    H222405   4.198   5.978   5.022 -0.3141 -0.6232 -0.0470
 7481TIP3   OH222406   3.929   5.588   3.208  0.3451  0.1689 -0.6401
 7481TIP3    H122407   3.959   5.603   3.119 -0.4068 -0.1252 -0.9583
 7481TIP3    H222408   3.842   5.628   3.211  0.6022  0.6913  0.1407
 7482TIP3   OH222409   4.432   2.748   4.831  0.1019 -0.1094 -0.0302
 7482TIP3    H122410   4.354   2.693   4.820 -0.0533  0.0541  0.2447
 7482TIP3    H222411   4.493   2.716   4.764  0.4659 -1.4246  0.8786
 7483TIP3   OH222412   2.370   6.267   3.826  0.6553 -0.2889  0.0004
 7483TIP3    H122413   2.416   6.259   3.910 -0.0831 -0.6525  0.3788
 7483TIP3    H222414   2.324   6.351   3.833  2.0099  0.5706 -0.7741
 7484TIP3   OH222415   3.278   1.657   2.098 -0.1015  0.1635  0.0305
 7484TIP3    H122416   3.223   1.686   2.025 -0.0390 -1.9909 -0.9558
 7484TIP3    H222417   3.260   1.720   2.168 -3.2048  0.0525 -0.5190
 7485TIP3   OH222418   6.128   1.397   3.913 -0.3572 -0.0619 -0.0533
 7485TIP3    H122419   6.049   1.405   3.860 -1.3035 -1.8891  1.0021
 7485TIP3    H222420   6.197   1.377   3.850 -0.6351  1.8338 -1.0209
 7486TIP3   OH222421   6.713   2.611   5.012  0.5733  0.8861  0.0787
 7486TIP3    H122422   6.747   2.610   5.102 -0.7258  0.6110  0.5917
 7486TIP3    H222423   6.781   2.568   4.960  1.1512  0.6459  1.0057
 7487TIP3   OH222424   2.590   4.839   0.796 -0.5902 -0.4115 -0.4734
 7487TIP3    H122425   2.648   4.778   0.841  0.5488  1.9004  1.4142
 7487TIP3    H222426   2.511   4.842   0.849 -0.6646 -0.2988 -0.5893
 7488TIP3   OH222427   2.074   5.903   5.175 -0.0265 -0.1441  0.3196
 7488TIP3    H122428   2.163   5.937   5.170 -0.6383  1.8469  1.9862
 7488TIP3    H222429   2.084   5.819   5.221  1.1027 -0.6872 -0.8224
 7489TIP3   OH222430   2.040   4.989   2.713 -0.0508 -0.0922 -0.3282
 7489TIP3    H122431   2.088   5.052   2.767 -0.6839  2.1799 -2.2113
 7489TIP3    H222432   2.092   4.981   2.633 -0.2777 -1.5912 -0.3521
 7490TIP3   OH222433   4.742   2.591   0.701 -0.0434  0.4661  0.2575
 7490TIP3    H122434   4.656   2.632   0.692 -0.2115 -0.0190 -0.3751
 7490TIP3    H222435   4.738   2.513   0.647  1.3285  1.2967 -1.1346
 7491TIP3   OH222436   5.438   2.476   0.182 -0.0098  0.7268  0.1252
 7491TIP3    H122437   5.442   2.400   0.240 -0.1053  0.2104 -0.5379
 7491TIP3    H222438   5.360   2.524   0.211 -0.8895 -0.2972 -0.4995
 7492TIP3   OH222439   3.659   1.411   2.003  0.1168  0.2230 -0.3343
 7492TIP3    H122440   3.578   1.377   1.966  0.9504 -2.5902  0.2204
 7492TIP3    H222441   3.631   1.470   2.073 -1.4476 -0.6195 -0.2220
 7493TIP3   OH222442   5.131   3.762   2.212  0.5707 -0.1848  0.3003
 7493TIP3    H122443   5.203   3.799   2.264  0.3223  0.3222  0.2944
 7493TIP3    H222444   5.170   3.687   2.168  0.2645 -1.9570  2.8469
 7494TIP3   OH222445   5.367   3.852   3.965 -0.0581  0.0303 -0.5429
 7494TIP3    H122446   5.371   3.877   4.057 -0.7429 -1.6095 -0.0229
 7494TIP3    H222447   5.277   3.870   3.938 -0.4732 -1.4625 -0.2479
 7495TIP3   OH222448   5.695   1.420   4.077  0.3123 -0.1823 -0.6138
 7495TIP3    H122449   5.616   1.471   4.094  0.8275 -0.1226  2.0040
 7495TIP3    H222450   5.702   1.361   4.152  2.9435  0.1119 -0.5443
 7496TIP3   OH222451   1.552   3.264   2.917 -0.0990 -0.0358  0.0434
 7496TIP3    H122452   1.575   3.203   2.848 -0.3579 -1.6826  1.3480
 7496TIP3    H222453   1.632   3.315   2.932  0.3328 -0.5187 -0.5897
 7497TIP3   OH222454   5.538   6.307   0.381  0.3699 -0.1609 -0.0583
 7497TIP3    H122455   5.613   6.295   0.323  0.4123  1.3098 -0.3524
 7497TIP3    H222456   5.466   6.330   0.323 -0.8431 -3.2680  0.0181
 7498TIP3   OH222457   5.483   2.813   3.159  0.0269  0.5278  0.2387
 7498TIP3    H122458   5.515   2.814   3.069 -0.7888  0.9445 -0.0644
 7498TIP3    H222459   5.561   2.828   3.213  0.6390 -0.4386 -0.3459
 7499TIP3   OH222460   6.019   3.240   2.232  0.4094  0.7875  0.0090
 7499TIP3    H122461   5.965   3.261   2.308 -0.1331 -0.9569  0.1449
 7499TIP3    H222462   6.095   3.194   2.267 -0.1183 -0.5319 -0.5147
 7500TIP3   OH222463   3.740   5.224  -0.026  0.7512 -0.0327 -0.4972
 7500TIP3    H122464   3.811   5.190   0.029 -0.6872 -0.6179  1.1055
 7500TIP3    H222465   3.663   5.219   0.030 -0.5370  0.7422 -2.1271
 7501TIP3   OH222466   3.191   2.495   3.338 -0.3181  0.0524 -0.8563
 7501TIP3    H122467   3.162   2.496   3.247  0.2796  0.2223 -1.0546
 7501TIP3    H222468   3.114   2.518   3.389 -0.8181 -0.6536 -1.2703
 7502TIP3   OH222469   3.974   3.689   1.453  0.2104  0.1090 -0.6927
 7502TIP3    H122470   4.049   3.742   1.426  0.4813 -0.7108 -1.6280
 7502TIP3    H222471   4.004   3.642   1.530  1.5342 -1.9727 -2.3515
 7503TIP3   OH222472   3.244   2.902   4.431  0.4895  0.1002  0.1406
 7503TIP3    H122473   3.234   2.807   4.423 -3.8515  0.2675  1.2899
 7503TIP3    H222474   3.238   2.934   4.341 -2.1845 -0.6174 -0.0384
 7504TIP3   OH222475   5.305   0.971   3.491 -0.9039 -0.1575  0.8266
 7504TIP3    H122476   5.213   0.952   3.474 -1.0213 -0.6679  1.9182
 7504TIP3    H222477   5.352   0.915   3.430 -1.3020  0.9841 -0.5764
 7505TIP3   OH222478   6.810   1.867   2.643 -0.0901  0.6551  0.2488
 7505TIP3    H122479   6.903   1.845   2.630 -0.2058 -0.8411  1.7092
 7505TIP3    H222480   6.804   1.893   2.735 -1.2742 -0.2251  0.4409
 7506TIP3   OH222481   4.573   3.288   4.382 -0.1306  0.0749 -0.0227
 7506TIP3    H122482   4.539   3.246   4.461 -0.0225  0.7338  0.3793
 7506TIP3    H222483   4.581   3.380   4.406 -0.7882  0.4115 -1.0283
 7507TIP3   OH222484   5.778   3.431   2.248  0.0233  0.3152 -0.2918
 7507TIP3    H122485   5.844   3.493   2.277  0.7337 -0.7983  0.5474
 7507TIP3    H222486   5.695   3.469   2.278  0.5787  0.0723  1.7136
 7508TIP3   OH222487   0.508   2.409   3.256 -0.1929  0.0117  0.0878
 7508TIP3    H122488   0.477   2.319   3.253  0.0594 -0.0793  0.1806
 7508TIP3    H222489   0.554   2.421   3.173 -1.5397  0.5399 -0.6096
 7509TIP3   OH222490   5.839   5.878   0.393  0.2622 -0.1032 -0.1755
 7509TIP3    H122491   5.845   5.921   0.307 -1.8869  2.6051  0.8569
 7509TIP3    H222492   5.917   5.909   0.440  0.0013  0.7470 -0.2730
 7510TIP3   OH222493   2.773   0.311   3.317 -0.0048  0.3721 -0.0728
 7510TIP3    H122494   2.756   0.222   3.287  1.0497  0.1266 -0.0049
 7510TIP3    H222495   2.836   0.346   3.253 -1.0449  1.3766 -0.5840
 7511TIP3   OH222496   5.090   0.749   0.268  0.5391 -0.1907  1.1505
 7511TIP3    H122497   5.154   0.750   0.196  1.7500  0.5648  2.2016
 7511TIP3    H222498   5.143   0.760   0.347 -0.7653 -1.0091  2.1747
 7512TIP3   OH222499   2.594   6.299   3.472  0.1774  0.4784  0.5356
 7512TIP3    H122500   2.600   6.215   3.426 -0.3856  1.3599 -1.2123
 7512TIP3    H222501   2.682   6.312   3.509  0.9614  0.1734 -1.1152
 7513TIP3   OH222502   4.179   4.763   2.683  0.4947 -0.0543  0.1175
 7513TIP3    H122503   4.093   4.798   2.661  1.1525  1.6652  0.0897
 7513TIP3    H222504   4.194   4.694   2.619 -0.5982  0.0400 -0.2597
 7514TIP3   OH222505   3.118   0.575   3.010  0.5233 -0.3934  0.2205
 7514TIP3    H122506   3.085   0.637   2.944  2.3268 -1.8929 -2.2521
 7514TIP3    H222507   3.046   0.514   3.024 -0.4639  0.8721  0.9928
 7515TIP3   OH222508   5.478   6.015   0.561 -0.2446  0.0439  0.2133
 7515TIP3    H122509   5.468   6.044   0.471  1.0472  0.9826  0.3446
 7515TIP3    H222510   5.541   6.077   0.599 -1.3464  0.1386  1.9755
 7516TIP3   OH222511   7.074   4.559   5.401 -0.3838  0.4339 -0.1881
 7516TIP3    H122512   7.068   4.531   5.493  2.4394 -3.4386 -0.9077
 7516TIP3    H222513   7.167   4.556   5.381 -0.8953  1.2937 -3.1804
 7517TIP3   OH222514   6.559   0.895   3.891 -0.3700 -0.0595  0.0838
 7517TIP3    H122515   6.511   0.813   3.879  0.0302 -0.7487  2.5754
 7517TIP3    H222516   6.651   0.869   3.898 -0.3947  0.2094  2.9627
 7518TIP3   OH222517   4.346   0.738   5.633 -0.3551  0.0610  0.4532
 7518TIP3    H122518   4.336   0.725   5.728 -0.5448  1.4044  0.6392
 7518TIP3    H222519   4.364   0.651   5.599 -1.9325 -0.7514  1.5229
 7519TIP3   OH222520   3.634   3.934   5.268 -0.4383  0.2552 -0.3034
 7519TIP3    H122521   3.592   3.871   5.327 -1.3182  0.0617 -1.1143
 7519TIP3    H222522   3.727   3.910   5.270 -0.4389  0.2855  1.0334
 7520TIP3   OH222523   6.748   3.961   5.219  0.4192 -0.1538  0.4739
 7520TIP3    H122524   6.701   3.885   5.185  0.2512 -0.6947  1.8456
 7520TIP3    H222525   6.744   3.951   5.314 -0.1348  1.8886  0.7177
 7521TIP3   OH222526   6.370   3.187   4.246 -0.1065 -0.3568 -1.0612
 7521TIP3    H122527   6.319   3.215   4.322  0.2200  0.6302 -1.1938
 7521TIP3    H222528   6.320   3.219   4.170  0.0177 -0.5623 -1.2305
 7522TIP3   OH222529   5.970   2.432   3.499  0.5481  0.0579 -0.8326
 7522TIP3    H122530   5.959   2.338   3.511  0.2553  0.1301 -0.5354
 7522TIP3    H222531   6.065   2.446   3.502  0.6088 -0.2675 -1.1940
 7523TIP3   OH222532   3.543   1.045   5.784  0.4076 -0.3389  0.9973
 7523TIP3    H122533   3.449   1.031   5.792  0.2546  0.0789  0.0557
 7523TIP3    H222534   3.575   1.046   5.874 -0.2920 -1.7842  1.2871
 7524TIP3   OH222535   1.942   2.857   4.301 -0.4048  0.3100 -1.0044
 7524TIP3    H122536   1.930   2.819   4.388  1.4086  2.7674  0.4590
 7524TIP3    H222537   1.942   2.782   4.241 -0.8822 -1.5423  1.2002
 7525TIP3   OH222538   7.055   5.191   0.950 -0.1125 -0.4587  0.1657
 7525TIP3    H122539   7.005   5.228   0.877 -2.3436 -1.2372  1.2071
 7525TIP3    H222540   7.113   5.262   0.977 -2.4658  1.4970  0.4906
 7526TIP3   OH222541   0.353   5.669   4.542  0.2368  0.0699 -0.4475
 7526TIP3    H122542   0.382   5.582   4.570  1.9846  0.5733 -0.5462
 7526TIP3    H222543   0.260   5.671   4.562  0.3683 -1.4629  0.4861
 7527TIP3   OH222544   1.750   5.233   0.063 -0.1573  0.3418  0.0314
 7527TIP3    H122545   1.795   5.149   0.050  1.8463  0.9785  2.1174
 7527TIP3    H222546   1.779   5.287  -0.011  3.9660  1.1979  2.0053
 7528TIP3   OH222547   6.799   2.276   4.328 -0.2387  0.4414 -0.0717
 7528TIP3    H122548   6.745   2.299   4.403 -2.1312 -0.9759 -0.8979
 7528TIP3    H222549   6.748   2.304   4.252  1.4667  1.5321 -0.8774
 7529TIP3   OH222550   3.381   1.570   5.074  0.5354  0.4783 -0.2547
 7529TIP3    H122551   3.315   1.599   5.137  0.1857  0.1853 -0.4782
 7529TIP3    H222552   3.463   1.609   5.104  0.2345  0.9629 -0.0467
 7530TIP3   OH222553   5.886   1.114   5.872  0.2652 -0.1507  0.5434
 7530TIP3    H122554   5.962   1.057   5.880  2.2022  2.1449 -0.4918
 7530TIP3    H222555   5.878   1.133   5.779  0.9972  2.8110  0.9739
 7531TIP3   OH222556   2.734   4.673   2.481 -0.0947 -0.0960  0.2019
 7531TIP3    H122557   2.679   4.638   2.550 -0.2173 -0.0881  0.1083
 7531TIP3    H222558   2.796   4.731   2.526 -0.2535  0.0067  0.2880
 7532TIP3   OH222559   3.384   3.959   4.367  0.1704 -0.2727 -0.2503
 7532TIP3    H122560   3.478   3.956   4.352  0.2463 -1.1576  0.2986
 7532TIP3    H222561   3.354   3.870   4.350 -0.4550 -0.1669  0.2593
 7533TIP3   OH222562   5.305   2.745   5.620  0.2415 -0.2338 -0.2795
 7533TIP3    H122563   5.291   2.674   5.557 -0.8599 -0.3435  0.0713
 7533TIP3    H222564   5.335   2.700   5.699  1.6263 -0.0959 -0.7033
 7534TIP3   OH222565   0.270   6.578   2.066  0.5474 -0.4029  0.0235
 7534TIP3    H122566   0.243   6.669   2.062  2.2139  0.1432  0.4263
 7534TIP3    H222567   0.190   6.530   2.089 -0.6626  0.7634 -1.5434
 7535TIP3   OH222568   6.753   2.916   3.813 -0.1776  0.7107 -0.0463
 7535TIP3    H122569   6.793   2.832   3.791 -2.1465 -0.7615  1.6159
 7535TIP3    H222570   6.662   2.907   3.785 -0.1723  2.7705 -0.8913
 7536TIP3   OH222571   2.080   0.955   1.449 -0.3563 -0.2360 -0.1750
 7536TIP3    H122572   2.040   0.873   1.480 -0.9163  0.4757  1.0514
 7536TIP3    H222573   2.077   0.948   1.354 -1.5350 -1.1026 -0.1013
 7537TIP3   OH222574   2.427   2.362   1.666 -0.0276  0.0503 -0.0967
 7537TIP3    H122575   2.412   2.453   1.642  0.6414  0.4308  0.8496
 7537TIP3    H222576   2.404   2.358   1.759  1.0939 -0.4421  0.1791
 7538TIP3   OH222577   1.992   2.247   5.109  0.4301  0.2223  0.2242
 7538TIP3    H122578   2.025   2.172   5.059 -0.9664  0.1976 -0.7266
 7538TIP3    H222579   1.991   2.319   5.046 -1.0065  0.2873  0.2871
 7539TIP3   OH222580   1.031   1.040   2.947  0.0099  0.4363 -0.4334
 7539TIP3    H122581   1.055   1.120   2.994  0.1818  0.5666 -0.7377
 7539TIP3    H222582   1.115   0.999   2.926 -0.1003 -0.7307  1.2511
 7540TIP3   OH222583   3.573   6.506   2.730  0.4093 -0.0545  0.2165
 7540TIP3    H122584   3.481   6.481   2.737  0.4361 -0.5514 -1.0044
 7540TIP3    H222585   3.620   6.435   2.773  0.2935 -0.4702 -0.3345
 7541TIP3   OH222586   1.758   1.371   4.919 -0.0480  0.2683  0.4566
 7541TIP3    H122587   1.770   1.375   4.824 -0.3373  0.4597  0.4278
 7541TIP3    H222588   1.695   1.299   4.932  0.3847 -0.0987  0.5397
 7542TIP3   OH222589   6.469   5.359   1.602 -0.7512 -0.7756 -0.1030
 7542TIP3    H122590   6.439   5.384   1.689 -1.4170  2.5181 -1.1299
 7542TIP3    H222591   6.564   5.369   1.605 -0.5277 -2.6872  0.7308
 7543TIP3   OH222592   1.799   5.873   1.332 -0.4755 -0.6176 -0.2183
 7543TIP3    H122593   1.796   5.778   1.339 -0.4629 -0.5745  0.3849
 7543TIP3    H222594   1.795   5.905   1.422 -2.0580  0.0126 -0.4847
 7544TIP3   OH222595   2.310   2.332   4.778  0.7361 -0.5387 -0.1140
 7544TIP3    H122596   2.219   2.308   4.758  0.5270 -1.5648  1.8620
 7544TIP3    H222597   2.357   2.319   4.695 -1.2458  2.2392 -1.8697
 7545TIP3   OH222598   1.142   3.439   4.725  0.3896 -0.0426 -0.7276
 7545TIP3    H122599   1.126   3.407   4.636 -1.2686  1.3608 -0.9797
 7545TIP3    H222600   1.215   3.499   4.716 -0.1710  0.5741 -1.2788
 7546TIP3   OH222601   2.731   5.267   2.883 -0.0322 -0.0872  0.0803
 7546TIP3    H122602   2.682   5.295   2.805 -1.4052  0.6297  1.1536
 7546TIP3    H222603   2.746   5.348   2.932  1.4654 -0.4309  0.2318
 7547TIP3   OH222604   0.820   0.547   2.314  0.0242 -0.4975  0.9088
 7547TIP3    H122605   0.799   0.637   2.339  2.0170  0.3678 -0.2437
 7547TIP3    H222606   0.844   0.504   2.396  0.5013  0.4750  1.2889
 7548TIP3   OH222607   5.903   4.981   5.127  0.6320 -0.1729 -0.3539
 7548TIP3    H122608   5.872   5.032   5.052 -0.4477 -0.1736  0.0741
 7548TIP3    H222609   5.941   5.046   5.186  3.2557 -0.3754 -1.7064
 7549TIP3   OH222610   3.973   3.857   2.149  0.2794  0.1675  0.6583
 7549TIP3    H122611   3.880   3.868   2.128  0.4446  0.2111 -0.0488
 7549TIP3    H222612   4.018   3.922   2.096  0.7798 -0.3374  0.4551
 7550TIP3   OH222613   5.504   0.066   1.141 -0.6531 -0.7704 -0.3321
 7550TIP3    H122614   5.571   0.102   1.200  1.2989 -0.0002 -2.8576
 7550TIP3    H222615   5.488  -0.022   1.175  0.7812 -0.5521  1.0455
 7551TIP3   OH222616   3.836   0.699   4.245 -0.0920 -0.1962 -0.0121
 7551TIP3    H122617   3.839   0.649   4.163  0.5431 -0.3649  0.1115
 7551TIP3    H222618   3.921   0.684   4.286 -0.0839  0.5903  0.2711
 7552TIP3   OH222619   2.008   2.734   2.191  0.4011  0.1620 -0.8423
 7552TIP3    H122620   1.970   2.670   2.250  3.0428  0.5773  1.5357
 7552TIP3    H222621   1.954   2.812   2.201 -0.7611 -0.6003 -1.0621
 7553TIP3   OH222622   0.617   4.554   1.451 -0.2960 -0.9767  0.3520
 7553TIP3    H122623   0.629   4.638   1.406 -2.2596 -1.3736 -1.0566
 7553TIP3    H222624   0.682   4.555   1.521  0.3328  1.3295 -0.1671
 7554TIP3   OH222625   4.010   3.306   1.794  0.5890 -0.2577 -0.0036
 7554TIP3    H122626   3.922   3.328   1.825  1.2634  1.5978  0.7033
 7554TIP3    H222627   4.057   3.278   1.872  1.1644  0.6385 -0.0098
 7555TIP3   OH222628   4.834   3.715   3.305 -0.0143 -0.6603  0.8829
 7555TIP3    H122629   4.783   3.681   3.378 -0.7542  0.7909  1.0768
 7555TIP3    H222630   4.807   3.806   3.297  0.8833 -0.4809 -0.4872
 7556TIP3   OH222631   4.735   3.078   4.428  0.5347 -0.3492 -0.7728
 7556TIP3    H122632   4.691   3.161   4.408 -0.1587 -0.7903 -1.1245
 7556TIP3    H222633   4.739   3.075   4.523  0.4630  0.0415 -0.7548
 7557TIP3   OH222634   4.250   4.035   2.954 -0.3543  0.2304 -0.5914
 7557TIP3    H122635   4.345   4.049   2.958 -0.3414  0.4688 -1.4899
 7557TIP3    H222636   4.236   3.952   2.999  0.0160  1.2149  1.4819
 7558TIP3   OH222637   3.344   4.826   1.017  0.3774  0.2680 -0.2291
 7558TIP3    H122638   3.320   4.917   1.034  0.5527  0.5230 -1.2368
 7558TIP3    H222639   3.296   4.804   0.937 -0.0688 -0.7032  0.2889
 7559TIP3   OH222640   1.747   1.379   4.157 -0.2491 -0.6659 -0.1428
 7559TIP3    H122641   1.732   1.374   4.252 -2.0814  1.0656 -0.2837
 7559TIP3    H222642   1.792   1.462   4.144 -4.0492  1.4439 -1.1033
 7560TIP3   OH222643   2.610   5.859   4.190 -0.0552 -0.1649  0.5187
 7560TIP3    H122644   2.518   5.840   4.208 -0.2731  1.1939  0.9588
 7560TIP3    H222645   2.650   5.773   4.177 -1.6026 -0.7238 -0.8258
 7561TIP3   OH222646   5.545   5.869   3.480  0.3273  0.0796 -0.0966
 7561TIP3    H122647   5.542   5.883   3.386 -0.9058 -1.4006 -0.3379
 7561TIP3    H222648   5.463   5.908   3.513 -0.6843 -1.8994 -0.1021
 7562TIP3   OH222649   0.339   5.110   1.801  0.9518  0.1132 -0.0230
 7562TIP3    H122650   0.255   5.122   1.757  1.1278 -1.6227 -0.9176
 7562TIP3    H222651   0.342   5.180   1.866 -1.4342 -0.1327  0.4391
 7563TIP3   OH222652   3.022   4.637   1.291 -0.3465 -0.8155 -0.6428
 7563TIP3    H122653   3.021   4.715   1.235  1.1215  1.1826  1.8808
 7563TIP3    H222654   2.932   4.628   1.321 -0.0112  2.2146  1.7697
 7564TIP3   OH222655   5.885   6.433   4.048 -0.4436 -0.5464  0.3765
 7564TIP3    H122656   5.846   6.406   4.132 -0.9623 -0.2555  0.2336
 7564TIP3    H222657   5.826   6.500   4.015  1.8877  2.3802  1.6895
 7565TIP3   OH222658   6.872   0.643   3.593  0.3442  0.0719  0.0490
 7565TIP3    H122659   6.925   0.585   3.537  1.9409  3.7058 -2.6100
 7565TIP3    H222660   6.789   0.650   3.546  0.1579 -0.0581  0.3623
 7566TIP3   OH222661   0.925   6.515   4.688  0.3192  0.3684 -0.5948
 7566TIP3    H122662   0.930   6.609   4.707 -2.6412  0.8281 -1.5425
 7566TIP3    H222663   0.999   6.498   4.630 -0.3590  2.7049 -2.3136
 7567TIP3   OH222664   0.294   6.036   2.049  0.2126 -0.7252 -0.0916
 7567TIP3    H122665   0.345   5.956   2.039 -0.9123 -1.3244 -1.3752
 7567TIP3    H222666   0.242   6.042   1.969 -3.0014 -1.1255  1.7755
 7568TIP3   OH222667   0.060   1.092   1.387 -0.1016 -0.1680 -0.0888
 7568TIP3    H122668  -0.035   1.100   1.382 -0.2735 -0.6085  1.8436
 7568TIP3    H222669   0.090   1.176   1.421  0.1046 -0.3605  0.2078
 7569TIP3   OH222670   0.323   2.631   3.243  0.1059 -0.0174  0.5567
 7569TIP3    H122671   0.285   2.651   3.158  0.4413 -0.9910  0.1660
 7569TIP3    H222672   0.380   2.556   3.228  0.4331  0.0003  1.5748
 7570TIP3   OH222673   4.792   0.387   5.694 -0.4180  0.3092 -0.1764
 7570TIP3    H122674   4.748   0.391   5.609 -0.0751  1.4988 -0.3083
 7570TIP3    H222675   4.883   0.409   5.675 -0.3333  0.5539  0.4969
 7571TIP3   OH222676   4.914   4.594   4.358 -0.1419 -0.0780 -0.4071
 7571TIP3    H122677   4.906   4.684   4.326  1.4024  0.5354  0.7810
 7571TIP3    H222678   4.883   4.598   4.448  0.3312 -0.6329 -0.2146
 7572TIP3   OH222679   6.679   0.205   1.313 -0.0691  0.0519  0.0056
 7572TIP3    H122680   6.726   0.287   1.326  1.5630 -0.7657 -0.5013
 7572TIP3    H222681   6.608   0.208   1.377 -0.2555  1.9780 -0.2124
 7573TIP3   OH222682   2.688   3.167   4.024 -0.3215  0.0223  0.0645
 7573TIP3    H122683   2.739   3.238   4.063  1.9587 -0.4857 -1.7595
 7573TIP3    H222684   2.628   3.140   4.093  2.0798  0.4863  2.4885
 7574TIP3   OH222685   4.252   4.855   2.390 -0.0305  0.0819  0.1923
 7574TIP3    H122686   4.175   4.846   2.334  1.8500 -2.5489 -2.2344
 7574TIP3    H222687   4.255   4.774   2.440  0.6261  0.5841  0.9835
 7575TIP3   OH222688   2.218   4.185   2.500 -0.3003 -0.1369  0.1516
 7575TIP3    H122689   2.175   4.251   2.445  0.6982 -0.6806 -1.3369
 7575TIP3    H222690   2.209   4.219   2.589  2.3748  3.4076 -0.6863
 7576TIP3   OH222691   0.584   6.805   5.333 -0.7389 -0.2504  0.2770
 7576TIP3    H122692   0.616   6.731   5.384  0.7630  0.3540  0.2497
 7576TIP3    H222693   0.623   6.793   5.246 -1.4814 -0.0763 -0.0896
 7577TIP3   OH222694   2.035   4.383   2.073  0.1239 -0.2419  0.4886
 7577TIP3    H122695   2.061   4.332   2.150 -1.8300  0.7160  1.8636
 7577TIP3    H222696   2.060   4.473   2.094 -0.5673  0.0519  0.1040
 7578TIP3   OH222697   0.915   6.017   3.525  0.1794 -0.2413 -0.1868
 7578TIP3    H122698   0.824   6.031   3.498  0.2230  0.5821  0.0741
 7578TIP3    H222699   0.913   6.025   3.620  0.3431 -1.3115 -0.0835
 7579TIP3   OH222700   2.347   3.532   4.877 -0.1360  0.0123  0.2789
 7579TIP3    H122701   2.440   3.522   4.897  0.3856  2.2318 -0.6975
 7579TIP3    H222702   2.306   3.557   4.960  0.7065  2.0074  0.1330
 7580TIP3   OH222703   5.100   0.736   2.590 -0.6316 -0.2876  0.4211
 7580TIP3    H122704   5.143   0.735   2.504 -2.0524  0.3526 -0.3200
 7580TIP3    H222705   5.120   0.822   2.626 -3.0263  0.8924 -0.8769
 7581TIP3   OH222706   4.788   2.973   3.636 -0.1616  0.1490  0.0788
 7581TIP3    H122707   4.810   3.010   3.550 -2.2453 -0.1710 -0.6574
 7581TIP3    H222708   4.847   2.898   3.645  0.2381  0.3104 -0.9836
 7582TIP3   OH222709   0.894   5.966   0.157  0.2435  0.1310  0.0461
 7582TIP3    H122710   0.881   5.914   0.236  3.0186  0.8598  1.0912
 7582TIP3    H222711   0.841   6.044   0.169 -1.5434 -1.0024 -0.1430
 7583TIP3   OH222712   6.179   5.216   4.333  0.2699  0.4501 -0.0382
 7583TIP3    H122713   6.265   5.181   4.311  0.2378 -0.2635  0.8795
 7583TIP3    H222714   6.129   5.140   4.362 -0.6346  0.8748 -0.4510
 7584TIP3   OH222715   1.651   5.427   3.388  0.1808  0.3255  0.1504
 7584TIP3    H122716   1.557   5.441   3.384 -0.0580 -1.3001 -1.4424
 7584TIP3    H222717   1.683   5.493   3.449 -2.1243  0.1800  1.6494
 7585TIP3   OH222718   0.919   6.501   5.248  0.4173  0.1469 -0.1755
 7585TIP3    H122719   1.002   6.539   5.218  1.0400 -1.2777 -0.3129
 7585TIP3    H222720   0.942   6.414   5.279 -1.1156 -0.4635 -0.6597
 7586TIP3   OH222721   4.605   3.861   5.805 -0.1366  0.4579  0.3429
 7586TIP3    H122722   4.560   3.777   5.791 -0.8246  0.5661  1.7398
 7586TIP3    H222723   4.606   3.902   5.719  0.8750 -1.2849 -0.5470
 7587TIP3   OH222724   4.958   2.325   3.185  0.1218  0.0846 -0.1166
 7587TIP3    H122725   4.946   2.236   3.218  1.6829  0.2522  1.0130
 7587TIP3    H222726   5.036   2.320   3.130  2.1935  1.2823  2.4847
 7588TIP3   OH222727   7.122   1.700   2.544  0.4382  0.2100 -0.4725
 7588TIP3    H122728   7.132   1.738   2.457  3.0011  1.9613  0.4521
 7588TIP3    H222729   7.120   1.775   2.603  0.4736 -0.9607  1.0995
 7589TIP3   OH222730   1.193   2.309   3.497  0.6901 -0.2850  0.4636
 7589TIP3    H122731   1.159   2.398   3.491  2.7160  0.5998  1.1800
 7589TIP3    H222732   1.180   2.284   3.589  1.5796 -0.0734  0.6584
 7590TIP3   OH222733   1.566   2.241   2.348 -0.2260 -0.3061  0.5564
 7590TIP3    H122734   1.528   2.197   2.272 -0.2413 -0.6082  0.7379
 7590TIP3    H222735   1.581   2.331   2.318  0.7194 -0.6722 -0.1323
 7591TIP3   OH222736   2.606   1.892   4.704 -0.1443  0.2043 -0.1499
 7591TIP3    H122737   2.513   1.899   4.681  0.1197  0.1341 -1.2485
 7591TIP3    H222738   2.642   1.978   4.684 -0.0681  0.4127  0.8053
 7592TIP3   OH222739   3.331   2.544   2.801  0.4913 -1.1402  1.0007
 7592TIP3    H122740   3.366   2.616   2.749 -1.7602 -0.4135  0.3921
 7592TIP3    H222741   3.366   2.465   2.759  0.2995 -0.5035 -0.4143
 7593TIP3   OH222742   1.910   2.406   5.302  0.1195  0.0444 -0.2020
 7593TIP3    H122743   1.915   2.330   5.243 -1.1314 -0.1904 -0.0410
 7593TIP3    H222744   1.925   2.481   5.246 -0.3167 -0.2304 -0.7009
 7594TIP3   OH222745   2.600   6.755   4.518  0.0797  0.0939  0.2574
 7594TIP3    H122746   2.688   6.787   4.541  1.1594 -0.8243 -2.2533
 7594TIP3    H222747   2.588   6.679   4.575  1.0216  0.0748  0.4566
 7595TIP3   OH222748   1.729   5.222   3.558  0.5401 -0.0571 -0.3464
 7595TIP3    H122749   1.704   5.139   3.517 -1.6021  1.1902 -1.7867
 7595TIP3    H222750   1.689   5.289   3.502  0.9290  1.9139  1.5992
 7596TIP3   OH222751   6.486   3.924   4.721  0.0467  0.1119 -0.1072
 7596TIP3    H122752   6.473   3.834   4.752  1.4622  0.0902  0.5157
 7596TIP3    H222753   6.512   3.972   4.800 -0.2117  0.9651 -0.5340
 7597TIP3   OH222754   2.927   6.168   4.486  0.0455  0.2879  0.3098
 7597TIP3    H122755   2.969   6.238   4.536 -0.0786 -0.0823  0.9464
 7597TIP3    H222756   2.936   6.090   4.542 -1.9854  0.3134  0.7353
 7598TIP3   OH222757   4.615   2.528   4.463 -0.8316 -0.3905  0.5451
 7598TIP3    H122758   4.705   2.494   4.468  0.2653  1.9991 -1.0667
 7598TIP3    H222759   4.597   2.558   4.552  1.3210  2.0002  0.3141
 7599TIP3   OH222760   6.105   6.283   4.610 -0.1029  0.4132  0.0248
 7599TIP3    H122761   6.182   6.234   4.580  0.5970  2.6076 -2.1417
 7599TIP3    H222762   6.128   6.312   4.698  0.3290 -1.2625  0.5128
 7600TIP3   OH222763   1.917   1.977   5.592  0.2831 -0.0557  0.0662
 7600TIP3    H122764   1.982   1.907   5.582  1.3252  0.9038 -0.0863
 7600TIP3    H222765   1.833   1.934   5.576  0.5341 -1.9784  3.0428
 7601TIP3   OH222766   4.236   0.025   5.436 -0.6001  0.0957 -0.1795
 7601TIP3    H122767   4.285  -0.001   5.514  1.0520 -0.0946 -1.2459
 7601TIP3    H222768   4.149   0.049   5.470  0.5745  1.7241  1.9556
 7602TIP3   OH222769   3.136   2.011   2.377  0.0298 -0.3037 -0.0348
 7602TIP3    H122770   3.067   2.007   2.311 -0.5918 -0.2141  0.5930
 7602TIP3    H222771   3.199   1.944   2.350  0.2213  0.3243 -1.1887
 7603TIP3   OH222772   2.223   3.144   4.590 -0.7092 -0.1107  0.4418
 7603TIP3    H122773   2.249   3.230   4.623 -0.6674  0.8983 -2.0480
 7603TIP3    H222774   2.140   3.126   4.634 -1.2730  1.7077  0.2179
 7604TIP3   OH222775   2.132   1.988   1.879  0.1480  0.1621  0.4213
 7604TIP3    H122776   2.051   2.003   1.831  0.8618  3.0142 -0.1014
 7604TIP3    H222777   2.201   2.011   1.816  1.2896 -0.3375  1.4535
 7605TIP3   OH222778   3.628   2.014   4.337 -0.3200 -0.6988  0.2598
 7605TIP3    H122779   3.603   2.056   4.255 -1.7723  0.0512  1.0539
 7605TIP3    H222780   3.626   1.920   4.317  0.7223 -0.5098 -0.9099
 7606TIP3   OH222781   6.003   2.166   3.222  0.2834  0.0676 -0.2387
 7606TIP3    H122782   5.995   2.148   3.315 -0.9976  1.2305 -0.0929
 7606TIP3    H222783   5.956   2.095   3.179  0.8720 -0.4667 -0.0152
 7607TIP3   OH222784   3.371   4.115   5.735  0.6504 -0.1067 -0.3966
 7607TIP3    H122785   3.424   4.109   5.815 -0.5339  2.2108  0.6555
 7607TIP3    H222786   3.294   4.061   5.754  1.2649 -1.1379 -0.7775
 7608TIP3   OH222787   5.237   4.144   4.729  0.0321  0.2949  0.3845
 7608TIP3    H122788   5.267   4.211   4.668 -1.8155  0.9785  0.1721
 7608TIP3    H222789   5.314   4.123   4.781  1.0259  1.4745 -0.5542
 7609TIP3   OH222790   3.020   5.061   0.473 -0.1749 -0.3285 -0.5145
 7609TIP3    H122791   3.024   5.152   0.444  0.4998  0.1108  0.9071
 7609TIP3    H222792   2.938   5.055   0.521  0.1045 -0.2972 -0.0342
 7610TIP3   OH222793   3.983   4.210   4.322  0.2511  0.0705  0.3787
 7610TIP3    H122794   4.047   4.161   4.272  0.9541  0.5981  0.7503
 7610TIP3    H222795   4.018   4.214   4.411  0.3113  1.3974  0.3185
 7611TIP3   OH222796   3.517   2.528   2.552  0.0613 -0.2318 -0.3468
 7611TIP3    H122797   3.580   2.510   2.621  0.1354 -0.0966 -0.3774
 7611TIP3    H222798   3.552   2.606   2.508 -0.6950  0.4950  0.3204
 7612TIP3   OH222799   1.718   3.707   2.681  0.3179  0.2759 -0.0514
 7612TIP3    H122800   1.762   3.791   2.688  0.3626  0.2469  0.0205
 7612TIP3    H222801   1.692   3.700   2.589  1.2906 -0.1221 -0.3135
 7613TIP3   OH222802   5.077   0.696   4.036 -0.3696 -0.2314  0.4875
 7613TIP3    H122803   4.996   0.667   4.079 -1.2627  0.2808 -0.7740
 7613TIP3    H222804   5.078   0.647   3.953  1.5966 -1.6227  1.2712
 7614TIP3   OH222805   6.442   2.543   0.450  0.6367 -0.4231 -0.0099
 7614TIP3    H122806   6.387   2.516   0.523  0.7454 -0.0403  0.2183
 7614TIP3    H222807   6.527   2.564   0.491  1.0242 -1.2245 -0.3838
 7615TIP3   OH222808   5.689   0.280   2.624 -0.1342  0.1413  0.5303
 7615TIP3    H122809   5.599   0.267   2.595 -0.0469 -0.1805  0.4010
 7615TIP3    H222810   5.693   0.235   2.709 -0.4857  1.3759  1.2310
 7616TIP3   OH222811   0.345   3.571   4.321  0.1420  0.0803  0.2140
 7616TIP3    H122812   0.288   3.501   4.352 -0.7190  0.5947 -0.1797
 7616TIP3    H222813   0.403   3.529   4.258 -0.6799 -0.1994 -0.3700
 7617TIP3   OH222814   0.429   4.493   4.831  0.6467  0.3453  0.3362
 7617TIP3    H122815   0.409   4.452   4.747  0.3467  2.8462 -0.9026
 7617TIP3    H222816   0.343   4.518   4.867  0.7774 -0.6293  1.3669
 7618TIP3   OH222817   3.174   2.289   2.016 -0.1495  1.0721  0.0612
 7618TIP3    H122818   3.249   2.255   1.967  0.3905  2.7437 -0.3309
 7618TIP3    H222819   3.212   2.327   2.095 -0.8754 -0.3156  1.1234
 7619TIP3   OH222820   6.702   6.696   4.338  0.1763 -0.1213 -0.0945
 7619TIP3    H122821   6.665   6.692   4.250  0.3341 -1.2012 -0.1298
 7619TIP3    H222822   6.630   6.726   4.393  0.1279  0.7404 -0.6011
 7620TIP3   OH222823   0.000   6.255   2.138 -0.2416  0.2808 -0.4523
 7620TIP3    H122824   0.094   6.267   2.154 -0.6043  0.6219  1.7577
 7620TIP3    H222825  -0.025   6.332   2.087  0.7415 -0.0631 -1.5045
 7621TIP3   OH222826   5.548   4.701   2.285 -0.7353 -0.3247  0.3080
 7621TIP3    H122827   5.460   4.663   2.293  0.1815 -2.4883  0.6905
 7621TIP3    H222828   5.605   4.627   2.266  0.8726  1.1941 -1.2742
 7622TIP3   OH222829   4.368   5.842   5.486  0.3642  0.1678 -0.1988
 7622TIP3    H122830   4.313   5.845   5.407  1.0922 -0.6324 -0.7506
 7622TIP3    H222831   4.454   5.870   5.456  1.0327 -1.6013 -0.0395
 7623TIP3   OH222832   2.773   5.779   2.514  0.7441  0.4572 -0.2583
 7623TIP3    H122833   2.755   5.870   2.493  0.6957  0.5747  0.2592
 7623TIP3    H222834   2.806   5.740   2.433 -1.0678  0.4442 -1.0302
 7624TIP3   OH222835   0.007   4.512   4.067 -0.1471  0.0765  0.7777
 7624TIP3    H122836  -0.027   4.443   4.010 -0.8161  0.8563  0.2020
 7624TIP3    H222837   0.081   4.549   4.020  0.3977 -0.4379  1.2214
 7625TIP3   OH222838   4.605   4.680   1.048 -0.7187 -0.3397  0.0449
 7625TIP3    H122839   4.601   4.604   0.989 -2.0354 -0.1064 -0.1955
 7625TIP3    H222840   4.698   4.698   1.057 -0.2739 -2.8716  1.2719
 7626TIP3   OH222841   0.741   5.882   2.441 -0.1703 -0.3275 -0.5057
 7626TIP3    H122842   0.808   5.817   2.461 -1.0755 -1.1901 -0.2008
 7626TIP3    H222843   0.665   5.831   2.415 -2.2055  0.3228  3.4672
 7627TIP3   OH222844   1.592   0.682   3.955 -0.7281 -0.3729 -0.0653
 7627TIP3    H122845   1.587   0.777   3.946  0.8466 -0.2286  0.3782
 7627TIP3    H222846   1.669   0.666   4.009  0.5769 -1.9828 -2.2321
 7628TIP3   OH222847   0.385   2.730   2.945 -0.5160  0.2364  0.2030
 7628TIP3    H122848   0.298   2.700   2.918 -0.7195  1.7578 -0.9631
 7628TIP3    H222849   0.438   2.721   2.866  0.0835  0.4308  0.5849
 7629TIP3   OH222850   7.082   3.762   2.161  0.0117 -0.2085 -0.2037
 7629TIP3    H122851   7.087   3.849   2.201  1.8207  0.2333 -1.2950
 7629TIP3    H222852   6.988   3.749   2.144 -0.2717  1.6292 -0.2345
 7630TIP3   OH222853   1.080   5.860   0.006  0.7422 -0.0111 -0.0286
 7630TIP3    H122854   1.016   5.904   0.062 -1.0695 -1.4741 -0.8354
 7630TIP3    H222855   1.082   5.770   0.038  1.1013 -0.4101 -1.1319
 7631TIP3   OH222856   1.642   0.248   1.385  0.2628  0.1193  0.3285
 7631TIP3    H122857   1.571   0.289   1.335  1.3146 -0.6924 -1.9553
 7631TIP3    H222858   1.719   0.301   1.366  0.7420 -0.3446  0.9263
 7632TIP3   OH222859   1.016   3.335   3.186 -0.0304 -0.3134 -0.6393
 7632TIP3    H122860   1.058   3.274   3.124  1.4433  0.0313 -0.0270
 7632TIP3    H222861   1.029   3.294   3.271  1.9492  1.3066 -0.0837
 7633TIP3   OH222862   1.954   1.560   1.077 -0.0711 -0.3934 -0.3734
 7633TIP3    H122863   2.047   1.576   1.096 -0.2682 -1.3980  1.8216
 7633TIP3    H222864   1.914   1.548   1.164 -1.7292 -2.6267 -1.3352
 7634TIP3   OH222865   1.657   4.968   4.623  0.2460  0.3443 -0.0951
 7634TIP3    H122866   1.584   5.016   4.583 -1.0553 -0.9456  0.6079
 7634TIP3    H222867   1.638   4.969   4.716  1.7864  0.9748  0.2321
 7635TIP3   OH222868   5.175   5.045   5.184  0.1232  0.4223 -0.8917
 7635TIP3    H122869   5.135   4.960   5.169  0.7981 -0.3737  1.3734
 7635TIP3    H222870   5.258   5.042   5.135  0.3437 -0.4223 -0.4945
 7636TIP3   OH222871   2.094   2.428   1.161  0.2126 -0.3248  0.5042
 7636TIP3    H122872   2.102   2.512   1.117  2.5548 -0.3257  0.7955
 7636TIP3    H222873   2.084   2.450   1.254 -2.6668 -0.3734  0.3161
 7637TIP3   OH222874   1.586   6.170   5.059 -0.0162  0.1855  0.0326
 7637TIP3    H122875   1.677   6.171   5.091  0.1739  1.1315 -0.5117
 7637TIP3    H222876   1.535   6.206   5.132  0.0868 -0.0226  0.2100
 7638TIP3   OH222877   0.482   2.777   3.499 -0.1858 -0.0126 -0.2680
 7638TIP3    H122878   0.391   2.777   3.530  0.0914 -1.4204  0.6859
 7638TIP3    H222879   0.480   2.724   3.420 -0.5465  1.8638 -1.5663
 7639TIP3   OH222880   4.888   6.473   0.862 -0.3769 -0.2626 -0.1167
 7639TIP3    H122881   4.929   6.407   0.806  0.6710  1.1660 -1.1020
 7639TIP3    H222882   4.801   6.484   0.825  0.0631  0.1668 -1.0767
 7640TIP3   OH222883   3.021   5.084   1.229  0.2177  0.1186 -0.3508
 7640TIP3    H122884   2.982   5.135   1.157  0.7566  0.7158 -0.2284
 7640TIP3    H222885   3.000   5.134   1.308  1.8172  0.8314 -0.3487
 7641TIP3   OH222886   1.828   2.518   2.941 -0.0355  0.2296  0.1009
 7641TIP3    H122887   1.907   2.549   2.987 -0.8197  1.0131  0.9677
 7641TIP3    H222888   1.812   2.431   2.978  2.3089 -1.5076 -2.5070
 7642TIP3   OH222889   3.597   5.674   1.873 -0.1880  0.5171 -0.1719
 7642TIP3    H122890   3.599   5.613   1.946 -1.2572  0.4944 -0.1362
 7642TIP3    H222891   3.578   5.619   1.796 -0.5079  0.7147 -0.2372
 7643TIP3   OH222892   3.126   2.096   4.738  0.5572 -0.3934 -0.4645
 7643TIP3    H122893   3.138   2.001   4.738 -0.9594 -0.6066 -0.3507
 7643TIP3    H222894   3.104   2.117   4.829  0.8598  0.0604 -0.4936
 7644TIP3   OH222895   1.788   0.987   0.748 -0.9948 -0.0545  0.0134
 7644TIP3    H122896   1.702   0.944   0.745 -0.9093 -0.3933  1.5307
 7644TIP3    H222897   1.850   0.917   0.728 -0.9378 -0.4026  1.2981
 7645TIP3   OH222898   0.710   4.545   4.267 -0.0587 -0.3534  0.1083
 7645TIP3    H122899   0.710   4.640   4.277 -1.1853 -0.3623  0.3119
 7645TIP3    H222900   0.625   4.517   4.301 -0.9022 -1.1663 -2.4623
 7646TIP3   OH222901   5.862   0.085   0.451 -0.5200  0.7620  0.1222
 7646TIP3    H122902   5.950   0.108   0.483 -0.5963  1.5731 -0.2398
 7646TIP3    H222903   5.804   0.144   0.498 -0.8706  0.2675  0.3127
 7647TIP3   OH222904   7.035   5.488   3.678  0.3295 -0.2795  0.3264
 7647TIP3    H122905   7.086   5.495   3.597 -0.9221  0.1923 -0.4527
 7647TIP3    H222906   6.983   5.568   3.680 -0.8150 -1.0057  0.7680
 7648TIP3   OH222907   4.736   4.887   2.529  0.8931 -0.2144  0.3448
 7648TIP3    H122908   4.700   4.944   2.597  1.4480 -0.7030  1.0711
 7648TIP3    H222909   4.684   4.807   2.535  2.0840 -0.9423  1.4351
 7649TIP3   OH222910   6.211   4.824   1.786 -0.0353 -0.4920 -0.8321
 7649TIP3    H122911   6.168   4.766   1.723 -2.1884 -0.2711  0.3139
 7649TIP3    H222912   6.139   4.872   1.826  1.6261  2.9461 -1.6266
 7650TIP3   OH222913   3.023   1.075   3.969  0.1530  0.5997 -0.0096
 7650TIP3    H122914   3.003   1.037   3.883 -1.9610 -0.5340  0.9103
 7650TIP3    H222915   3.115   1.053   3.984 -0.0484 -1.1149 -1.0363
 7651TIP3   OH222916   3.323   3.961   1.492  0.3856  0.0664  0.1253
 7651TIP3    H122917   3.265   3.884   1.493 -0.2069  0.5125  0.4582
 7651TIP3    H222918   3.270   4.032   1.528  1.3643  0.3357  1.0787
 7652TIP3   OH222919   2.701   6.333   3.847 -0.1097  0.3799  0.0725
 7652TIP3    H122920   2.609   6.309   3.854  0.5119 -2.2310  0.3765
 7652TIP3    H222921   2.748   6.250   3.856  2.3288  1.7505  0.9919
 7653TIP3   OH222922   2.913   4.039   3.849 -0.3916  0.1007 -0.8926
 7653TIP3    H122923   2.958   4.092   3.914  0.2906  1.6261 -2.5143
 7653TIP3    H222924   2.969   3.962   3.838 -0.9100 -0.5565  0.8178
 7654TIP3   OH222925   3.184   2.239   2.532 -0.3485 -0.0282 -0.4891
 7654TIP3    H122926   3.096   2.275   2.545 -0.7106 -0.6351 -1.1659
 7654TIP3    H222927   3.169   2.154   2.490  0.5833  0.1293 -1.1832
 7655TIP3   OH222928   4.528   4.827   4.041 -0.3887  0.0249  0.3974
 7655TIP3    H122929   4.554   4.918   4.054 -1.2216  0.2066  0.8803
 7655TIP3    H222930   4.457   4.832   3.977 -0.4674 -0.2847  0.4598
 7656TIP3   OH222931   4.231   6.441   2.103 -0.7492  0.1308 -0.3396
 7656TIP3    H122932   4.287   6.386   2.048 -0.5915 -1.9035  1.7030
 7656TIP3    H222933   4.143   6.406   2.090 -0.5791 -1.0659  1.3698
 7657TIP3   OH222934   0.232   3.666   1.033 -0.3267  0.3894 -0.4688
 7657TIP3    H122935   0.263   3.689   0.946  1.3964 -1.7880 -0.5155
 7657TIP3    H222936   0.178   3.741   1.060  1.2816  2.3370 -2.2989
 7658TIP3   OH222937   3.334   4.612   3.150 -0.4984 -0.3765  0.2507
 7658TIP3    H122938   3.304   4.598   3.060 -0.6968  0.6307  0.1415
 7658TIP3    H222939   3.338   4.707   3.159 -0.0770 -0.4702  1.1809
 7659TIP3   OH222940   1.457   0.576   1.478 -0.2030 -0.6687 -0.3042
 7659TIP3    H122941   1.534   0.542   1.524 -0.2879 -1.0737 -0.4571
 7659TIP3    H222942   1.493   0.631   1.408 -0.0736 -0.0402  0.2422
 7660TIP3   OH222943   3.113   1.412   0.803 -0.0499  0.2417 -0.0056
 7660TIP3    H122944   3.024   1.399   0.770  0.2328 -0.7061 -0.4401
 7660TIP3    H222945   3.164   1.436   0.725  0.1360  0.4887  0.1895
 7661TIP3   OH222946   6.372   3.036   1.144 -0.0990  0.5025 -0.0133
 7661TIP3    H122947   6.467   3.045   1.135 -0.2073  1.7189 -0.1679
 7661TIP3    H222948   6.359   3.013   1.236  0.2840  2.0510  0.4708
 7662TIP3   OH222949   3.959   6.384   2.674  0.2715  0.4078  0.1652
 7662TIP3    H122950   3.979   6.466   2.628 -0.2189  0.5239  0.1429
 7662TIP3    H222951   3.923   6.327   2.606  1.8326 -0.3172 -0.0991
 7663TIP3   OH222952   6.188   4.374   3.239 -0.5992  0.0952 -0.4430
 7663TIP3    H122953   6.231   4.331   3.313 -2.1512  1.6153  1.4533
 7663TIP3    H222954   6.146   4.303   3.191  0.1925 -0.9029  0.3142
 7664TIP3   OH222955   3.364   0.396   0.608 -0.7308 -0.1858  0.0636
 7664TIP3    H122956   3.426   0.407   0.680 -2.3285  0.5118  1.3953
 7664TIP3    H222957   3.381   0.471   0.551  1.4031 -1.4142 -1.0227
 7665TIP3   OH222958   6.861   1.369   3.356 -0.5446 -0.9308  0.1013
 7665TIP3    H122959   6.803   1.299   3.387  1.3331 -1.9628  1.5085
 7665TIP3    H222960   6.882   1.420   3.434 -1.6693  1.1265 -0.8627
 7666TIP3   OH222961   0.801   3.736   4.514  0.9070 -0.4612  0.1411
 7666TIP3    H122962   0.720   3.687   4.529  0.1996  0.7113  0.2943
 7666TIP3    H222963   0.782   3.824   4.546  1.5425  0.3842 -1.6624
 7667TIP3   OH222964   7.062   2.582   5.126  0.2165 -0.2295 -0.0294
 7667TIP3    H122965   7.125   2.596   5.055 -0.5215  0.1018 -0.6351
 7667TIP3    H222966   7.097   2.508   5.176  0.2470 -1.1155 -1.3221
 7668TIP3   OH222967   0.072   2.030   4.742  0.0194  0.0950 -0.0072
 7668TIP3    H122968   0.131   2.055   4.814  1.1322 -1.5256 -0.3161
 7668TIP3    H222969   0.105   1.945   4.712 -2.6282 -1.0124 -0.0403
 7669TIP3   OH222970   1.307   0.126   5.029  0.1142  0.1421  0.2886
 7669TIP3    H122971   1.219   0.147   5.061 -0.0063 -1.1976  0.9356
 7669TIP3    H222972   1.361   0.121   5.108  0.3559 -0.8017  0.0828
 7670TIP3   OH222973   6.593   0.071   4.715  0.3268 -0.3814 -0.1021
 7670TIP3    H122974   6.531   0.142   4.729  2.5452  1.4612  0.8947
 7670TIP3    H222975   6.630   0.053   4.801 -0.2109 -2.8910 -0.2895
 7671TIP3   OH222976   2.580   1.326   5.090  0.6978  0.4675 -0.1443
 7671TIP3    H122977   2.529   1.407   5.086 -0.2922  0.1137  2.7712
 7671TIP3    H222978   2.517   1.257   5.067  1.4784  0.4250 -2.3965
 7672TIP3   OH222979   4.359   1.740   4.143  0.5252  0.9509  0.3375
 7672TIP3    H122980   4.298   1.721   4.071  0.8524  3.2489 -0.6492
 7672TIP3    H222981   4.308   1.794   4.204 -0.3390 -2.4987  2.9434
 7673TIP3   OH222982   5.044   6.779   3.892 -0.1606 -0.0704 -0.0420
 7673TIP3    H122983   4.973   6.842   3.883 -0.7177 -0.8606 -1.5516
 7673TIP3    H222984   5.012   6.715   3.956 -0.1299  0.4515  0.4984
 7674TIP3   OH222985   1.263   6.621   3.124 -0.9179  0.4501 -0.5589
 7674TIP3    H122986   1.304   6.604   3.040 -1.6339  0.0938 -0.8476
 7674TIP3    H222987   1.177   6.579   3.118 -0.3390 -1.0894  0.9691
 7675TIP3   OH222988   5.112   1.514   4.052  0.0345  0.7317 -0.7874
 7675TIP3    H122989   5.019   1.532   4.051 -0.1813 -0.3212 -1.3701
 7675TIP3    H222990   5.136   1.506   3.960  0.6970  1.0116 -0.6434
 7676TIP3   OH222991   5.459   1.567   5.777  0.2850 -0.0996  0.2948
 7676TIP3    H122992   5.425   1.653   5.799  2.7431  0.8275  0.7760
 7676TIP3    H222993   5.419   1.546   5.692 -1.4444  0.8355  0.8374
 7677TIP3   OH222994   0.386   6.662   5.022 -0.3413 -0.1031 -0.4583
 7677TIP3    H122995   0.478   6.661   5.048 -0.0678 -2.8107 -1.2093
 7677TIP3    H222996   0.338   6.661   5.105  0.3247 -0.0420 -0.0597
 7678TIP3   OH222997   4.948   4.634   2.497  0.9217 -0.5750 -0.1474
 7678TIP3    H122998   4.936   4.552   2.448  0.6338 -0.9418  0.5226
 7678TIP3    H222999   5.001   4.608   2.572  3.0347  0.3452 -1.2356
 7679TIP3   OH223000   5.961   1.053   0.982 -0.0625  0.2909  0.4718
 7679TIP3    H123001   5.871   1.037   1.009 -0.1947 -0.3014 -0.2742
 7679TIP3    H223002   6.013   0.986   1.027 -0.0227  0.4832  0.7154
 7680TIP3   OH223003   1.908   1.486   3.114 -0.1530  0.5696  0.3647
 7680TIP3    H123004   1.823   1.451   3.087 -0.4794  1.2595  0.4932
 7680TIP3    H223005   1.969   1.413   3.100 -0.3920  0.7216 -1.6963
 7681TIP3   OH223006   3.199   6.386   5.267  0.8514 -0.1958  0.0997
 7681TIP3    H123007   3.221   6.393   5.174  2.2271  1.1496  0.4922
 7681TIP3    H223008   3.148   6.305   5.273 -1.4432  0.9365 -2.2144
 7682TIP3   OH223009   0.897   1.382   4.135 -0.5200 -0.8211  0.2840
 7682TIP3    H123010   0.917   1.301   4.182 -0.5215 -0.1344  1.5020
 7682TIP3    H223011   0.875   1.353   4.046 -0.7827 -2.1696  0.7648
 7683TIP3   OH223012   6.552   3.894   0.440  0.1533 -0.0310  0.5369
 7683TIP3    H123013   6.475   3.920   0.389 -0.6081  0.4412  1.8735
 7683TIP3    H223014   6.543   3.800   0.451  0.5421 -0.2027 -0.5261
 7684TIP3   OH223015   4.600   2.931   0.367 -0.0926  0.5417 -0.5660
 7684TIP3    H123016   4.669   2.975   0.316  1.4079 -0.0656  0.8531
 7684TIP3    H223017   4.570   2.997   0.429  1.0212  0.0992  0.4846
 7685TIP3   OH223018   2.295   0.239   1.613 -0.4745 -0.2461 -0.4040
 7685TIP3    H123019   2.221   0.197   1.658  0.0046 -1.2252 -0.5010
 7685TIP3    H223020   2.254   0.294   1.546 -1.1812  0.9052  0.9110
 7686TIP3   OH223021   4.849   4.828   4.234 -0.2522 -0.3302  0.6092
 7686TIP3    H123022   4.777   4.873   4.277  0.8521  0.1495  2.0220
 7686TIP3    H223023   4.915   4.895   4.222  0.2908 -0.9439  0.0869
 7687TIP3   OH223024   5.546   0.851   2.342  0.1357  0.0763 -0.5123
 7687TIP3    H123025   5.598   0.894   2.275  1.5627  1.9192  1.6165
 7687TIP3    H223026   5.558   0.757   2.325 -0.4157  0.4435 -3.3601
 7688TIP3   OH223027   3.131   5.030   4.435 -0.0113 -0.1869 -0.2417
 7688TIP3    H123028   3.143   4.936   4.423  0.5376  0.1393 -2.9804
 7688TIP3    H223029   3.186   5.070   4.367 -1.2035  2.0774  0.0143
 7689TIP3   OH223030   6.877   2.778   0.775  0.0803  0.0815  0.1064
 7689TIP3    H123031   6.955   2.797   0.725  0.0311 -1.2583 -0.5362
 7689TIP3    H223032   6.883   2.684   0.793 -0.2373  0.3962  2.0488
 7690TIP3   OH223033   5.142   3.868   2.815  0.2621  0.0663 -0.0539
 7690TIP3    H123034   5.187   3.872   2.899 -2.4206 -1.0865  1.5600
 7690TIP3    H223035   5.123   3.959   2.793  1.1267  0.3847  0.4623
 7691TIP3   OH223036   3.158   6.783   2.023  0.5427  0.1300 -0.0294
 7691TIP3    H123037   3.150   6.868   2.066 -0.4241  0.1928 -0.3052
 7691TIP3    H223038   3.145   6.719   2.094 -0.5548  0.2319 -0.1210
 7692TIP3   OH223039   4.201   0.901   4.717  0.3841 -0.3766 -0.1474
 7692TIP3    H123040   4.109   0.928   4.711  0.5273  0.2119  0.2683
 7692TIP3    H223041   4.238   0.955   4.787  0.8775 -1.0871  0.1614
 7693TIP3   OH223042   5.355   1.051   4.925 -0.3396  0.8595 -0.2883
 7693TIP3    H123043   5.367   0.991   4.998 -2.1594  2.6406  1.5877
 7693TIP3    H223044   5.427   1.114   4.933  0.1664  0.3615 -0.8054
 7694TIP3   OH223045   4.264   6.262   0.762 -0.4546  0.0624  0.5043
 7694TIP3    H123046   4.292   6.317   0.689 -1.2555 -2.2322 -1.6598
 7694TIP3    H223047   4.337   6.203   0.778 -1.3639 -1.4147 -0.5358
 7695TIP3   OH223048   6.294   2.400   0.148 -0.7850  0.1365  0.1182
 7695TIP3    H123049   6.371   2.450   0.176 -0.8262 -1.0536  2.6123
 7695TIP3    H223050   6.329   2.317   0.117 -1.0065 -0.3784  1.1885
 7696TIP3   OH223051   1.401   2.463   1.829  0.1873 -0.1287  0.0636
 7696TIP3    H123052   1.479   2.491   1.782  0.9306  0.8432  1.7578
 7696TIP3    H223053   1.330   2.515   1.791  0.9722  1.5566  0.7791
 7697TIP3   OH223054   1.483   2.197   1.870 -0.3906  0.0088 -0.1077
 7697TIP3    H123055   1.460   2.290   1.872  0.1486  0.1778 -1.1097
 7697TIP3    H223056   1.444   2.164   1.789  2.3718  0.1924 -1.6292
 7698TIP3   OH223057   1.578   3.683   2.950  0.3348 -0.5972  0.1953
 7698TIP3    H123058   1.612   3.652   2.866  0.7800 -0.7672  0.4371
 7698TIP3    H223059   1.581   3.778   2.943  0.5736 -0.6108  0.0975
 7699TIP3   OH223060   5.365   2.814   2.376 -0.2710  0.0791 -0.0965
 7699TIP3    H123061   5.438   2.801   2.436 -1.0491  0.6372  1.0020
 7699TIP3    H223062   5.398   2.877   2.311  0.5307 -0.4344 -0.2070
 7700TIP3   OH223063   6.660   2.944   0.774  0.1861 -0.0499  0.3815
 7700TIP3    H123064   6.716   2.911   0.844 -0.9695 -0.7473  1.0124
 7700TIP3    H223065   6.710   2.931   0.694  1.2081  0.0229  0.9907
 7701TIP3   OH223066   0.408   3.892   1.754 -0.1178  0.2629 -0.1497
 7701TIP3    H123067   0.470   3.875   1.684 -0.2076 -1.7186  0.2012
 7701TIP3    H223068   0.335   3.937   1.712 -0.2655 -1.0798 -1.3845
 7702TIP3   OH223069   5.734   5.394   2.253 -0.1389 -0.5451  0.4918
 7702TIP3    H123070   5.817   5.418   2.293 -0.1448  1.8560 -0.7219
 7702TIP3    H223071   5.671   5.456   2.290 -0.4966  0.4886 -1.6670
 7703TIP3   OH223072   6.848   3.721   3.139 -0.0666  0.1364  0.0566
 7703TIP3    H123073   6.933   3.675   3.135  0.3630  0.9408 -0.4242
 7703TIP3    H223074   6.819   3.710   3.229  0.5505 -0.1559  0.2293
 7704TIP3   OH223075   3.615   4.131   3.427  0.0065 -0.0280 -0.1244
 7704TIP3    H123076   3.667   4.066   3.474 -1.0242 -1.2227 -0.5383
 7704TIP3    H223077   3.604   4.203   3.488 -0.3558 -1.0583  1.0715
 7705TIP3   OH223078   0.494   2.338   5.092  0.7026  0.1535 -0.9260
 7705TIP3    H123079   0.468   2.247   5.082 -0.3392  0.3883 -0.4137
 7705TIP3    H223080   0.457   2.382   5.015 -0.0198  0.3931 -0.4539
 7706TIP3   OH223081   0.391   2.104   4.998  0.0783 -0.1482 -0.1178
 7706TIP3    H123082   0.301   2.121   4.971  0.3405  2.0433  0.2480
 7706TIP3    H223083   0.391   2.012   5.026 -2.4021  0.2022  1.2899
 7707TIP3   OH223084   1.564   6.710   3.262 -0.4462 -0.0183  0.0704
 7707TIP3    H123085   1.489   6.769   3.274 -0.6922 -0.2006 -0.5451
 7707TIP3    H223086   1.631   6.765   3.221 -0.1903  0.1779  0.7373
 7708TIP3   OH223087   2.841   6.460   3.411  0.5444  0.8538  0.5303
 7708TIP3    H123088   2.910   6.524   3.428  0.8013  0.8247 -0.3713
 7708TIP3    H223089   2.883   6.394   3.356 -0.0348  0.5099  0.4935
 7709TIP3   OH223090   3.262   2.812   2.541 -0.2952  0.4878  0.4565
 7709TIP3    H123091   3.333   2.816   2.605 -0.1713 -0.5708  0.4011
 7709TIP3    H223092   3.189   2.858   2.582 -0.3074 -0.4007  1.4829
 7710TIP3   OH223093   2.604   0.615   4.917  0.5308 -0.1351 -0.1036
 7710TIP3    H123094   2.581   0.648   5.004 -1.0932  0.7287 -0.8150
 7710TIP3    H223095   2.547   0.663   4.857  2.4693  0.2066 -1.7936
 7711TIP3   OH223096   0.557   4.586   1.004 -0.7616  0.3873  0.0110
 7711TIP3    H123097   0.485   4.641   1.035  0.0292  0.9392  0.9249
 7711TIP3    H223098   0.593   4.634   0.929 -1.6744 -0.1677 -0.8108
 7712TIP3   OH223099   1.655   6.255   2.612 -0.9680 -0.4518 -0.6523
 7712TIP3    H123100   1.621   6.192   2.548 -1.4245 -1.1646  0.2578
 7712TIP3    H223101   1.595   6.329   2.607 -0.4694 -0.1016 -1.6868
 7713TIP3   OH223102   1.743   4.533   0.648  0.6372 -0.3614 -0.4198
 7713TIP3    H123103   1.743   4.437   0.649  0.4786 -0.3948 -1.9258
 7713TIP3    H223104   1.834   4.557   0.632  0.4730 -0.3034 -1.3161
 7714TIP3   OH223105   0.347   3.492   0.293 -0.1990  1.1376 -0.6459
 7714TIP3    H123106   0.433   3.460   0.268 -0.2983  1.2273 -1.1060
 7714TIP3    H223107   0.355   3.510   0.387  0.1183  0.6238 -0.5664
 7715TIP3   OH223108   4.563   2.379   2.823  0.4436  0.7590 -0.3297
 7715TIP3    H123109   4.532   2.341   2.741  1.1023  1.7525 -1.0559
 7715TIP3    H223110   4.640   2.328   2.846  0.3675  0.5981 -0.4331
 7716TIP3   OH223111   5.266   4.574   1.209  0.5162  0.5982  0.0983
 7716TIP3    H123112   5.310   4.624   1.141  1.4441 -1.8754 -1.2613
 7716TIP3    H223113   5.336   4.534   1.260 -0.1734 -0.0040  0.6079
 7717TIP3   OH223114   1.301   5.595   5.347  0.4266  0.4021 -0.2100
 7717TIP3    H123115   1.320   5.599   5.253 -0.4591 -0.4292 -0.4428
 7717TIP3    H223116   1.266   5.506   5.361  2.5413 -0.2784  1.3009
 7718TIP3   OH223117   1.537   5.989   1.673 -0.6970 -0.1747 -0.0652
 7718TIP3    H123118   1.624   5.948   1.673  0.4659  2.1058 -0.4751
 7718TIP3    H223119   1.553   6.078   1.641 -2.7768  1.1410  2.2436
 7719TIP3   OH223120   2.734   5.858   2.931  0.1073 -0.0104 -0.0666
 7719TIP3    H123121   2.791   5.819   2.865 -1.2739 -1.5866 -0.3933
 7719TIP3    H223122   2.763   5.818   3.013  1.8683  1.9989  0.3676
 7720TIP3   OH223123   1.043   3.790   4.623  0.6919  0.2252  0.1648
 7720TIP3    H123124   1.059   3.879   4.592 -0.2089  0.2524 -0.2648
 7720TIP3    H223125   0.950   3.774   4.604 -0.0981  0.4323  3.3589
 7721TIP3   OH223126   0.547   3.920   2.311 -0.3986  0.6990 -0.2746
 7721TIP3    H123127   0.568   3.991   2.249 -1.9611  0.7240 -0.8229
 7721TIP3    H223128   0.501   3.964   2.382  1.3870  0.6662  0.9653
 7722TIP3   OH223129   2.805   5.041   4.315 -0.2931 -0.7086 -0.0469
 7722TIP3    H123130   2.789   4.971   4.378  0.9858 -0.2791  0.7982
 7722TIP3    H223131   2.896   5.066   4.329 -0.7569  1.2722 -0.1697
 7723TIP3   OH223132   2.597   5.691   3.857 -0.0069 -0.1822 -0.0961
 7723TIP3    H123133   2.648   5.685   3.938  0.8855 -0.0175 -0.6349
 7723TIP3    H223134   2.656   5.732   3.794 -0.4522 -0.9047 -1.0181
 7724TIP3   OH223135   2.121   0.951   1.168 -0.1589 -0.0618 -0.2312
 7724TIP3    H123136   2.191   1.017   1.164  1.1359 -1.2598  1.0644
 7724TIP3    H223137   2.055   0.981   1.106  0.3920  2.4175  0.2839
 7725TIP3   OH223138   6.662   4.207   0.938 -0.2663  0.1496  0.1381
 7725TIP3    H123139   6.740   4.232   0.888 -2.1233  2.8469 -1.6906
 7725TIP3    H223140   6.644   4.117   0.911  2.1015 -0.5068  0.5340
 7726TIP3   OH223141   7.068   5.455   0.825 -0.1252  0.2140  0.4610
 7726TIP3    H123142   7.022   5.493   0.750  0.0862 -2.5599 -1.2081
 7726TIP3    H223143   7.137   5.519   0.846 -0.7252  1.4549 -1.1369
 7727TIP3   OH223144   5.264   4.890   3.875 -0.5966  0.0635 -0.4041
 7727TIP3    H123145   5.200   4.827   3.908  1.8799 -2.5440 -0.1610
 7727TIP3    H223146   5.318   4.911   3.952  0.4155  0.1787 -1.1311
 7728TIP3   OH223147   3.470   0.511   1.997 -0.3290 -0.3513 -0.0277
 7728TIP3    H123148   3.400   0.540   2.055 -0.0630 -1.7828  1.0688
 7728TIP3    H223149   3.474   0.416   2.010  1.0276 -0.4457 -0.9530
 7729TIP3   OH223150   2.642   6.569   3.696 -0.0375  0.1254 -0.1421
 7729TIP3    H123151   2.558   6.574   3.650 -0.8876 -1.1759  1.1700
 7729TIP3    H223152   2.640   6.484   3.740  1.8615  0.1952  0.1678
 7730TIP3   OH223153   4.633   4.895   3.648 -0.0239 -0.3402 -0.3103
 7730TIP3    H123154   4.726   4.869   3.645 -0.3040 -1.3243 -2.2636
 7730TIP3    H223155   4.628   4.971   3.591 -0.7102 -1.4800 -1.8321
 7731TIP3   OH223156   4.253   1.106   3.282 -0.1285  0.3903  0.4207
 7731TIP3    H123157   4.332   1.151   3.253 -0.1013 -1.3180 -2.5349
 7731TIP3    H223158   4.284   1.039   3.343  0.4000  1.1850  1.0403
 7732TIP3   OH223159   3.702   6.611   4.381  0.4273  0.5463  0.2444
 7732TIP3    H123160   3.654   6.694   4.379 -1.4212 -0.4918 -0.0890
 7732TIP3    H223161   3.727   6.600   4.473 -1.4055  0.3364  0.7418
 7733TIP3   OH223162   5.297   5.880   2.702 -0.0879 -0.5691 -0.1573
 7733TIP3    H123163   5.243   5.812   2.742 -0.5142  0.4532  1.0833
 7733TIP3    H223164   5.235   5.943   2.667  0.2995 -0.4402 -0.6171
 7734TIP3   OH223165   1.597   1.644   1.542  0.4709  0.3499  0.1825
 7734TIP3    H123166   1.533   1.574   1.552  0.4390  0.4006  0.3358
 7734TIP3    H223167   1.573   1.708   1.609  1.0896  0.0615  0.6887
 7735TIP3   OH223168   0.738   1.151   2.718  0.3494  0.6169  0.0735
 7735TIP3    H123169   0.761   1.124   2.807 -1.8127 -1.8661  0.0090
 7735TIP3    H223170   0.649   1.186   2.727 -0.7376 -1.5463 -1.2812
 7736TIP3   OH223171   0.744   1.355   5.272 -0.0794 -0.2357 -0.5688
 7736TIP3    H123172   0.737   1.450   5.283 -2.1001 -0.3587 -0.3507
 7736TIP3    H223173   0.714   1.340   5.182 -0.9833 -0.7421 -0.1995
 7737TIP3   OH223174   5.863   3.654   1.137  0.5570  0.2923 -0.1086
 7737TIP3    H123175   5.904   3.715   1.198  2.0870 -0.5758 -0.2318
 7737TIP3    H223176   5.933   3.596   1.109 -0.0256  0.6886 -2.7592
 7738TIP3   OH223177   6.964   0.790   5.547 -0.0920  0.9095  0.5528
 7738TIP3    H123178   6.945   0.807   5.640  1.0785  2.0248  0.6248
 7738TIP3    H223179   6.942   0.872   5.503 -0.6163  0.3924 -0.1698
 7739TIP3   OH223180   1.125   2.120   0.792 -0.1020  0.5121  0.9816
 7739TIP3    H123181   1.066   2.073   0.851 -0.8126  1.0313  0.6856
 7739TIP3    H223182   1.068   2.171   0.735  0.6543  1.8024  1.3298
 7740TIP3   OH223183   3.993   6.441   5.551  0.0281  0.0874  0.1392
 7740TIP3    H123184   3.946   6.361   5.575  1.4376 -0.9562 -0.4141
 7740TIP3    H223185   3.948   6.511   5.598 -1.6862 -0.9277  0.0598
 7741TIP3   OH223186   0.549   2.551   0.587 -0.5498 -0.6407 -0.6525
 7741TIP3    H123187   0.488   2.553   0.660  0.8341  1.5973  0.5566
 7741TIP3    H223188   0.498   2.582   0.512 -1.4328 -0.9458 -0.1864
 7742TIP3   OH223189   0.247   5.984   0.820 -0.7156 -0.3670 -0.0323
 7742TIP3    H123190   0.194   5.942   0.888 -0.0308 -0.4439  0.4672
 7742TIP3    H223191   0.327   5.931   0.816 -0.7335 -0.3376 -0.8750
 7743TIP3   OH223192   2.854   1.997   2.280  0.0085  0.0100  0.1832
 7743TIP3    H123193   2.867   2.092   2.281  0.2905 -0.0301  0.5912
 7743TIP3    H223194   2.759   1.986   2.274 -0.1513  0.3344  1.6826
 7744TIP3   OH223195   3.307   4.013   4.758 -0.5575  0.2239 -0.0777
 7744TIP3    H123196   3.299   4.034   4.665 -0.3107 -3.1858 -1.0239
 7744TIP3    H223197   3.400   4.022   4.777 -0.3684 -0.5237 -0.6069
 7745TIP3   OH223198   3.750   2.492   3.620 -0.3331  0.3944  0.0738
 7745TIP3    H123199   3.840   2.469   3.642 -0.0748  1.4864  0.2458
 7745TIP3    H223200   3.731   2.442   3.541 -0.2848 -1.3798  1.1298
 7746TIP3   OH223201   6.875   3.649   0.203 -0.2821 -0.3237 -0.2681
 7746TIP3    H123202   6.893   3.737   0.236  0.1917 -0.4622 -0.1383
 7746TIP3    H223203   6.881   3.594   0.281 -1.4489 -0.3614 -0.1965
 7747TIP3   OH223204   0.294   2.684   4.198  0.0118  0.2799  1.0140
 7747TIP3    H123205   0.301   2.651   4.287  1.4143 -0.5192  0.6458
 7747TIP3    H223206   0.365   2.748   4.190 -0.6474  0.9979  0.7249
 7748TIP3   OH223207   5.624   2.582   3.780 -0.5306  0.9169 -0.2322
 7748TIP3    H123208   5.689   2.648   3.804  1.4803 -1.6599  2.0994
 7748TIP3    H223209   5.547   2.604   3.833  0.2376  1.2262  0.7869
 7749TIP3   OH223210   6.200   0.162   2.254  0.3792 -0.4680 -0.1245
 7749TIP3    H123211   6.168   0.252   2.258 -0.0553 -0.6320  0.1520
 7749TIP3    H223212   6.122   0.109   2.238  0.7362 -0.7325 -1.0327
 7750TIP3   OH223213   7.058   4.375   4.908  0.0401  0.3426  0.1882
 7750TIP3    H123214   7.029   4.416   4.826  2.0470 -0.3802 -0.9790
 7750TIP3    H223215   7.023   4.431   4.977 -1.3413  1.2375 -1.1690
 7751TIP3   OH223216   5.163   0.239   2.028  0.0149 -0.1487  1.2937
 7751TIP3    H123217   5.166   0.172   2.097  1.0702 -0.0544  1.3623
 7751TIP3    H223218   5.194   0.193   1.949 -0.0307  0.0552  1.1575
 7752TIP3   OH223219   7.236   5.222   3.506 -0.9878 -0.1117 -0.6437
 7752TIP3    H123220   7.239   5.312   3.475  1.3103  0.3411  0.6592
 7752TIP3    H223221   7.168   5.222   3.573 -0.0747  1.0203  0.3125
 7753TIP3   OH223222   2.186   1.226   1.081 -0.1118  0.4551  0.6287
 7753TIP3    H123223   2.137   1.262   1.156 -0.3617 -0.9255  1.1716
 7753TIP3    H223224   2.260   1.285   1.070 -1.6061  2.3036  0.1282
 7754TIP3   OH223225   5.461   1.157   0.988 -0.0052 -0.1615 -1.1244
 7754TIP3    H123226   5.392   1.216   1.019  1.2258  0.3266  0.9064
 7754TIP3    H223227   5.542   1.203   1.009  0.9699 -1.9733 -0.7481
 7755TIP3   OH223228   1.143   1.956   5.551  0.1662 -0.6816 -0.1528
 7755TIP3    H123229   1.085   2.031   5.559  0.9350 -0.2359  1.9213
 7755TIP3    H223230   1.085   1.881   5.539 -0.7278 -0.0091 -0.0816
 7756TIP3   OH223231   2.120   4.621   2.590  0.1845  0.3312 -1.2192
 7756TIP3    H123232   2.029   4.629   2.560  0.3634  0.0664 -1.8488
 7756TIP3    H223233   2.116   4.643   2.683 -0.6929 -0.6578 -0.9961
 7757TIP3   OH223234   2.852   0.526   1.493  0.0867 -0.0209  0.2575
 7757TIP3    H123235   2.886   0.443   1.525 -0.7173 -0.5135 -0.1303
 7757TIP3    H223236   2.757   0.519   1.502 -0.0515  0.4925 -0.6095
 7758TIP3   OH223237   0.649   2.830   5.006 -0.7281 -0.6750 -0.4316
 7758TIP3    H123238   0.725   2.803   5.057  0.1740  2.6224  0.1955
 7758TIP3    H223239   0.668   2.801   4.917  1.3173  0.1071 -0.2926
 7759TIP3   OH223240   1.927   0.363   3.443  0.5583 -0.2782 -0.2516
 7759TIP3    H123241   1.864   0.292   3.460  1.1827 -0.6112  0.7484
 7759TIP3    H223242   1.952   0.351   3.351 -0.6295 -0.3013 -0.5870
 7760TIP3   OH223243   5.681   2.475   0.726 -0.6791  0.4348  0.0103
 7760TIP3    H123244   5.712   2.564   0.708  2.0269 -0.7414 -1.9544
 7760TIP3    H223245   5.729   2.448   0.805 -0.6295  0.3548 -0.0462
 7761TIP3   OH223246   3.079   6.094   0.809  0.6729 -0.0784 -0.4125
 7761TIP3    H123247   3.147   6.120   0.871 -3.3618  0.3570  4.4593
 7761TIP3    H223248   3.098   6.002   0.789  2.5210 -0.0416  0.9735
 7762TIP3   OH223249   3.831   5.428   2.418  0.2859  0.4997  0.3220
 7762TIP3    H123250   3.894   5.356   2.432 -0.1213  0.3504  1.5017
 7762TIP3    H223251   3.764   5.414   2.484 -0.6831  1.0227 -0.5224
 7763TIP3   OH223252   3.671   3.088   0.101 -0.0146  0.0684 -0.1143
 7763TIP3    H123253   3.618   3.152   0.149  1.0607  0.9386 -0.0410
 7763TIP3    H223254   3.714   3.036   0.168  0.2396  0.2290 -0.1503
 7764TIP3   OH223255   4.043   4.209   5.608 -0.6979  0.2489  0.0024
 7764TIP3    H123256   4.010   4.119   5.614  0.0312 -0.0134  0.2069
 7764TIP3    H223257   4.139   4.199   5.607 -0.5120  1.1325  2.4011
 7765TIP3   OH223258   7.209   6.568   4.510 -0.7613  0.1437  0.0036
 7765TIP3    H123259   7.165   6.603   4.587  0.4691 -1.0870  1.3148
 7765TIP3    H223260   7.199   6.473   4.518  0.9327 -0.0873 -0.3717
 7766TIP3   OH223261   3.360   6.775   1.341 -0.5670 -0.1276 -0.4212
 7766TIP3    H123262   3.386   6.783   1.249  1.0571  2.7201  0.1569
 7766TIP3    H223263   3.418   6.708   1.377  0.7723  0.7752 -0.8572
 7767TIP3   OH223264   5.097   6.741   3.593 -0.0948  0.5124 -0.5695
 7767TIP3    H123265   5.006   6.715   3.579  0.3291 -0.6193 -1.3194
 7767TIP3    H223266   5.105   6.748   3.688 -0.8316  0.1642 -0.4722
 7768TIP3   OH223267   3.697   5.142   4.510  0.2444  0.0362 -0.2143
 7768TIP3    H123268   3.604   5.129   4.526  0.3873 -1.9647 -0.8010
 7768TIP3    H223269   3.701   5.222   4.456 -1.3231 -0.9498 -1.9003
 7769TIP3   OH223270   1.294   3.766   4.135  0.6307 -0.4065  0.4279
 7769TIP3    H123271   1.302   3.856   4.103  0.3852 -0.0271  1.4146
 7769TIP3    H223272   1.354   3.716   4.079  0.0527  0.1905 -0.7614
 7770TIP3   OH223273   4.400   0.595   5.029 -0.7044 -0.1467 -0.2128
 7770TIP3    H123274   4.355   0.667   4.984  0.9880  1.1929  0.0893
 7770TIP3    H223275   4.407   0.625   5.120  0.5185 -0.4130 -0.1989
 7771TIP3   OH223276   1.020   1.311   0.741 -0.1468 -0.4221  0.3078
 7771TIP3    H123277   0.978   1.288   0.658  0.0216  0.5284 -0.0610
 7771TIP3    H223278   1.099   1.358   0.716 -1.4562  2.3532  0.9196
 7772TIP3   OH223279   2.317   3.019   2.922  0.0758  1.1219  0.3603
 7772TIP3    H123280   2.261   3.059   2.856 -0.6771  1.0053  0.9127
 7772TIP3    H223281   2.271   2.939   2.948  2.3259 -1.1232 -1.9295
 7773TIP3   OH223282   0.459   0.797   1.781  0.2087 -0.2962 -0.2429
 7773TIP3    H123283   0.531   0.788   1.843 -0.8648 -2.5159  0.8167
 7773TIP3    H223284   0.493   0.854   1.712  1.6522  1.7889  2.0549
 7774TIP3   OH223285   2.990   6.447   4.375 -0.0300  0.0203 -0.1671
 7774TIP3    H123286   2.950   6.523   4.332  0.5877 -0.2167 -1.1923
 7774TIP3    H223287   2.974   6.461   4.468 -0.8348  0.8800 -0.4224
 7775TIP3   OH223288   1.847   4.804   2.680  0.1596 -0.0111  0.4074
 7775TIP3    H123289   1.928   4.853   2.695  1.2729 -1.3034 -1.0316
 7775TIP3    H223290   1.828   4.764   2.765  0.2846  1.3162  1.0973
 7776TIP3   OH223291   6.465   4.891   1.605  0.0216  0.0426 -0.2359
 7776TIP3    H123292   6.373   4.869   1.620  0.5013 -1.7068  0.4185
 7776TIP3    H223293   6.462   4.966   1.546 -1.8093 -1.0951 -1.7140
 7777TIP3   OH223294   4.837   2.064   4.123  0.1654  0.6375 -0.3535
 7777TIP3    H123295   4.862   2.067   4.031  0.1636 -0.2591 -0.3917
 7777TIP3    H223296   4.807   2.153   4.142 -0.2122  0.7384 -1.3273
 7778TIP3   OH223297   5.893   5.470   4.454 -0.0401  0.3563 -0.0016
 7778TIP3    H123298   5.977   5.495   4.414  0.7504 -2.7069 -0.5464
 7778TIP3    H223299   5.837   5.449   4.379  0.0242 -1.2950  0.3801
 7779TIP3   OH223300   1.757   5.394   2.110 -0.1400  0.3453  0.0528
 7779TIP3    H123301   1.808   5.466   2.147 -2.0011  1.7645  0.0103
 7779TIP3    H223302   1.695   5.437   2.051 -0.5559 -1.4158 -0.8646
 7780TIP3   OH223303   2.479   0.117   5.788  0.0261 -0.0477 -0.4994
 7780TIP3    H123304   2.537   0.060   5.737  0.2923 -0.9052  0.7062
 7780TIP3    H223305   2.498   0.205   5.756  2.1273 -0.2842 -0.0455
 7781TIP3   OH223306   5.977   0.151   3.467 -0.3058 -0.3555  0.5537
 7781TIP3    H123307   5.976   0.056   3.467 -1.5278 -0.5659 -4.2378
 7781TIP3    H223308   5.891   0.176   3.502 -0.5832 -1.0825  0.4101
 7782TIP3   OH223309   2.141   0.330   3.638  0.1637 -0.2379  0.0044
 7782TIP3    H123310   2.047   0.325   3.655  0.2546  1.1405  1.1472
 7782TIP3    H223311   2.168   0.412   3.681  1.2152  1.4162 -3.4595
 7783TIP3   OH223312   4.262   0.102   0.430  0.1736 -0.4200 -0.2065
 7783TIP3    H123313   4.315   0.149   0.366 -0.0516 -0.3652 -0.3571
 7783TIP3    H223314   4.227   0.171   0.487 -1.0116 -0.2805 -1.0646
 7784TIP3   OH223315   1.343   1.157   2.789  0.5523 -0.1258  0.4159
 7784TIP3    H123316   1.367   1.226   2.850  0.3995  0.3883 -0.1027
 7784TIP3    H223317   1.355   1.076   2.839  0.0338  0.3070  1.2547
 7785TIP3   OH223318   4.070   1.962   2.879  0.3263 -0.3894 -0.2372
 7785TIP3    H123319   4.102   1.997   2.962 -0.9833 -0.6663  0.4045
 7785TIP3    H223320   4.077   2.035   2.818 -2.9440  1.3508  1.2089
 7786TIP3   OH223321   5.183   5.023   4.668  0.3223  0.1338  0.1776
 7786TIP3    H123322   5.218   5.035   4.756 -1.7254  1.3436  0.9107
 7786TIP3    H223323   5.161   5.111   4.638 -1.0023 -0.4292 -0.6431
 7787TIP3   OH223324   1.837   1.525   5.549 -0.1967  0.2249  0.0884
 7787TIP3    H123325   1.784   1.451   5.576  0.1135 -0.3142 -0.7470
 7787TIP3    H223326   1.927   1.497   5.563 -0.0218 -0.0825 -1.4543
 7788TIP3   OH223327   3.125   4.997   2.760  0.5627  0.2489  0.2263
 7788TIP3    H123328   3.088   4.972   2.845  1.1851  0.5410  0.5906
 7788TIP3    H223329   3.055   5.044   2.716  0.6756  1.2891  1.1355
 7789TIP3   OH223330   7.086   5.991   2.007 -0.1829 -0.7977 -0.1981
 7789TIP3    H123331   7.071   6.075   2.049 -0.0438 -0.8152 -0.1111
 7789TIP3    H223332   7.140   5.942   2.069 -1.7059 -1.6161  0.5448
 7790TIP3   OH223333   4.587   2.654   0.362 -0.5498  0.0465  0.3135
 7790TIP3    H123334   4.589   2.636   0.268  0.6807  0.2362  0.2874
 7790TIP3    H223335   4.591   2.749   0.369  0.4235 -0.0074  0.5693
 7791TIP3   OH223336   2.382   3.566   2.278 -0.2128  0.3891  0.4409
 7791TIP3    H123337   2.392   3.584   2.372 -2.1267 -0.1226  0.8041
 7791TIP3    H223338   2.379   3.653   2.238 -0.1331  0.6369  0.9558
 7792TIP3   OH223339   6.642   6.182   4.293  0.1596 -0.2160  0.0537
 7792TIP3    H123340   6.633   6.107   4.234  2.8732 -0.4398 -0.2098
 7792TIP3    H223341   6.712   6.235   4.255 -0.4399  1.5175  1.2167
 7793TIP3   OH223342   1.311   3.798   0.554  0.1207  0.1339  0.1225
 7793TIP3    H123343   1.353   3.712   0.546 -1.2068 -0.3929 -3.1452
 7793TIP3    H223344   1.234   3.782   0.608 -0.0515 -0.7702 -0.3579
 7794TIP3   OH223345   3.864   3.899   3.997 -0.1716  0.0222 -0.1471
 7794TIP3    H123346   3.774   3.912   3.966 -0.7185  0.0922  1.3505
 7794TIP3    H223347   3.919   3.935   3.928 -1.3330  0.7994 -0.7028
 7795TIP3   OH223348   4.444   1.437   3.940  0.6126  0.1305  0.5366
 7795TIP3    H123349   4.367   1.461   3.889  1.0306 -0.5752 -0.4441
 7795TIP3    H223350   4.487   1.520   3.959  0.8557  0.3693 -0.9238
 7796TIP3   OH223351   1.407   4.969   3.218 -0.3331  0.4278 -0.5579
 7796TIP3    H123352   1.441   4.896   3.168 -0.4955 -1.1752  1.5152
 7796TIP3    H223353   1.476   4.991   3.280 -1.5724 -0.3734  1.1936
 7797TIP3   OH223354   1.572   3.061   1.574 -0.3524 -0.1188 -0.1625
 7797TIP3    H123355   1.575   3.066   1.478 -1.6500 -0.4991 -0.2475
 7797TIP3    H223356   1.510   2.990   1.592  0.1739 -0.3127  0.9663
 7798TIP3   OH223357   2.264   3.510   4.339 -0.1891 -0.1040  0.2541
 7798TIP3    H123358   2.298   3.570   4.406 -2.9901  2.4037 -0.3124
 7798TIP3    H223359   2.195   3.461   4.383  0.1381 -0.8290 -0.0232
 7799TIP3   OH223360   3.939   2.101   5.636 -0.1054  0.3392 -0.0293
 7799TIP3    H123361   3.951   2.068   5.547  0.8785  0.6919 -0.0422
 7799TIP3    H223362   4.012   2.064   5.686  0.0415  1.0919  0.3432
 7800TIP3   OH223363   1.119   5.456   3.559 -0.0666 -0.3036 -0.0858
 7800TIP3    H123364   1.043   5.413   3.520 -1.7266 -0.1630  2.7179
 7800TIP3    H223365   1.083   5.534   3.601  2.0074  0.8820 -0.3764
 7801TIP3   OH223366   2.540   5.934   2.736  0.1802 -0.4104  0.2379
 7801TIP3    H123367   2.599   5.913   2.808 -2.3188 -1.9056  2.0027
 7801TIP3    H223368   2.507   6.021   2.758  0.6293 -0.1834  0.0223
 7802TIP3   OH223369   2.395   4.591   2.955  0.1473  0.2686  0.0878
 7802TIP3    H123370   2.341   4.559   3.027  0.4132 -1.9085 -0.5919
 7802TIP3    H223371   2.367   4.681   2.942 -1.0655  0.1913  1.8113
 7803TIP3   OH223372   4.954   2.218   3.535 -0.6213 -0.3308  0.0914
 7803TIP3    H123373   4.895   2.280   3.578 -0.6599  0.1800 -0.6724
 7803TIP3    H223374   5.040   2.259   3.539 -0.1939 -1.3076  1.6598
 7804TIP3   OH223375   0.405   1.153   0.149 -0.2241 -0.5069 -0.4740
 7804TIP3    H123376   0.435   1.201   0.225  1.4545  0.4533 -1.6740
 7804TIP3    H223377   0.336   1.208   0.111 -0.0787 -0.2928 -0.4291
 7805TIP3   OH223378   3.821   3.184   5.836 -0.1177  0.1859  0.6406
 7805TIP3    H123379   3.796   3.160   5.746  1.1556  0.9646  0.0465
 7805TIP3    H223380   3.896   3.127   5.855 -1.7301 -1.5854  2.1034
 7806TIP3   OH223381   0.027   0.872   4.997 -0.6259 -0.2528  0.0041
 7806TIP3    H123382   0.037   0.953   5.046 -0.7570 -0.2842  0.0852
 7806TIP3    H223383   0.108   0.863   4.948 -0.6075 -0.0771  0.0014
 7807TIP3   OH223384   2.266   6.442   2.886 -0.2925  0.5157 -0.2027
 7807TIP3    H123385   2.349   6.408   2.919  0.5167  2.0962 -0.4760
 7807TIP3    H223386   2.245   6.514   2.946 -0.9674  0.7481 -0.7042
 7808TIP3   OH223387   4.314   0.536   2.850  0.5302 -0.3273 -0.7407
 7808TIP3    H123388   4.274   0.494   2.774 -0.1689  1.5313 -1.4637
 7808TIP3    H223389   4.408   0.533   2.833  0.4369 -0.8205 -1.1820
 7809TIP3   OH223390   5.402   5.143   5.570 -0.0852  0.3397 -0.2578
 7809TIP3    H123391   5.407   5.236   5.550 -1.8088  0.0938 -2.2002
 7809TIP3    H223392   5.465   5.102   5.511 -0.1227  0.1721 -0.1819
 7810TIP3   OH223393   7.006   4.216   2.113  0.5541  0.0566  0.1364
 7810TIP3    H123394   6.918   4.181   2.125  0.5352  0.2204  0.4799
 7810TIP3    H223395   7.003   4.304   2.150  0.6620  0.3446 -0.5120
 7811TIP3   OH223396   6.417   0.936   5.809 -0.3363  0.4550  0.1463
 7811TIP3    H123397   6.478   0.981   5.750  0.7076 -0.7789  0.2369
 7811TIP3    H223398   6.331   0.950   5.769  0.2216  0.5724 -1.0790
 7812TIP3   OH223399   2.200   4.133   3.984 -0.0808 -0.0121 -0.4135
 7812TIP3    H123400   2.155   4.155   4.066  0.6172  3.5685 -0.8516
 7812TIP3    H223401   2.129   4.126   3.920 -0.4915 -1.2649  0.1336
 7813TIP3   OH223402   6.187   4.758   2.701 -0.0394  0.0662 -0.3924
 7813TIP3    H123403   6.209   4.724   2.615  0.4673 -1.2342  0.2225
 7813TIP3    H223404   6.107   4.809   2.687  0.8842  1.2187 -1.8888
 7814TIP3   OH223405   2.739   0.483   0.831  0.8587  0.1298  0.0182
 7814TIP3    H123406   2.784   0.401   0.809  2.4681  0.8987  0.2495
 7814TIP3    H223407   2.764   0.543   0.761 -2.3345 -0.1975 -1.5345
 7815TIP3   OH223408   1.176   4.316   5.544  0.4388 -0.0284 -0.5469
 7815TIP3    H123409   1.167   4.271   5.628 -0.2148 -0.0118 -0.6011
 7815TIP3    H223410   1.157   4.249   5.478 -0.2153  0.2407 -0.6374
 7816TIP3   OH223411   5.519   1.735   3.796 -0.4537  0.0109  0.5041
 7816TIP3    H123412   5.534   1.829   3.801  0.9371 -0.1511 -0.1337
 7816TIP3    H223413   5.559   1.700   3.876  2.3811 -0.3616 -0.9338
 7817TIP3   OH223414   4.699   0.913   0.193 -1.0408  0.0487 -0.4808
 7817TIP3    H123415   4.663   0.837   0.149 -1.3052 -1.2754  1.8362
 7817TIP3    H223416   4.634   0.935   0.260  1.5468 -1.4742  2.8316
 7818TIP3   OH223417   0.338   0.119   5.877 -0.3140 -0.2871  0.5330
 7818TIP3    H123418   0.309   0.035   5.841 -0.6772  0.1482 -0.2250
 7818TIP3    H223419   0.262   0.176   5.866 -0.2290  0.0203  1.4744
 7819TIP3   OH223420   4.943   2.752   4.754 -0.6980  0.6039 -0.4573
 7819TIP3    H123421   4.927   2.829   4.809  1.1233 -0.9708  2.5759
 7819TIP3    H223422   5.033   2.764   4.723  0.0010 -0.7088  0.9435
 7820TIP3   OH223423   3.707   4.257   0.559  0.1188  0.0094  0.5477
 7820TIP3    H123424   3.771   4.241   0.628 -0.5053 -0.7805  0.9529
 7820TIP3    H223425   3.717   4.184   0.498  1.8459  1.5426 -1.1579
 7821TIP3   OH223426   1.095   1.412   1.746 -0.0148  0.5241 -0.1173
 7821TIP3    H123427   1.179   1.393   1.704 -0.3223 -0.0239 -0.4908
 7821TIP3    H223428   1.083   1.506   1.732  0.1070  0.4411 -0.8588
 7822TIP3   OH223429   5.944   5.429   5.028  0.3017  0.2626 -0.0212
 7822TIP3    H123430   5.950   5.459   4.938  0.0557  0.2329 -0.0484
 7822TIP3    H223431   6.012   5.477   5.075  0.7374 -0.0625 -0.3147
 7823TIP3   OH223432   4.988   4.411   0.936  0.5883  0.2171 -0.6058
 7823TIP3    H123433   4.940   4.389   1.016  0.0654 -0.0694 -0.9850
 7823TIP3    H223434   5.080   4.409   0.961  0.4548 -0.3676 -0.1310
 7824TIP3   OH223435   0.326   4.167   0.505  0.3912 -0.7213  1.0121
 7824TIP3    H123436   0.317   4.224   0.581 -1.8836  2.8774 -1.6137
 7824TIP3    H223437   0.406   4.197   0.462 -1.0901  1.1255 -0.6614
 7825TIP3   OH223438   6.828   6.309   2.542 -0.0959 -0.5674  0.2520
 7825TIP3    H123439   6.739   6.311   2.507 -0.0679 -1.5426  0.0884
 7825TIP3    H223440   6.878   6.260   2.477  0.1947 -1.4555  1.1247
 7826TIP3   OH223441   2.212   4.791   0.067 -0.6875  0.0163  0.4709
 7826TIP3    H123442   2.141   4.812   0.128  0.1232 -0.3417  1.5537
 7826TIP3    H223443   2.182   4.712   0.022 -1.7084  0.8150 -0.3151
 7827TIP3   OH223444   2.929   4.815   1.103  0.4140 -0.4347  0.3831
 7827TIP3    H123445   2.960   4.899   1.138  0.9077 -0.8669  1.0111
 7827TIP3    H223446   2.834   4.825   1.097  0.4057 -0.0522  1.0604
 7828TIP3   OH223447   2.474   2.616   1.917 -0.0062  0.0032  0.0278
 7828TIP3    H123448   2.558   2.602   1.873  0.0482 -0.4799  0.2817
 7828TIP3    H223449   2.464   2.541   1.975 -0.6763 -0.0093 -0.0969
 7829TIP3   OH223450   5.317   0.385   3.667 -0.4149 -0.2056 -0.0285
 7829TIP3    H123451   5.229   0.379   3.706  0.4847  0.1714  2.2350
 7829TIP3    H223452   5.348   0.471   3.693  1.4275 -1.1581  1.1072
 7830TIP3   OH223453   4.120   4.534   3.419 -0.1346 -0.1012 -0.1757
 7830TIP3    H123454   4.175   4.611   3.403  0.4899 -0.1883  1.3983
 7830TIP3    H223455   4.111   4.530   3.514  0.1668 -2.2008 -0.1858
 7831TIP3   OH223456   4.242   0.508   3.121  0.1382 -0.5014  0.3755
 7831TIP3    H123457   4.262   0.513   3.027 -0.7292 -1.5828  0.1152
 7831TIP3    H223458   4.193   0.588   3.139 -0.1339 -0.5250 -0.2163
 7832TIP3   OH223459   0.167   0.335   5.579  0.5578 -0.3129 -0.6275
 7832TIP3    H123460   0.101   0.310   5.514 -1.9537 -1.8806  2.2562
 7832TIP3    H223461   0.156   0.430   5.588 -0.4038 -0.3613 -1.1387
 7833TIP3   OH223462   2.805   0.456   5.468  0.3201 -0.6667 -0.0667
 7833TIP3    H123463   2.783   0.394   5.398 -1.0637  0.8296 -1.0266
 7833TIP3    H223464   2.878   0.415   5.515  1.8135 -1.3847 -2.8446
 7834TIP3   OH223465   1.224   4.633   4.442  0.0737 -0.2129 -0.1178
 7834TIP3    H123466   1.168   4.603   4.514  0.0298  0.5023  0.1561
 7834TIP3    H223467   1.288   4.563   4.431  0.1709 -0.2722  0.7239
 7835TIP3   OH223468   4.563   2.279   0.159  0.2865  0.0381  0.0629
 7835TIP3    H123469   4.512   2.249   0.084 -0.7474  1.0845  0.3243
 7835TIP3    H223470   4.609   2.201   0.190 -0.0515 -0.6164 -1.0376
 7836TIP3   OH223471   2.208   2.087   5.487  0.5024 -0.4318  0.1399
 7836TIP3    H123472   2.275   2.155   5.492  0.4216 -0.4119  1.3323
 7836TIP3    H223473   2.235   2.031   5.415 -0.1445  1.6034 -1.8080
 7837TIP3   OH223474   3.500   3.468   4.694 -0.0387  0.0915 -0.0607
 7837TIP3    H123475   3.558   3.421   4.634  0.8898  1.1486 -0.0325
 7837TIP3    H223476   3.438   3.402   4.725  0.6571 -0.8909 -0.7104
 7838TIP3   OH223477   2.062   4.285   5.058  0.7412 -0.1520  0.1289
 7838TIP3    H123478   1.995   4.327   5.005 -0.4933 -1.6822  0.4081
 7838TIP3    H223479   2.017   4.255   5.137  2.2092  0.6484  1.3377
 7839TIP3   OH223480   6.752   0.403   1.594  0.3174 -0.3147 -0.0654
 7839TIP3    H123481   6.728   0.495   1.596  2.6820  0.4015  3.1226
 7839TIP3    H223482   6.841   0.402   1.559  0.5963 -1.2790  0.6324
 7840TIP3   OH223483   4.848   4.434   4.124 -0.5249  0.4023 -0.8831
 7840TIP3    H123484   4.859   4.506   4.186  1.6843  0.2568 -1.0280
 7840TIP3    H223485   4.937   4.410   4.099 -1.2471 -1.5660 -1.7961
 7841TIP3   OH223486   2.899   3.584   0.270 -0.2243  0.4805 -0.0240
 7841TIP3    H123487   2.838   3.524   0.227  0.7612 -0.3983 -0.2409
 7841TIP3    H223488   2.908   3.548   0.358 -2.4303  2.4093  1.1131
 7842TIP3   OH223489   4.403   3.331   5.643 -0.0099 -0.5110 -0.3545
 7842TIP3    H123490   4.421   3.243   5.676  0.4871  0.2575  1.5700
 7842TIP3    H223491   4.469   3.386   5.686 -2.1555  1.2507  0.9048
 7843TIP3   OH223492   0.562   0.053   3.475 -0.0619  0.3757  0.6831
 7843TIP3    H123493   0.484   0.107   3.459  0.1450  0.3977 -0.2842
 7843TIP3    H223494   0.564   0.043   3.570 -1.0602  0.6515  0.7498
 7844TIP3   OH223495   0.021   5.546   1.818 -0.1215  0.4498 -0.2794
 7844TIP3    H123496   0.048   5.631   1.784  0.4270 -0.1917 -1.5271
 7844TIP3    H223497   0.092   5.486   1.794 -0.6127 -0.4202  0.3411
 7845TIP3   OH223498   3.662   0.640   2.207  0.5784 -0.7394  0.3029
 7845TIP3    H123499   3.579   0.686   2.202  1.2959  0.5402 -0.2013
 7845TIP3    H223500   3.678   0.608   2.118  1.5390  0.7208 -0.0837
 7846TIP3   OH223501   4.215   0.871   2.045 -0.5570 -0.1825 -0.1122
 7846TIP3    H123502   4.291   0.879   2.102  0.1263  0.2037 -1.0502
 7846TIP3    H223503   4.188   0.962   2.028 -0.3667 -0.2635 -0.8881
 7847TIP3   OH223504   4.004   5.693   5.593  0.4207  0.3056  0.1096
 7847TIP3    H123505   3.917   5.665   5.620 -0.7057  0.7356 -2.7813
 7847TIP3    H223506   3.992   5.783   5.563  1.9962  0.5631  0.1722
 7848TIP3   OH223507   4.294   1.480   1.262 -0.2678  0.7366 -0.1085
 7848TIP3    H123508   4.272   1.508   1.173 -1.7260 -0.2986 -0.1015
 7848TIP3    H223509   4.275   1.386   1.263  0.8709  0.4913  0.9652
 7849TIP3   OH223510   5.292   1.133   1.588 -0.9983  0.7199  0.4496
 7849TIP3    H123511   5.251   1.067   1.644  0.5279 -0.4638  0.2464
 7849TIP3    H223512   5.363   1.169   1.642 -1.0326  1.2903  0.1182
 7850TIP3   OH223513   1.106   1.713   3.864  0.2443 -0.3405  0.0041
 7850TIP3    H123514   1.112   1.625   3.899  1.8082  0.0120  0.6783
 7850TIP3    H223515   1.019   1.744   3.892 -0.1710 -1.5221  0.0525
 7851TIP3   OH223516   1.318   2.503   4.776 -0.0424 -0.1603  0.1082
 7851TIP3    H123517   1.308   2.455   4.858  0.0631  1.0367  0.8423
 7851TIP3    H223518   1.231   2.541   4.760  0.4367  1.2765  0.7567
 7852TIP3   OH223519   6.147   6.693   1.261  0.4496  0.3239 -0.2453
 7852TIP3    H123520   6.085   6.655   1.198  0.1542  0.1511  0.1454
 7852TIP3    H223521   6.098   6.765   1.302  1.1141  1.3670 -1.2221
 7853TIP3   OH223522   6.021   5.708   5.819  0.6831 -0.1844  0.3961
 7853TIP3    H123523   6.030   5.801   5.797  2.3256 -0.1484  1.0344
 7853TIP3    H223524   5.957   5.707   5.890  0.3589  0.4206  0.1250
 7854TIP3   OH223525   2.970   4.795   4.112  0.4462 -0.1816 -0.2427
 7854TIP3    H123526   3.002   4.754   4.193 -0.2317 -0.8943 -0.3236
 7854TIP3    H223527   2.875   4.802   4.125  0.0948 -1.8490 -1.6402
 7855TIP3   OH223528   4.358   6.587   0.238 -0.3085 -0.0148  0.2916
 7855TIP3    H123529   4.420   6.619   0.173 -0.7198 -0.2162 -0.2000
 7855TIP3    H223530   4.386   6.629   0.320  0.1938  0.2538 -0.0136
 7856TIP3   OH223531   0.780   6.664   1.633  0.2180  0.5704 -0.1369
 7856TIP3    H123532   0.812   6.623   1.713  0.0176 -3.0748 -1.7275
 7856TIP3    H223533   0.855   6.714   1.599  1.3601 -0.5561  0.6620
 7857TIP3   OH223534   4.955   4.092   3.115 -0.0506  0.0027  0.0930
 7857TIP3    H123535   4.924   4.078   3.025  1.1209 -1.8165 -0.0597
 7857TIP3    H223536   4.879   4.130   3.160 -0.4654  1.5904 -1.7811
 7858TIP3   OH223537   3.961   3.392   0.642  0.0381 -0.0195  0.1741
 7858TIP3    H123538   3.932   3.305   0.615  2.1036 -1.2983  1.7984
 7858TIP3    H223539   3.891   3.424   0.699 -1.1715 -0.1601 -1.1775
 7859TIP3   OH223540   1.084   2.900   4.189  0.0972  0.4939 -0.4862
 7859TIP3    H123541   1.027   2.846   4.135  1.5725 -0.6163 -0.9996
 7859TIP3    H223542   1.162   2.913   4.136  0.0250  2.6943 -0.1350
 7860TIP3   OH223543   4.128   2.244   3.883 -0.3660 -0.0359  0.2848
 7860TIP3    H123544   4.157   2.334   3.898 -0.8176  0.3524 -1.0083
 7860TIP3    H223545   4.125   2.205   3.970  0.5821  0.9614  0.7939
 7861TIP3   OH223546   4.740   3.762   4.791 -0.7024 -0.0750  0.4614
 7861TIP3    H123547   4.760   3.848   4.754 -0.2282  1.0138  3.0291
 7861TIP3    H223548   4.759   3.700   4.720  1.2298  1.7480 -0.7339
 7862TIP3   OH223549   1.648   6.255   3.599 -0.0115  0.0361  0.1614
 7862TIP3    H123550   1.737   6.287   3.581 -0.9960  1.6434 -2.2786
 7862TIP3    H223551   1.633   6.188   3.532 -1.0992  0.7558 -0.3368
 7863TIP3   OH223552   6.479   0.517   4.418  0.0670 -0.4984  0.0019
 7863TIP3    H123553   6.385   0.507   4.438 -0.3718 -0.2233 -1.7426
 7863TIP3    H223554   6.495   0.453   4.349  0.8461  0.3528 -0.6254
 7864TIP3   OH223555   1.379   0.978   1.954  0.3429 -0.1253  0.2795
 7864TIP3    H123556   1.333   0.991   2.037  1.4656 -0.6205  1.0088
 7864TIP3    H223557   1.455   0.923   1.977  0.9807  0.1865 -0.9755
 7865TIP3   OH223558   2.731   5.323   3.501  0.0920 -0.3193 -0.3169
 7865TIP3    H123559   2.733   5.260   3.430 -0.0947  0.1198 -0.7185
 7865TIP3    H223560   2.638   5.333   3.522  0.2082 -1.2826  0.7559
 7866TIP3   OH223561   1.114   6.727   5.141  0.0706 -0.2861 -0.4802
 7866TIP3    H123562   1.120   6.664   5.069  0.7122 -0.1137 -0.5849
 7866TIP3    H223563   1.169   6.690   5.210  0.2364  0.0262 -0.4416
 7867TIP3   OH223564   1.871   0.139   2.818 -0.3491 -0.0325 -0.9057
 7867TIP3    H123565   1.854   0.230   2.844 -0.4794 -0.2583 -0.1654
 7867TIP3    H223566   1.962   0.124   2.843 -0.6032 -0.3853 -0.1667
 7868TIP3   OH223567   4.651   2.335   0.932 -0.2598  0.1787 -0.0333
 7868TIP3    H123568   4.598   2.280   0.875 -1.1637 -0.2946  1.2187
 7868TIP3    H223569   4.595   2.411   0.951 -0.9054 -0.7102  1.9596
 7869TIP3   OH223570   5.782   3.605   2.870 -0.3223  0.2173 -0.0884
 7869TIP3    H123571   5.700   3.589   2.918  0.7758 -1.4660  1.3682
 7869TIP3    H223572   5.841   3.639   2.937  0.9676 -1.2301 -0.4496
 7870TIP3   OH223573   1.104   6.063   4.059 -0.0298  0.1200  0.3992
 7870TIP3    H123574   1.088   5.987   4.114 -1.0374 -1.3296 -1.7850
 7870TIP3    H223575   1.186   6.100   4.092  1.5824 -3.0489  0.3340
 7871TIP3   OH223576   4.684   4.949   5.760  0.0309 -0.0248 -0.1122
 7871TIP3    H123577   4.610   5.006   5.740 -1.0946 -0.7257  1.7629
 7871TIP3    H223578   4.728   4.935   5.676 -1.6872  0.7936 -1.1948
 7872TIP3   OH223579   5.353   6.234   4.155 -0.2596 -0.3315  0.0392
 7872TIP3    H123580   5.307   6.314   4.178 -0.2983 -0.7795  1.6442
 7872TIP3    H223581   5.328   6.217   4.064  1.0137  2.2988 -0.8901
 7873TIP3   OH223582   6.804   0.259   0.909  0.2850  0.1666  0.4158
 7873TIP3    H123583   6.775   0.207   0.834 -1.9189 -1.5331  2.3298
 7873TIP3    H223584   6.888   0.220   0.933  0.4531 -0.0206 -0.4289
 7874TIP3   OH223585   4.819   4.576   4.619 -0.0068 -0.7044 -0.5065
 7874TIP3    H123586   4.879   4.508   4.651  0.6352  0.2975  0.4974
 7874TIP3    H223587   4.735   4.556   4.660 -0.0469 -1.3858 -0.9096
 7875TIP3   OH223588   2.219   0.039   0.233 -0.6081 -0.0738 -0.4015
 7875TIP3    H123589   2.144  -0.003   0.191 -1.1436  0.1350  0.3149
 7875TIP3    H223590   2.194   0.046   0.326 -0.1060  0.8534 -0.3162
 7876TIP3   OH223591   7.168   2.239   0.885  0.0530 -0.8617 -0.6020
 7876TIP3    H123592   7.102   2.187   0.931  0.2172 -1.0162 -0.5399
 7876TIP3    H223593   7.250   2.192   0.900  0.7352  0.9265  1.9239
 7877TIP3   OH223594   3.865   1.520   0.771 -0.1818  0.6165  0.0895
 7877TIP3    H123595   3.876   1.499   0.864  1.0505 -0.2661 -0.2248
 7877TIP3    H223596   3.831   1.439   0.732 -0.9623  1.0700 -0.1906
 7878TIP3   OH223597   0.711   4.280   3.259 -0.2839 -0.3198 -0.1381
 7878TIP3    H123598   0.687   4.259   3.169  0.6609 -0.0796 -0.4584
 7878TIP3    H223599   0.793   4.329   3.251 -0.5752  0.3474  0.8103
 7879TIP3   OH223600   0.828   2.885   4.769 -0.9872 -0.2261  0.0458
 7879TIP3    H123601   0.859   2.795   4.756 -1.6388 -0.5353  0.5599
 7879TIP3    H223602   0.900   2.940   4.739 -1.0548 -0.9114 -1.4203
 7880TIP3   OH223603   4.889   5.098   3.861 -0.1322  0.1072 -0.2678
 7880TIP3    H123604   4.857   5.183   3.831 -1.0415  0.1098  0.6648
 7880TIP3    H223605   4.843   5.082   3.943 -2.7292 -2.9210 -2.0976
 7881TIP3   OH223606   7.001   3.289   0.338  0.1509  0.1742 -0.3021
 7881TIP3    H123607   6.943   3.362   0.358 -0.4193 -0.2014 -0.5762
 7881TIP3    H223608   7.079   3.330   0.299  0.2963  0.7133  0.5442
 7882TIP3   OH223609   7.182   4.341   3.876 -0.1210  0.0625  0.4660
 7882TIP3    H123610   7.238   4.267   3.853  0.0738  0.8668 -1.9522
 7882TIP3    H223611   7.092   4.307   3.868 -0.0230 -0.1573  0.2997
 7883TIP3   OH223612   6.159   2.854   2.362  0.8419 -0.3544 -0.4170
 7883TIP3    H123613   6.132   2.880   2.450  0.6683  0.5286 -0.7213
 7883TIP3    H223614   6.239   2.803   2.376  0.5104 -0.6920  0.2915
 7884TIP3   OH223615   2.849   1.058   3.006  1.0248 -0.1521  0.2636
 7884TIP3    H123616   2.803   1.013   2.935  0.1992  0.2844  0.5069
 7884TIP3    H223617   2.934   1.080   2.969  0.3426  0.7240 -0.8485
 7885TIP3   OH223618   2.951   2.155   3.708 -0.4984  0.2614  0.1268
 7885TIP3    H123619   2.918   2.127   3.622  0.0922  0.1455 -0.0678
 7885TIP3    H223620   3.046   2.151   3.699 -0.3823 -2.3255  1.5847
 7886TIP3   OH223621   1.995   1.204   0.672 -0.3963  0.3974 -0.5254
 7886TIP3    H123622   2.063   1.188   0.607  0.8553 -2.3329  1.2680
 7886TIP3    H223623   1.933   1.132   0.660 -1.9601  1.7317 -0.8189
 7887TIP3   OH223624   1.660   6.779   1.089  0.4603  0.2425 -0.0149
 7887TIP3    H123625   1.595   6.826   1.038  2.4098  1.6218 -1.3706
 7887TIP3    H223626   1.630   6.787   1.180 -1.8361 -0.2164 -0.6865
 7888TIP3   OH223627   2.358   3.177   5.352  0.4115 -0.1963  0.0173
 7888TIP3    H123628   2.279   3.187   5.405 -0.2831 -2.2059 -0.5391
 7888TIP3    H223629   2.430   3.191   5.413 -0.3741 -0.3221  0.9976
 7889TIP3   OH223630   1.907   2.284   3.601 -0.5425 -0.6091 -0.3025
 7889TIP3    H123631   1.844   2.242   3.660 -1.5003  1.3286  0.1187
 7889TIP3    H223632   1.976   2.316   3.660 -0.5486 -0.3351 -0.4431
 7890TIP3   OH223633   3.653   2.136   2.783 -0.0696 -0.0650 -0.4116
 7890TIP3    H123634   3.598   2.183   2.720 -1.3853 -0.8697  0.1005
 7890TIP3    H223635   3.679   2.202   2.847 -2.8026 -0.1330  0.9199
 7891TIP3   OH223636   5.514   5.448   5.611  0.1763 -0.2925  0.1587
 7891TIP3    H123637   5.532   5.542   5.618  1.6834 -0.5634  0.2613
 7891TIP3    H223638   5.427   5.437   5.649  0.6455  0.8332  1.6527
 7892TIP3   OH223639   6.598   2.234   0.909 -0.6975 -0.4431 -0.4998
 7892TIP3    H123640   6.531   2.300   0.894 -1.1230 -0.7887 -0.1427
 7892TIP3    H223641   6.657   2.242   0.834 -1.1318 -0.1365 -0.8143
 7893TIP3   OH223642   5.757   4.042   4.637  0.3618 -0.2814  0.1879
 7893TIP3    H123643   5.827   4.107   4.641  1.1361 -1.1433  1.1204
 7893TIP3    H223644   5.739   4.032   4.543  1.4930 -0.0636 -0.0639
 7894TIP3   OH223645   3.936   2.694   1.783 -0.1266 -0.1023  0.2375
 7894TIP3    H123646   4.031   2.688   1.781 -0.1294 -0.1290 -0.8708
 7894TIP3    H223647   3.917   2.788   1.782 -0.0742 -0.0354 -2.1979
 7895TIP3   OH223648   1.223   4.787   2.523  0.4317  0.0038  0.1639
 7895TIP3    H123649   1.236   4.763   2.432 -0.2956 -0.9596  0.2909
 7895TIP3    H223650   1.210   4.703   2.568 -1.8167  0.5607  0.7130
 7896TIP3   OH223651   6.922   6.456   0.970  0.4584 -0.5745 -0.4151
 7896TIP3    H123652   6.872   6.404   0.907 -1.0434  0.4190 -0.1114
 7896TIP3    H223653   6.887   6.431   1.055  1.1188 -0.4935 -0.1124
 7897TIP3   OH223654   3.790   0.913   2.480 -0.0948 -0.0875 -0.1204
 7897TIP3    H123655   3.850   0.907   2.406 -0.5639 -0.4140 -0.4766
 7897TIP3    H223656   3.847   0.920   2.556  0.3936 -0.0197 -0.4861
 7898TIP3   OH223657   4.023   2.226   0.894 -0.2422  0.8214 -0.3647
 7898TIP3    H123658   4.098   2.265   0.941 -0.0956  1.3102 -0.9867
 7898TIP3    H223659   4.056   2.212   0.805 -0.2702 -0.8275 -0.1443
 7899TIP3   OH223660   7.136   2.297   4.899  0.9428  0.0097 -0.0839
 7899TIP3    H123661   7.220   2.254   4.914  0.7391 -0.1847  0.5259
 7899TIP3    H223662   7.149   2.347   4.819  1.4083 -0.6080 -0.4040
 7900TIP3   OH223663   7.129   2.784   1.951  0.6254 -0.3464 -0.1907
 7900TIP3    H123664   7.078   2.859   1.979 -0.2219 -1.0789  0.2746
 7900TIP3    H223665   7.139   2.795   1.857 -0.7010 -0.3664 -0.3515
 7901TIP3   OH223666   6.378   5.305   4.011  0.2644  0.4202 -0.3443
 7901TIP3    H123667   6.308   5.328   3.949  0.4916 -0.4024 -0.9101
 7901TIP3    H223668   6.362   5.213   4.033  0.6298  0.4909  0.2409
 7902TIP3   OH223669   4.814   2.264   4.802  0.8555 -0.2359 -0.0906
 7902TIP3    H123670   4.864   2.187   4.775 -0.3770 -0.8821 -0.6253
 7902TIP3    H223671   4.741   2.268   4.740 -0.1766  0.2090  1.0980
 7903TIP3   OH223672   0.746   3.943   3.524 -0.3695  0.0997 -0.1770
 7903TIP3    H123673   0.740   3.939   3.619 -1.7607 -0.1844 -0.2494
 7903TIP3    H223674   0.838   3.925   3.505 -0.1558 -0.2597  1.0896
 7904TIP3   OH223675   5.920   1.778   2.441 -0.3808 -0.3275  0.2414
 7904TIP3    H123676   5.981   1.781   2.514  0.3430 -4.0273 -0.0005
 7904TIP3    H223677   5.897   1.685   2.433 -3.3286  0.4444 -1.9206
 7905TIP3   OH223678   1.017   0.584   0.708 -0.2319  0.3135  0.0803
 7905TIP3    H123679   1.041   0.502   0.665 -1.7657  0.1149 -0.4672
 7905TIP3    H223680   0.956   0.558   0.777  1.0668  0.7831  1.4578
 7906TIP3   OH223681   4.821   2.780   5.009  0.5031 -0.2360 -0.2497
 7906TIP3    H123682   4.786   2.700   5.046  0.6102  0.1431  0.7095
 7906TIP3    H223683   4.836   2.837   5.085 -0.5318  1.0767 -0.9850
 7907TIP3   OH223684   6.134   5.875   3.634  0.0520  0.5203 -0.4816
 7907TIP3    H123685   6.142   5.780   3.636  0.4948  0.5569 -0.5950
 7907TIP3    H223686   6.079   5.893   3.558  0.5767  0.4011 -0.8901
 7908TIP3   OH223687   3.242   1.062   1.924  0.4073  0.1982  0.6174
 7908TIP3    H123688   3.316   1.083   1.982 -0.8720 -1.1421  2.8960
 7908TIP3    H223689   3.196   0.991   1.969 -1.2819 -0.2185 -1.6014
 7909TIP3   OH223690   4.929   2.622   5.378 -0.7326  0.1557  0.1298
 7909TIP3    H123691   4.870   2.571   5.434 -1.1937  0.7629  0.1959
 7909TIP3    H223692   4.921   2.582   5.292 -2.1440  0.9794 -0.1392
 7910TIP3   OH223693   6.264   4.853   5.057 -0.0983  0.6531  0.7312
 7910TIP3    H123694   6.319   4.777   5.078 -1.6191 -0.9393 -0.6517
 7910TIP3    H223695   6.237   4.887   5.142  1.7348  0.5141  1.4047
 7911TIP3   OH223696   5.627   1.451   0.733  0.5874 -0.3309 -0.6506
 7911TIP3    H123697   5.619   1.358   0.754 -1.7822 -0.0218  0.0973
 7911TIP3    H223698   5.720   1.464   0.716  0.7523 -3.2213 -2.6855
 7912TIP3   OH223699   4.467   1.129   1.572  0.6987 -0.0352  0.2142
 7912TIP3    H123700   4.562   1.132   1.589  0.6242 -0.9659  0.8729
 7912TIP3    H223701   4.428   1.174   1.646  0.6635  1.4613 -0.6748
 7913TIP3   OH223702   2.852   1.669   3.391 -0.0973  0.0569  0.0029
 7913TIP3    H123703   2.944   1.652   3.372  0.1859 -0.2517  1.5495
 7913TIP3    H223704   2.828   1.604   3.457 -2.0257 -1.2347 -1.8243
 7914TIP3   OH223705   0.156   0.363   4.835  0.1691 -0.1624 -0.0052
 7914TIP3    H123706   0.069   0.380   4.871 -0.4076 -0.8919 -0.9852
 7914TIP3    H223707   0.215   0.417   4.887 -0.9499  0.8291  0.2756
 7915TIP3   OH223708   1.740   2.984   3.819 -0.1591 -0.2631 -0.7428
 7915TIP3    H123709   1.716   2.894   3.796  0.6664 -0.5160 -0.6749
 7915TIP3    H223710   1.758   3.027   3.736  0.0612 -0.3526 -0.7438
 7916TIP3   OH223711   5.162   3.654   5.548  0.0351 -0.0815  0.0126
 7916TIP3    H123712   5.094   3.620   5.607 -0.9251  0.2545 -0.8710
 7916TIP3    H223713   5.209   3.576   5.519  1.1740 -0.1878  1.9385
 7917TIP3   OH223714   5.536   4.346   0.720  0.1199 -0.4953  0.0523
 7917TIP3    H123715   5.530   4.318   0.812 -0.1287  0.2458  0.2634
 7917TIP3    H223716   5.620   4.310   0.691  0.4709 -0.2605  0.7393
 7918TIP3   OH223717   4.889   3.990   1.380  0.3179  0.1716  0.1655
 7918TIP3    H123718   4.830   3.979   1.306 -0.7640  0.7586  0.9125
 7918TIP3    H223719   4.976   3.990   1.341 -0.0348 -2.3190 -0.7987
 7919TIP3   OH223720   3.523   1.402   0.656  0.2326 -0.2939  0.2377
 7919TIP3    H123721   3.457   1.340   0.689 -0.4405 -0.2979 -1.0245
 7919TIP3    H223722   3.601   1.348   0.641  0.0121 -0.6197  0.2411
 7920TIP3   OH223723   4.136   4.249   3.771 -0.0541  0.3510 -0.1967
 7920TIP3    H123724   4.163   4.326   3.820 -0.0699  0.3914 -0.2522
 7920TIP3    H223725   4.067   4.280   3.712  0.7243  0.5352 -1.0284
 7921TIP3   OH223726   4.361   5.249   1.111 -0.1772  0.6400 -0.0511
 7921TIP3    H123727   4.448   5.213   1.126  0.4633  2.1124 -0.1300
 7921TIP3    H223728   4.317   5.240   1.196  1.0441  2.4868  0.8223
 7922TIP3   OH223729   5.537   1.632   3.038  0.1665 -0.4281  0.1523
 7922TIP3    H123730   5.553   1.642   3.132 -0.7677  1.3000  0.1786
 7922TIP3    H223731   5.469   1.565   3.032  2.2387 -2.6895  0.4643
 7923TIP3   OH223732   6.679   5.421   5.819 -0.6103 -0.0803 -0.5821
 7923TIP3    H123733   6.603   5.400   5.765 -1.9223 -1.4553  1.6616
 7923TIP3    H223734   6.653   5.398   5.908  2.3742 -0.4349  0.3157
 7924TIP3   OH223735   0.456   0.888   4.680  0.0242  0.2176  0.7649
 7924TIP3    H123736   0.514   0.911   4.753  0.3396 -1.7304  1.1919
 7924TIP3    H223737   0.490   0.804   4.648  0.0439  1.1251 -1.8165
 7925TIP3   OH223738   5.829   3.255   0.229 -0.6385  0.1350  0.1821
 7925TIP3    H123739   5.893   3.189   0.254  0.6659  1.0173 -0.6593
 7925TIP3    H223740   5.791   3.284   0.311  0.4665 -0.0126  0.7664
 7926TIP3   OH223741   1.953   2.086   3.169 -0.2402  0.2987 -0.0304
 7926TIP3    H123742   1.986   2.048   3.251 -0.3043  2.4470  1.0435
 7926TIP3    H223743   1.990   2.029   3.101  0.3600 -1.1615  1.4277
 7927TIP3   OH223744   7.181   2.019   5.175  0.2062 -0.1155 -0.3035
 7927TIP3    H123745   7.125   2.084   5.216  1.9935  2.3787 -1.5762
 7927TIP3    H223746   7.121   1.951   5.143 -1.6537  0.5093  1.6761
 7928TIP3   OH223747   6.113   4.632   4.762 -0.3340 -0.2800 -0.1058
 7928TIP3    H123748   6.155   4.551   4.789  0.6032  0.3271  0.3145
 7928TIP3    H223749   6.184   4.687   4.729 -1.1718 -0.2283 -1.9516
 7929TIP3   OH223750   0.815   5.215   0.768 -0.0653  0.2733  0.1012
 7929TIP3    H123751   0.742   5.241   0.713  0.2547 -0.7443 -0.8464
 7929TIP3    H223752   0.891   5.262   0.732 -0.2617  1.4740  1.1985
 7930TIP3   OH223753   2.961   5.744   4.208  0.1996  0.6268 -0.5592
 7930TIP3    H123754   3.026   5.805   4.241  0.4992  0.0299 -0.0120
 7930TIP3    H223755   2.894   5.741   4.277  0.8236 -0.6168  0.0357
 7931TIP3   OH223756   5.847   4.306   2.410 -0.1469  0.3597 -0.0491
 7931TIP3    H123757   5.925   4.253   2.395 -0.8174 -0.2229 -1.7719
 7931TIP3    H223758   5.799   4.260   2.478  0.5616  0.2253  0.3721
 7932TIP3   OH223759   0.250   2.525   4.929  0.0199 -0.4753  0.0999
 7932TIP3    H123760   0.338   2.541   4.894 -0.0482  0.0730  0.1756
 7932TIP3    H223761   0.204   2.480   4.859  0.0620  0.1065 -0.3038
 7933TIP3   OH223762   0.815   0.874   4.133 -0.0492  0.0280  0.5258
 7933TIP3    H123763   0.724   0.845   4.135 -0.1895  0.3542 -0.5845
 7933TIP3    H223764   0.861   0.813   4.191 -0.8709 -0.4614  0.6808
 7934TIP3   OH223765   0.411   0.730   1.302 -0.1366  0.4033  0.1956
 7934TIP3    H123766   0.346   0.759   1.238 -0.5080 -0.6811  0.0661
 7934TIP3    H223767   0.379   0.764   1.386 -0.0117  1.2405 -0.0843
 7935TIP3   OH223768   4.136   0.110   3.189  0.3346 -0.7699 -0.2674
 7935TIP3    H123769   4.078   0.158   3.249  0.7394 -1.3687  0.6175
 7935TIP3    H223770   4.175   0.179   3.135  0.7539 -0.1020  0.8452
 7936TIP3   OH223771   2.350   4.082   1.212 -0.3568  0.1015  0.3776
 7936TIP3    H123772   2.355   4.121   1.124 -2.0995 -0.6803 -0.1384
 7936TIP3    H223773   2.406   4.137   1.266  2.8005 -0.8103 -1.6747
 7937TIP3   OH223774   0.240   0.152   4.652 -0.0212 -0.3029  0.4397
 7937TIP3    H123775   0.197   0.195   4.726 -1.4541 -0.7468 -0.0968
 7937TIP3    H223776   0.176   0.158   4.581  1.1090 -0.3705 -0.6010
 7938TIP3   OH223777   1.060   5.331   1.218  0.3068 -0.2644  0.0724
 7938TIP3    H123778   1.038   5.339   1.311 -0.0482 -0.3162 -0.0042
 7938TIP3    H223779   1.124   5.400   1.202 -0.5809  0.5760  0.0631
 7939TIP3   OH223780   0.033   5.996   5.208  0.8363  0.3536 -1.0853
 7939TIP3    H123781   0.043   6.058   5.280  2.6211 -0.8285 -0.2500
 7939TIP3    H223782   0.123   5.979   5.179  0.5004 -2.5645 -0.6528
 7940TIP3   OH223783   0.675   6.053   3.427  0.6469  0.1242  0.2609
 7940TIP3    H123784   0.599   6.109   3.441 -0.0536 -1.2610  2.5444
 7940TIP3    H223785   0.668   6.027   3.335 -2.2993 -0.7741  0.6207
 7941TIP3   OH223786   2.631   0.235   3.049 -0.4697 -0.1727 -0.2134
 7941TIP3    H123787   2.604   0.314   3.001  0.6273  1.0698  1.1196
 7941TIP3    H223788   2.727   0.236   3.045 -0.4264 -1.1325  0.3192
 7942TIP3   OH223789   6.241   6.084   1.145  0.1046 -0.3221 -0.2790
 7942TIP3    H123790   6.247   5.990   1.160 -2.3555 -0.4816  0.1495
 7942TIP3    H223791   6.275   6.123   1.226 -0.1965 -0.8823  0.1288
 7943TIP3   OH223792   4.819   5.162   4.828 -0.3492 -0.1775  0.3907
 7943TIP3    H123793   4.736   5.198   4.798 -0.0721  0.6674  0.6163
 7943TIP3    H223794   4.821   5.073   4.792 -1.1877 -0.0879  0.0979
 7944TIP3   OH223795   0.153   0.610   5.494 -0.1766 -0.2111  0.2860
 7944TIP3    H123796   0.227   0.609   5.434 -0.2202  0.7076  0.2089
 7944TIP3    H223797   0.182   0.662   5.569 -0.1780 -1.2157  1.0128
 7945TIP3   OH223798   6.349   0.293   5.006 -0.0564 -0.2831  0.4020
 7945TIP3    H123799   6.257   0.320   5.010 -0.3371 -0.5490 -2.3724
 7945TIP3    H223800   6.398   0.368   5.038 -1.1346  1.1044 -1.0703
 7946TIP3   OH223801   4.881   2.776   3.980 -0.3664  0.7721 -0.3196
 7946TIP3    H123802   4.897   2.785   3.886  0.2213  0.8369 -0.2161
 7946TIP3    H223803   4.882   2.866   4.012 -0.1729  0.7219 -0.1875
 7947TIP3   OH223804   4.324   6.484   5.221  0.2500  0.0467  0.0246
 7947TIP3    H123805   4.274   6.489   5.139 -0.7030  1.1259  0.6403
 7947TIP3    H223806   4.408   6.524   5.201  0.2863 -0.3467 -0.6190
 7948TIP3   OH223807   5.327   5.375   5.279 -0.3941 -0.5008 -0.1197
 7948TIP3    H123808   5.261   5.394   5.212 -2.3209 -2.2739  1.1325
 7948TIP3    H223809   5.301   5.430   5.354  0.9464  0.4769 -0.3408
 7949TIP3   OH223810   2.228   6.460   3.463  0.2639  0.9369 -0.0263
 7949TIP3    H123811   2.157   6.441   3.402  0.4201 -1.0827  0.3272
 7949TIP3    H223812   2.259   6.373   3.490  0.5118  1.7630  2.5612
 7950TIP3   OH223813   2.248   3.261   2.507 -0.3416 -0.1109 -0.3416
 7950TIP3    H123814   2.247   3.169   2.480  1.6708  0.1601 -1.4801
 7950TIP3    H223815   2.198   3.307   2.439 -2.2354 -0.4219  0.7544
 7951TIP3   OH223816   3.220   6.374   4.229 -0.3406 -0.1392  0.1184
 7951TIP3    H123817   3.167   6.387   4.308 -1.0066  0.2896 -0.3905
 7951TIP3    H223818   3.184   6.435   4.165 -0.6760 -1.4158 -0.9591
 7952TIP3   OH223819   5.369   2.291   5.082 -0.3689 -0.4417  0.1962
 7952TIP3    H123820   5.384   2.385   5.078  3.0246 -0.8951 -0.6357
 7952TIP3    H223821   5.303   2.280   5.150 -0.2304  2.4725  0.9173
 7953TIP3   OH223822   2.964   4.626   4.536  0.2599  0.1588 -0.8209
 7953TIP3    H123823   3.007   4.617   4.450  0.8442  0.5197 -0.5738
 7953TIP3    H223824   3.003   4.557   4.589 -0.3928 -0.3192 -0.9555
 7954TIP3   OH223825   3.990   4.600   0.747  0.1167  0.3120 -0.9371
 7954TIP3    H123826   3.933   4.641   0.683 -1.4433  0.0741  0.2390
 7954TIP3    H223827   4.032   4.673   0.792  0.7243  0.4901 -1.7817
 7955TIP3   OH223828   5.336   1.868   1.482  0.1541  0.0039  0.3606
 7955TIP3    H123829   5.400   1.817   1.433 -0.4134  0.7101 -1.1639
 7955TIP3    H223830   5.374   1.875   1.570  0.8354 -1.9243  0.2705
 7956TIP3   OH223831   5.117   0.932   5.632 -0.4550 -0.3168  0.5814
 7956TIP3    H123832   5.092   1.021   5.658  2.8018  0.5746  1.0982
 7956TIP3    H223833   5.195   0.913   5.684  1.3747 -1.8389 -2.4471
 7957TIP3   OH223834   1.107   0.497   0.995  0.2435  0.0285 -0.5768
 7957TIP3    H123835   1.140   0.496   1.085  0.0487  0.9960 -0.4846
 7957TIP3    H223836   1.013   0.514   1.005  0.1017 -0.5423 -0.9329
 7958TIP3   OH223837   4.862   4.594   0.799  0.0479  0.0420 -0.1847
 7958TIP3    H123838   4.907   4.658   0.853 -0.1227 -0.0769  0.1017
 7958TIP3    H223839   4.885   4.509   0.838 -0.8553  0.0067  0.3021
 7959TIP3   OH223840   0.152   6.684   0.360  0.1328  0.6403 -0.4297
 7959TIP3    H123841   0.057   6.669   0.365  0.3734 -0.7169  1.0390
 7959TIP3    H223842   0.169   6.699   0.267 -1.4486  0.3646 -0.7947
 7960TIP3   OH223843   4.238   5.349   4.151  0.3303  0.5032 -0.7131
 7960TIP3    H123844   4.329   5.373   4.135  1.0560 -1.7411 -0.3061
 7960TIP3    H223845   4.242   5.259   4.182 -2.0220  0.4564 -0.3559
 7961TIP3   OH223846   3.400   6.542   3.949  0.0624  0.2087  0.1571
 7961TIP3    H123847   3.365   6.463   3.909 -0.1506  0.0755  0.6084
 7961TIP3    H223848   3.331   6.607   3.938 -0.1662  0.0589  0.6740
 7962TIP3   OH223849   3.529   4.887   2.960 -0.2651  0.3355 -0.6158
 7962TIP3    H123850   3.581   4.958   2.923 -0.9944  0.8796 -0.6021
 7962TIP3    H223851   3.552   4.887   3.053 -1.5021  1.6677 -0.2744
 7963TIP3   OH223852   5.882   0.019   4.268  0.1934 -0.2052 -0.4622
 7963TIP3    H123853   5.831  -0.015   4.342 -0.4700 -0.6991 -1.1229
 7963TIP3    H223854   5.918   0.102   4.299 -0.0404 -0.4277  0.4244
 7964TIP3   OH223855   4.645   4.123   1.466 -0.5417 -0.0918  0.3529
 7964TIP3    H123856   4.715   4.066   1.435 -1.6028 -1.7055  0.7678
 7964TIP3    H223857   4.689   4.202   1.495  0.9332 -0.4516 -0.8139
 7965TIP3   OH223858   4.603   1.636   2.498  0.3112  0.3162 -0.0910
 7965TIP3    H123859   4.528   1.696   2.500  0.0850  0.0243  0.5056
 7965TIP3    H223860   4.630   1.629   2.590  1.8878  1.4212 -0.4352
 7966TIP3   OH223861   3.693   0.581   1.560  0.2335 -0.1965 -0.2566
 7966TIP3    H123862   3.731   0.596   1.474  0.3110 -1.1474 -0.3905
 7966TIP3    H223863   3.769   0.569   1.618  0.2035  1.0350  0.0763
 7967TIP3   OH223864   5.535   5.457   4.932 -0.0087 -0.6654 -0.5734
 7967TIP3    H123865   5.440   5.462   4.932  0.0094  0.3651  1.3526
 7967TIP3    H223866   5.564   5.548   4.925  0.8180 -0.8654  0.1101
 7968TIP3   OH223867   4.057   0.995   0.259  0.3253 -0.1165 -0.0793
 7968TIP3    H123868   3.986   1.013   0.321  0.9580  1.2076  0.2984
 7968TIP3    H223869   4.116   1.070   0.268  1.2930 -0.7336 -1.0695
 7969TIP3   OH223870   0.227   3.979   2.723 -0.4897  0.1008 -0.0984
 7969TIP3    H123871   0.242   4.049   2.786 -1.9252  0.9210 -0.6124
 7969TIP3    H223872   0.180   3.912   2.773 -3.1152  1.4398 -0.5585
 7970TIP3   OH223873   5.963   3.361   2.485 -0.3356 -0.1834  0.2308
 7970TIP3    H123874   6.043   3.412   2.491 -0.0683 -0.7402  1.8151
 7970TIP3    H223875   5.901   3.406   2.542 -0.6569 -0.6177  0.2282
 7971TIP3   OH223876   0.205   4.124   4.983  0.3375 -0.4131 -0.2477
 7971TIP3    H123877   0.272   4.072   4.938  0.8920 -0.0075  0.0961
 7971TIP3    H223878   0.145   4.060   5.019  0.9120 -0.8107  0.0125
 7972TIP3   OH223879   6.509   1.072   3.341 -0.6349 -0.5399  0.1414
 7972TIP3    H123880   6.519   0.987   3.297  1.3456  0.2023 -0.9476
 7972TIP3    H223881   6.492   1.134   3.270 -0.9137  0.1709  0.8199
 7973TIP3   OH223882   0.388   5.770   0.923  0.3636  0.0629  0.2550
 7973TIP3    H123883   0.455   5.704   0.938  0.3818  0.0029 -0.0698
 7973TIP3    H223884   0.395   5.830   0.997  0.5101 -0.1658  0.4238
 7974TIP3   OH223885   6.200   0.423   0.045  0.1548 -0.4227  0.0671
 7974TIP3    H123886   6.208   0.503   0.096  0.8640 -0.6016  0.2415
 7974TIP3    H223887   6.133   0.372   0.091 -1.7296  0.8638 -1.1171
 7975TIP3   OH223888   6.588   4.262   4.709  0.5559  0.4512  0.4769
 7975TIP3    H123889   6.654   4.295   4.648 -1.7329  2.8367 -0.9675
 7975TIP3    H223890   6.598   4.167   4.707  1.8319  0.5589 -2.2135
 7976TIP3   OH223891   0.168   2.933   5.815 -0.5032  0.2083  0.2311
 7976TIP3    H123892   0.202   2.845   5.832 -0.7423 -0.2585 -1.4412
 7976TIP3    H223893   0.088   2.918   5.763 -0.2657  1.4152 -0.5249
 7977TIP3   OH223894   4.128   4.922   0.212  0.1528 -0.2020  0.2892
 7977TIP3    H123895   4.145   4.953   0.301 -1.1600 -1.9094  1.1859
 7977TIP3    H223896   4.214   4.895   0.179  0.5088 -0.5793  1.4671
 7978TIP3   OH223897   0.833   0.204   0.890  0.1900 -0.5093 -0.1721
 7978TIP3    H123898   0.744   0.238   0.897  1.0626  2.0010  0.1147
 7978TIP3    H223899   0.861   0.191   0.981  0.9079  1.1745 -0.1148
 7979TIP3   OH223900   6.305   1.998   1.403 -0.5915  0.2696 -0.4631
 7979TIP3    H123901   6.264   1.945   1.335 -0.4747 -0.3741 -0.0444
 7979TIP3    H223902   6.378   2.041   1.360 -1.8721  1.7023 -1.3081
 7980TIP3   OH223903   5.114   2.425   2.737  0.0949 -0.4901 -0.5020
 7980TIP3    H123904   5.107   2.469   2.652  0.5591 -0.7777 -0.6945
 7980TIP3    H223905   5.154   2.341   2.717 -1.5132 -1.3574 -0.2460
 7981TIP3   OH223906   4.849   3.926   2.566 -0.3617  0.1058 -0.2658
 7981TIP3    H123907   4.922   3.919   2.626 -1.2958  0.5279  0.9449
 7981TIP3    H223908   4.864   3.855   2.503 -0.4984 -1.7907  1.7226
 7982TIP3   OH223909   6.210   5.717   3.367 -0.0767 -0.2284 -0.0484
 7982TIP3    H123910   6.256   5.707   3.451  0.3189 -1.8605 -0.4303
 7982TIP3    H223911   6.136   5.657   3.374 -2.0130  2.0831  0.4031
 7983TIP3   OH223912   3.119   2.194   5.607 -0.0412 -0.0425  0.1001
 7983TIP3    H123913   3.210   2.201   5.576 -0.9944  2.6296 -2.6302
 7983TIP3    H223914   3.087   2.284   5.609 -2.9474 -0.9539 -0.1126
 7984TIP3   OH223915   2.009   2.492   4.952  0.1641 -0.3105  0.1498
 7984TIP3    H123916   1.970   2.579   4.949 -0.3869 -0.5406  0.4840
 7984TIP3    H223917   2.097   2.506   4.986  0.1651  0.1450 -0.0399
 7985TIP3   OH223918   6.385   2.577   3.164 -0.2582  0.0734 -0.1928
 7985TIP3    H123919   6.444   2.513   3.202 -0.0399  0.3511 -0.0607
 7985TIP3    H223920   6.339   2.530   3.094 -1.6119 -0.8247  1.2503
 7986TIP3   OH223921   2.664   4.820   0.125 -0.0410  0.2886 -0.4461
 7986TIP3    H123922   2.581   4.811   0.078 -0.0625  0.8539 -0.5230
 7986TIP3    H223923   2.730   4.785   0.065 -0.2568 -0.4278 -0.2691
 7987TIP3   OH223924   2.611   6.344   5.745  0.6418 -0.2680 -0.5049
 7987TIP3    H123925   2.580   6.433   5.762 -0.9222 -0.3805 -2.4423
 7987TIP3    H223926   2.626   6.307   5.832 -2.2280  0.6893  0.5160
 7988TIP3   OH223927   0.591   2.583   5.639 -0.5770  0.2537 -0.2972
 7988TIP3    H123928   0.589   2.674   5.610  1.3528  0.4809  0.1733
 7988TIP3    H223929   0.609   2.587   5.733  0.7376 -0.5934 -0.4753
 7989TIP3   OH223930   4.332   1.873   5.669  0.1453  0.0711 -0.2043
 7989TIP3    H123931   4.344   1.959   5.629 -0.4601 -0.4162 -1.4756
 7989TIP3    H223932   4.254   1.881   5.722  0.2398  0.3790 -0.1109
 7990TIP3   OH223933   5.183   5.283   2.568  0.3314  0.4526 -0.5658
 7990TIP3    H123934   5.224   5.344   2.630 -0.4055  2.6940 -2.1415
 7990TIP3    H223935   5.254   5.224   2.543  2.2222  3.0426 -1.7914
 7991TIP3   OH223936   6.499   1.406   5.480 -0.0565 -0.6105 -0.1399
 7991TIP3    H123937   6.455   1.428   5.562  1.0529 -1.5232  0.7241
 7991TIP3    H223938   6.427   1.392   5.418 -0.9167 -0.0878  0.7162
 7992TIP3   OH223939   3.376   4.173   2.004 -0.4701  0.2499 -0.0092
 7992TIP3    H123940   3.327   4.255   1.993 -0.2791  0.4729  0.7635
 7992TIP3    H223941   3.425   4.164   1.922 -1.0429  0.5357 -0.3888
 7993TIP3   OH223942   2.232   2.767   2.355 -0.5438 -0.3830 -0.0751
 7993TIP3    H123943   2.276   2.682   2.356  0.1836 -0.0584 -1.9845
 7993TIP3    H223944   2.159   2.755   2.295  0.4213  0.7179 -1.5241
 7994TIP3   OH223945   4.063   1.620   3.216 -0.6217 -0.2691  0.1339
 7994TIP3    H123946   4.014   1.539   3.199 -0.6373 -0.1701 -0.2983
 7994TIP3    H223947   4.035   1.680   3.147 -0.7931  0.1916  0.5921
 7995TIP3   OH223948   1.648   2.813   5.651  0.3413  0.1143 -0.1856
 7995TIP3    H123949   1.713   2.813   5.721  1.3173  2.6996 -0.9603
 7995TIP3    H223950   1.566   2.836   5.695  0.2672 -1.4303  0.5366
 7996TIP3   OH223951   5.110   2.495   0.734  0.2731  0.4361 -0.4403
 7996TIP3    H123952   5.194   2.456   0.711  0.3684 -0.0317  0.6610
 7996TIP3    H223953   5.045   2.438   0.693  0.4813  1.2199 -1.9346
 7997TIP3   OH223954   4.669   2.552   3.754  0.0911 -0.1314 -0.3879
 7997TIP3    H123955   4.645   2.557   3.847  0.9141 -1.4579 -0.0758
 7997TIP3    H223956   4.586   2.535   3.709 -0.5575  1.9359 -0.1020
 7998TIP3   OH223957   4.969   3.470   1.917 -0.0832  0.1224 -0.6790
 7998TIP3    H123958   4.886   3.435   1.947 -0.0019 -0.2078 -0.8276
 7998TIP3    H223959   4.959   3.565   1.920  0.4642  0.1562  1.9215
 7999TIP3   OH223960   1.052   2.412   2.711  0.1568  0.2062 -0.5559
 7999TIP3    H123961   1.089   2.485   2.661 -0.7087  1.6138  0.7489
 7999TIP3    H223962   1.128   2.363   2.742  0.8275  1.3560 -0.3329
 8000TIP3   OH223963   1.870   3.297   0.283  0.5212 -0.0660  0.7190
 8000TIP3    H123964   1.878   3.324   0.191 -1.0007 -0.7808  0.3408
 8000TIP3    H223965   1.952   3.252   0.302  0.4885 -0.7328 -0.5943
 8001TIP3   OH223966   1.736   0.497   4.306 -0.4787 -0.0434 -0.3295
 8001TIP3    H123967   1.765   0.416   4.267  3.1870  0.5349  0.8178
 8001TIP3    H223968   1.706   0.472   4.394 -0.3390 -0.2734 -0.3469
 8002TIP3   OH223969  -0.010   6.798   2.826 -0.2663 -0.1567 -0.0949
 8002TIP3    H123970   0.029   6.835   2.747  1.8629 -0.5583  0.7010
 8002TIP3    H223971  -0.007   6.704   2.813 -2.9022 -0.1979 -0.8438
 8003TIP3   OH223972   4.118   2.950   1.773 -0.0660  0.1279  0.5309
 8003TIP3    H123973   4.186   2.914   1.829 -0.8859 -0.2976  1.2749
 8003TIP3    H223974   4.152   3.035   1.746  1.2322 -0.5439 -0.0162
 8004TIP3   OH223975   2.702   4.030   0.393 -0.2858  0.1600  0.1874
 8004TIP3    H123976   2.628   3.992   0.440  0.5729 -0.5872  0.9619
 8004TIP3    H223977   2.736   3.959   0.338  0.9705 -0.0565  1.2072
 8005TIP3   OH223978   0.532   4.924   3.677 -0.2015 -0.3200  0.0281
 8005TIP3    H123979   0.607   4.870   3.703 -2.2038 -2.1234  2.5105
 8005TIP3    H223980   0.514   4.979   3.753 -0.2156  1.6116 -1.2943
 8006TIP3   OH223981   3.594   3.335   5.026 -0.0061  0.0721 -0.1250
 8006TIP3    H123982   3.618   3.399   5.093 -1.0557  0.2185  0.1395
 8006TIP3    H223983   3.528   3.280   5.069 -0.2846 -0.1802 -0.8635
 8007TIP3   OH223984   4.203   0.847   5.386 -0.2544  0.3551 -1.0160
 8007TIP3    H123985   4.191   0.842   5.480 -2.7448  1.2462 -1.2061
 8007TIP3    H223986   4.223   0.939   5.369  2.2718 -0.1517 -1.2553
 8008TIP3   OH223987   3.675   4.164   3.984 -0.5067  0.3101 -0.1268
 8008TIP3    H123988   3.633   4.141   3.901  0.3761  0.1692 -0.5446
 8008TIP3    H223989   3.741   4.229   3.959 -1.7124  1.9582  0.7696
 8009TIP3   OH223990   6.874   0.888   3.361 -0.2576  0.2109  0.2556
 8009TIP3    H123991   6.844   0.858   3.446 -0.9607 -0.8714 -0.3578
 8009TIP3    H223992   6.838   0.825   3.299  0.2098  0.9992 -0.8497
 8010TIP3   OH223993   2.035   4.516   3.745  0.4027  0.1846  0.1306
 8010TIP3    H123994   2.091   4.450   3.706 -0.4536  0.2288 -1.2407
 8010TIP3    H223995   2.065   4.599   3.707 -0.3079  0.2499 -0.3234
 8011TIP3   OH223996   5.345   2.226   2.457 -0.7374 -0.2249  0.0194
 8011TIP3    H123997   5.255   2.194   2.450 -1.0481  0.4059  0.8189
 8011TIP3    H223998   5.338   2.303   2.515  0.5878 -1.3776  1.8269
 8012TIP3   OH223999   1.019   1.795   2.037  0.3475 -0.5550 -0.0220
 8012TIP3    H124000   0.985   1.710   2.010 -0.7381 -0.2968  0.4491
 8012TIP3    H224001   1.053   1.781   2.125 -2.3808  0.0222  1.2542
 8013TIP3   OH224002   3.697   5.937   1.935 -0.3741 -0.0687  0.5281
 8013TIP3    H124003   3.775   5.938   1.992  1.2443 -0.0634 -1.5670
 8013TIP3    H224004   3.665   5.847   1.941  0.1955 -0.2536  0.9122
 8014TIP3   OH224005   0.023   3.685   4.764  0.2811  0.1217  0.1854
 8014TIP3    H124006   0.046   3.637   4.684  2.0949  0.3263  0.5366
 8014TIP3    H224007   0.106   3.724   4.793 -0.6161  1.2020  1.4105
 8015TIP3   OH224008   4.724   6.706   0.570 -0.2587  0.0665 -0.5835
 8015TIP3    H124009   4.680   6.790   0.580 -0.2101  0.0009  0.2352
 8015TIP3    H224010   4.676   6.662   0.499 -0.6100  0.5677 -0.6606
 8016TIP3   OH224011   3.960   3.672   3.275 -0.4508  0.2874 -0.2352
 8016TIP3    H124012   3.880   3.627   3.245 -0.7354 -0.4614  1.4748
 8016TIP3    H224013   3.930   3.760   3.297 -0.8410  0.0007  0.4321
 8017TIP3   OH224014   6.918   0.357   4.982 -0.0946  0.5886  0.2549
 8017TIP3    H124015   6.979   0.319   5.046  0.9652  0.4253 -0.8003
 8017TIP3    H224016   6.915   0.450   5.004 -2.2235  0.0749  2.4769
 8018TIP3   OH224017   1.415   3.876   3.694  0.0595  0.1391  0.3351
 8018TIP3    H124018   1.444   3.935   3.624 -0.3271 -0.9401 -0.7808
 8018TIP3    H224019   1.349   3.821   3.652 -0.4678 -0.2874  1.6758
 8019TIP3   OH224020   7.172   4.844   5.398  0.0811 -0.1495  0.3327
 8019TIP3    H124021   7.239   4.779   5.416 -0.2425 -0.5251  0.1936
 8019TIP3    H224022   7.167   4.896   5.479 -1.1992 -1.6880  1.3062
 8020TIP3   OH224023   2.441   1.836   2.076 -0.0465  0.1537  0.3299
 8020TIP3    H124024   2.488   1.898   2.020  1.9711 -1.1157  0.5343
 8020TIP3    H224025   2.386   1.786   2.016  0.9575 -0.1855 -0.3232
 8021TIP3   OH224026   4.645   2.589   4.053  0.3448  0.5694 -0.3194
 8021TIP3    H124027   4.616   2.678   4.034 -0.1359  0.6663  0.7902
 8021TIP3    H224028   4.716   2.600   4.117  0.5543  0.1780 -0.4828
 8022TIP3   OH224029   2.537   0.651   5.201  0.8607 -0.4374 -0.2336
 8022TIP3    H124030   2.452   0.677   5.236  0.2708  0.7776 -2.4168
 8022TIP3    H224031   2.598   0.716   5.236  0.1900  1.0797 -1.7222
 8023TIP3   OH224032   2.765   3.733   4.095 -0.2009 -0.7843  0.0109
 8023TIP3    H124033   2.725   3.805   4.145  0.0328 -1.0367  0.5728
 8023TIP3    H224034   2.793   3.671   4.162 -0.3092 -1.3549 -0.4692
 8024TIP3   OH224035   5.270   5.866   5.275 -0.0774 -0.2157 -0.2309
 8024TIP3    H124036   5.266   5.837   5.184 -0.1137  1.7566 -0.9000
 8024TIP3    H224037   5.362   5.862   5.298  0.3337  1.8794 -1.3010
 8025TIP3   OH224038   5.118   1.547   5.389 -0.1038 -0.1366 -0.2192
 8025TIP3    H124039   5.049   1.610   5.408  0.4447  0.2644  0.5130
 8025TIP3    H224040   5.101   1.519   5.299 -1.5939 -0.5489  0.1543
 8026TIP3   OH224041   5.629   1.747   4.482  0.7365  0.3002  0.1496
 8026TIP3    H124042   5.676   1.689   4.542  3.1011  2.1632  0.2555
 8026TIP3    H224043   5.660   1.723   4.395 -0.8696 -0.7966 -0.1553
 8027TIP3   OH224044   0.999   4.055   0.828  0.5005  0.1253 -0.1586
 8027TIP3    H124045   1.074   4.110   0.847 -0.3993  0.9695  1.1157
 8027TIP3    H224046   0.926   4.116   0.818  0.3317 -0.4705 -3.7130
 8028TIP3   OH224047   4.132   1.290   4.593 -0.1006 -0.5290 -0.2090
 8028TIP3    H124048   4.090   1.316   4.511  0.4358  0.1758 -0.2696
 8028TIP3    H224049   4.221   1.266   4.568  0.1854  0.0691  0.2219
 8029TIP3   OH224050   4.792   6.323   0.502 -0.6522 -0.1387 -0.6099
 8029TIP3    H124051   4.739   6.359   0.573 -0.5030 -1.6875  0.3280
 8029TIP3    H224052   4.746   6.243   0.476 -0.4227  0.1387 -1.9123
 8030TIP3   OH224053   5.083   4.720   1.373  0.3977 -0.4166  0.4097
 8030TIP3    H124054   4.995   4.710   1.337 -0.3448 -0.3998  2.1176
 8030TIP3    H224055   5.136   4.656   1.326 -0.5348 -0.5033 -0.5647
 8031TIP3   OH224056   1.014   1.678   0.773 -0.3252 -0.0562  0.1781
 8031TIP3    H124057   0.966   1.739   0.829 -1.3514 -0.5205 -0.1572
 8031TIP3    H224058   1.030   1.602   0.828  0.4478  0.2762  0.4254
 8032TIP3   OH224059   2.158   5.183   2.917  0.0856  0.3226  0.1790
 8032TIP3    H124060   2.163   5.226   3.002  3.0332  0.9891 -0.2283
 8032TIP3    H224061   2.115   5.246   2.860  1.2816  1.3709  0.3923
 8033TIP3   OH224062   4.697   5.525   3.298  0.1295 -0.0283 -0.1426
 8033TIP3    H124063   4.625   5.465   3.320  0.2790  0.1270  0.8205
 8033TIP3    H224064   4.672   5.562   3.214 -1.2394  0.4939  0.4660
 8034TIP3   OH224065   1.256   5.693   1.382 -0.1663 -0.5085 -0.6181
 8034TIP3    H124066   1.177   5.729   1.343  0.2246  1.1216  0.0190
 8034TIP3    H224067   1.320   5.764   1.378  0.3443 -0.7647  1.5805
 8035TIP3   OH224068   4.249   5.492   1.414 -0.3811 -0.4968 -0.2127
 8035TIP3    H124069   4.168   5.442   1.401 -0.1721 -1.3804  1.5760
 8035TIP3    H224070   4.238   5.571   1.360 -2.6080 -0.3971  0.3016
 8036TIP3   OH224071   2.543   5.537   1.155 -0.1718  0.2873 -0.1874
 8036TIP3    H124072   2.519   5.550   1.063 -2.3485 -0.2728  0.2469
 8036TIP3    H224073   2.520   5.620   1.198 -3.5837 -0.8932  0.5960
 8037TIP3   OH224074   4.816   5.624   1.348 -0.0722  0.4319  0.6304
 8037TIP3    H124075   4.812   5.584   1.260  2.9269 -0.9166  0.9886
 8037TIP3    H224076   4.881   5.694   1.339 -0.3837  0.8514  1.5894
 8038TIP3   OH224077   0.020   5.428   2.063 -0.3707 -0.1072 -0.1253
 8038TIP3    H124078   0.112   5.403   2.062  0.2951  2.1428  0.7351
 8038TIP3    H224079  -0.001   5.443   1.971 -0.2589 -1.7517 -0.4577
 8039TIP3   OH224080   2.562   4.246   4.395 -0.4129 -0.2900  0.1939
 8039TIP3    H124081   2.538   4.228   4.304 -0.6144 -0.5944  0.3044
 8039TIP3    H224082   2.502   4.315   4.422 -0.8378 -0.7030  0.3159
 8040TIP3   OH224083   3.360   2.144   0.222  0.4520  0.0169  0.5714
 8040TIP3    H124084   3.300   2.143   0.296  1.7015 -0.2188  1.6175
 8040TIP3    H224085   3.438   2.189   0.255  0.8733  0.3029 -0.7441
 8041TIP3   OH224086   2.654   0.529   3.456  0.5387 -0.4731 -0.2708
 8041TIP3    H124087   2.701   0.454   3.417  0.2859 -3.2527  4.0911
 8041TIP3    H224088   2.562   0.510   3.440  0.5237  0.2197 -1.1084
 8042TIP3   OH224089   0.055   2.030   0.592 -0.1881 -0.3263  0.1265
 8042TIP3    H124090   0.136   2.069   0.624 -0.8284  0.4933  0.8015
 8042TIP3    H224091   0.026   1.974   0.663  0.4634 -1.6926 -0.6431
 8043TIP3   OH224092   5.297   5.720   0.342  0.2978  0.4576 -0.0525
 8043TIP3    H124093   5.350   5.737   0.419 -1.3211  0.8063  1.0471
 8043TIP3    H224094   5.289   5.806   0.299 -0.1377  0.6058  0.3130
 8044TIP3   OH224095   7.148   0.382   2.412 -0.3777 -0.1820 -0.3522
 8044TIP3    H124096   7.167   0.306   2.467  0.7058 -0.3324 -0.9046
 8044TIP3    H224097   7.224   0.389   2.354 -0.6972  1.0144 -0.6548
 8045TIP3   OH224098   3.852   6.067   3.791 -0.0563  0.6316 -0.0878
 8045TIP3    H124099   3.815   5.981   3.770  1.8443 -0.4516  0.7224
 8045TIP3    H224100   3.856   6.112   3.707 -0.0242 -0.5174 -0.7280
 8046TIP3   OH224101   1.363   3.516   4.963 -0.2306  0.0554  0.1383
 8046TIP3    H124102   1.351   3.508   5.058  1.7515 -0.2019  0.4172
 8046TIP3    H224103   1.445   3.469   4.946 -1.3468 -1.2790 -1.9527
 8047TIP3   OH224104   1.733   1.784   1.231  0.6340 -0.0542  0.6217
 8047TIP3    H124105   1.689   1.867   1.213  0.4029 -0.4249 -0.6298
 8047TIP3    H224106   1.826   1.808   1.238  0.4124  0.5180  1.8179
 8048TIP3   OH224107   5.342   6.744   3.888  0.0965 -0.2963 -0.0463
 8048TIP3    H124108   5.357   6.700   3.971 -0.6996  0.6217  0.6122
 8048TIP3    H224109   5.247   6.757   3.885  0.3129  1.6342 -0.0389
 8049TIP3   OH224110   4.422   1.312   1.786  0.0792  0.0210  0.0954
 8049TIP3    H124111   4.473   1.366   1.847 -0.3755 -0.2072  0.6860
 8049TIP3    H224112   4.365   1.260   1.842  0.1929 -0.7553 -0.4873
 8050TIP3   OH224113   1.282   1.482   3.689  0.2754 -0.2121 -0.2498
 8050TIP3    H124114   1.305   1.441   3.605 -1.5193 -2.4061  0.2345
 8050TIP3    H224115   1.292   1.576   3.673  1.3055 -0.6273 -2.4844
 8051TIP3   OH224116   4.386   1.166   5.266 -0.2011  0.0960  0.2928
 8051TIP3    H124117   4.418   1.254   5.286 -3.3196  1.6556 -0.9661
 8051TIP3    H224118   4.407   1.114   5.344 -0.0758  2.4655  1.9340
 8052TIP3   OH224119   0.117   4.965   0.825 -0.2548  0.0718 -0.2300
 8052TIP3    H124120   0.156   5.022   0.759 -0.0686 -0.7291 -0.8314
 8052TIP3    H224121   0.139   5.006   0.909  1.0992  0.1446 -0.5908
 8053TIP3   OH224122   7.198   3.463   0.274  0.3776  0.3902  0.1282
 8053TIP3    H124123   7.199   3.538   0.214  1.6013  0.0111 -0.3521
 8053TIP3    H224124   7.184   3.501   0.360 -0.6683  1.0139 -0.2977
 8054TIP3   OH224125   4.053   2.038   2.579 -0.7926  0.0776 -0.4903
 8054TIP3    H124126   4.087   2.110   2.631 -2.1179 -1.3830  2.7095
 8054TIP3    H224127   3.962   2.062   2.562 -1.1507 -0.6366  0.3266
 8055TIP3   OH224128   4.274   1.062   5.586  0.1116  0.3739 -0.5295
 8055TIP3    H124129   4.284   1.072   5.680  0.3091 -2.3199 -0.1841
 8055TIP3    H224130   4.360   1.031   5.556 -0.5172 -0.8020 -1.2203
 8056TIP3   OH224131   6.598   0.408   1.835 -0.3374 -0.2341 -0.0799
 8056TIP3    H124132   6.529   0.453   1.786  0.2454  1.7122  0.7813
 8056TIP3    H224133   6.662   0.382   1.768 -2.0245 -2.5228 -0.9640
 8057TIP3   OH224134   4.837   0.539   4.172  0.6178  0.4647  0.2086
 8057TIP3    H124135   4.814   0.446   4.181  0.5590  0.3098 -1.3070
 8057TIP3    H224136   4.844   0.571   4.262 -1.6409 -0.4462  0.7645
 8058TIP3   OH224137   0.616   3.654   4.839 -0.1059  0.2898 -0.5023
 8058TIP3    H124138   0.557   3.582   4.817 -0.4498  0.3355  0.2320
 8058TIP3    H224139   0.619   3.654   4.935 -0.3807  1.4820 -0.4839
 8059TIP3   OH224140   3.227   3.418   0.123 -0.1675  0.5150 -0.0699
 8059TIP3    H124141   3.304   3.463   0.089 -1.1915  1.4696 -1.2335
 8059TIP3    H224142   3.187   3.378   0.046 -0.3803 -0.7213  0.6513
 8060TIP3   OH224143   5.574   6.329   4.447 -0.3556  0.2005 -0.8968
 8060TIP3    H124144   5.668   6.331   4.429 -0.0418 -0.2669  0.5860
 8060TIP3    H224145   5.538   6.274   4.377  0.5849 -0.3356 -0.9747
 8061TIP3   OH224146   0.030   2.129   5.615 -0.6298 -0.7371  0.7803
 8061TIP3    H124147   0.042   2.119   5.710  0.5363 -0.0504  0.7175
 8061TIP3    H224148   0.103   2.081   5.576 -0.4758 -0.1005  0.2604
 8062TIP3   OH224149   4.149   0.633   3.366 -0.1097 -0.3341 -0.0812
 8062TIP3    H124150   4.121   0.619   3.456 -0.7715 -0.4573 -0.2993
 8062TIP3    H224151   4.179   0.547   3.336  0.6623 -0.1682  0.2031
 8063TIP3   OH224152   4.898   3.088   0.243  0.7393 -0.5154 -0.7259
 8063TIP3    H124153   4.962   3.109   0.175  0.6179  0.4187 -0.5657
 8063TIP3    H224154   4.932   3.131   0.322 -1.2731  2.1003 -1.1568
 8064TIP3   OH224155   3.817   2.769   3.198  0.2216  0.0788  0.5242
 8064TIP3    H124156   3.824   2.847   3.144 -0.3279 -0.1540  0.1054
 8064TIP3    H224157   3.823   2.801   3.288  0.9652  0.4867  0.3358
 8065TIP3   OH224158   1.957   1.697   0.221 -0.6666  0.0995 -0.4971
 8065TIP3    H124159   2.017   1.633   0.182  0.5376  0.7854  0.1622
 8065TIP3    H224160   2.009   1.741   0.288 -1.1490  2.4277 -1.5477
 8066TIP3   OH224161   1.623   1.051   4.235 -0.4942 -0.3746 -0.1150
 8066TIP3    H124162   1.712   1.026   4.259 -0.6666 -1.6760 -0.7672
 8066TIP3    H224163   1.634   1.123   4.174  0.1946 -1.4767 -1.3483
 8067TIP3   OH224164   6.646   2.707   0.571  0.3135 -0.4342 -0.0082
 8067TIP3    H124165   6.706   2.681   0.641  1.0050  1.3279  0.1135
 8067TIP3    H224166   6.678   2.793   0.543 -0.0845 -0.9605 -2.3407
 8068TIP3   OH224167   5.285   6.454   2.011  0.2035  0.0610 -0.0953
 8068TIP3    H124168   5.287   6.457   2.107 -0.8339 -1.0508 -0.0140
 8068TIP3    H224169   5.355   6.393   1.988 -1.5143 -2.0928  0.1542
 8069TIP3   OH224170   1.036   1.633   0.223  0.0225 -0.1312  0.2697
 8069TIP3    H124171   0.947   1.615   0.251 -0.6659  0.8929 -1.1444
 8069TIP3    H224172   1.032   1.719   0.181  2.1095  0.9818  2.0930
 8070TIP3   OH224173   6.624   4.825   0.551  0.2038 -0.0029 -0.2086
 8070TIP3    H124174   6.701   4.859   0.598 -0.1421 -1.4854  1.5159
 8070TIP3    H224175   6.550   4.869   0.592 -0.1868 -2.1008  1.4953
 8071TIP3   OH224176   5.861   3.110   4.683 -0.0170  0.1530  0.4166
 8071TIP3    H124177   5.880   3.048   4.612 -2.0739 -0.8958  0.7071
 8071TIP3    H224178   5.846   3.054   4.759  1.0107  1.2076  1.4413
 8072TIP3   OH224179   2.627   4.767   3.167 -0.9848  0.6760  0.2567
 8072TIP3    H124180   2.625   4.759   3.072  0.4072  0.4522  0.2278
 8072TIP3    H224181   2.543   4.806   3.189 -2.1182 -0.9721 -0.8894
 8073TIP3   OH224182   3.692   1.590   4.946 -0.1127 -0.2413  0.1019
 8073TIP3    H124183   3.604   1.587   4.909 -0.1676  1.9842 -0.0870
 8073TIP3    H224184   3.749   1.556   4.877 -0.7229 -0.7043 -0.1746
 8074TIP3   OH224185   5.088   4.008   4.913 -0.4031  0.0302 -0.5768
 8074TIP3    H124186   5.009   4.061   4.905 -0.4721  0.0213  0.0029
 8074TIP3    H224187   5.151   4.050   4.855 -0.8195  0.0518 -1.0251
 8075TIP3   OH224188   5.051   4.535   0.224  0.6598  0.0765 -0.4914
 8075TIP3    H124189   5.082   4.498   0.306 -0.6888  1.7924  0.8604
 8075TIP3    H224190   5.058   4.630   0.236 -1.4635  0.4244 -1.5511
 8076TIP3   OH224191   2.228   6.141   2.928 -0.1274 -0.3829  0.4685
 8076TIP3    H124192   2.294   6.161   2.862  1.1011 -0.1226  1.7229
 8076TIP3    H224193   2.149   6.184   2.897  0.7131  0.6761 -0.2783
 8077TIP3   OH224194   2.041   2.728   2.933 -0.1453 -0.0750 -0.1722
 8077TIP3    H124195   2.092   2.664   2.982  1.3774  1.1276 -0.0968
 8077TIP3    H224196   2.053   2.702   2.841  1.1406  0.5223 -0.1978
 8078TIP3   OH224197   1.180   4.425   4.914  0.1763  0.3423 -0.1061
 8078TIP3    H124198   1.086   4.440   4.924  0.1095 -0.9907  1.9308
 8078TIP3    H224199   1.221   4.497   4.963  0.2501  0.9855 -1.0852
 8079TIP3   OH224200   2.233   3.927   3.666  0.2901 -0.0393  0.7193
 8079TIP3    H124201   2.162   3.987   3.688 -0.3465  0.4023 -2.1345
 8079TIP3    H224202   2.209   3.892   3.580  2.7776 -1.0626  0.3499
 8080TIP3   OH224203   3.422   3.489   3.643 -0.0866 -0.4627  0.0923
 8080TIP3    H124204   3.382   3.576   3.641  0.1702 -0.3460 -0.0255
 8080TIP3    H224205   3.350   3.429   3.627 -0.1237 -0.2236 -0.6836
 8081TIP3   OH224206   1.767   0.309   5.416  0.0103  0.1345  0.1491
 8081TIP3    H124207   1.837   0.372   5.401  0.5363 -0.6753 -0.9608
 8081TIP3    H224208   1.781   0.279   5.506  0.3840  0.8207  0.3253
 8082TIP3   OH224209   3.336   6.267   2.407 -0.1381 -0.6784  0.5437
 8082TIP3    H124210   3.400   6.204   2.439  1.1574  0.5891  0.5292
 8082TIP3    H224211   3.388   6.335   2.363 -1.2041  1.7814  2.7940
 8083TIP3   OH224212   6.678   2.410   0.362 -0.5728  0.2341  0.4900
 8083TIP3    H124213   6.596   2.445   0.329 -0.7121 -0.0954  0.4821
 8083TIP3    H224214   6.737   2.486   0.367 -0.8469  0.4514  0.4074
 8084TIP3   OH224215   6.355   1.795   1.607  0.7693 -0.4114  0.6897
 8084TIP3    H124216   6.367   1.709   1.567 -0.1149 -0.0259 -0.4982
 8084TIP3    H224217   6.353   1.856   1.532 -1.7787  0.2549  1.1820
 8085TIP3   OH224218   4.988   4.874   2.362 -0.8068  0.4232  0.4618
 8085TIP3    H124219   4.895   4.883   2.346 -0.4847  0.8835 -1.3500
 8085TIP3    H224220   4.995   4.809   2.432 -2.4169 -0.7022 -0.3852
 8086TIP3   OH224221   3.740   0.613   0.428 -0.8608  0.4185  0.6724
 8086TIP3    H124222   3.819   0.572   0.393 -1.9915 -0.5830 -0.8469
 8086TIP3    H224223   3.722   0.685   0.367 -0.4189  1.4842  1.7624
 8087TIP3   OH224224   6.638   3.248   0.971  0.4195  0.1062 -0.3001
 8087TIP3    H124225   6.569   3.240   0.905  0.2182 -1.4165  0.0583
 8087TIP3    H224226   6.614   3.186   1.040  0.1207  2.3086  1.7142
 8088TIP3   OH224227   2.842   1.127   1.318  0.6225  0.0514  0.0230
 8088TIP3    H124228   2.870   1.108   1.229 -0.6695 -2.3088  0.0264
 8088TIP3    H224229   2.921   1.113   1.371  2.1498  4.0982 -0.8565
 8089TIP3   OH224230   0.534   3.507   1.684 -0.1182 -0.2052  0.2240
 8089TIP3    H124231   0.535   3.571   1.613  0.6803 -0.6990 -0.2178
 8089TIP3    H224232   0.443   3.506   1.714 -0.1474  1.1111  0.2210
 8090TIP3   OH224233   4.983   0.185   5.266 -0.7016  0.1135 -0.2238
 8090TIP3    H124234   4.962   0.091   5.267 -0.2868  0.0187 -0.2510
 8090TIP3    H224235   5.072   0.190   5.301 -1.3133  0.6610  1.2991
 8091TIP3   OH224236   1.550   0.182   3.926 -0.2798 -0.5175  0.4713
 8091TIP3    H124237   1.644   0.165   3.920  0.1177  0.7738  2.2358
 8091TIP3    H224238   1.521   0.188   3.835  1.4769 -0.2896 -0.1100
 8092TIP3   OH224239   1.967   2.766   4.839 -0.0566 -0.5501 -0.4762
 8092TIP3    H124240   1.889   2.791   4.889  0.5199  1.7267 -0.6209
 8092TIP3    H224241   2.034   2.829   4.865  1.5672 -2.0407 -0.8589
 8093TIP3   OH224242   7.216   1.543   4.923  0.1031 -0.3847  0.0241
 8093TIP3    H124243   7.186   1.605   4.857  0.5732  0.3631  0.4921
 8093TIP3    H224244   7.234   1.462   4.875  3.3491  0.9667 -1.3347
 8094TIP3   OH224245   1.411   1.520   2.757 -0.0831  0.4535 -0.3927
 8094TIP3    H124246   1.377   1.464   2.827 -1.1820  0.3233 -1.0133
 8094TIP3    H224247   1.503   1.496   2.749  0.3093  1.1051  1.6246
 8095TIP3   OH224248   5.313   2.003   5.643 -0.0112 -0.2562  0.0081
 8095TIP3    H124249   5.396   1.955   5.633 -0.5639 -0.8548 -2.1247
 8095TIP3    H224250   5.261   1.948   5.701  0.5446 -0.6007  0.1905
 8096TIP3   OH224251   3.880   4.670   3.268  0.2266 -0.1184  0.0691
 8096TIP3    H124252   3.888   4.611   3.343  0.2571  0.1111  0.2502
 8096TIP3    H224253   3.971   4.686   3.241  0.2709  0.5024  0.5473
 8097TIP3   OH224254   7.058   5.771   5.527 -0.4397 -0.3956 -0.2033
 8097TIP3    H124255   6.979   5.802   5.483 -0.5427  2.2220  1.6426
 8097TIP3    H224256   7.047   5.675   5.529 -2.1071 -0.3551 -2.5328
 8098TIP3   OH224257   3.655   5.874   2.631  0.0231 -0.0870  0.4666
 8098TIP3    H124258   3.745   5.895   2.606  0.0127 -0.2189  0.3201
 8098TIP3    H224259   3.655   5.779   2.643  0.2682  0.0766  1.9188
 8099TIP3   OH224260   0.663   3.240   3.903 -0.3775 -0.4085 -0.0882
 8099TIP3    H124261   0.701   3.324   3.927 -1.3082  0.3481 -1.1606
 8099TIP3    H224262   0.633   3.203   3.986 -2.4140  1.5768  0.1667
 8100TIP3   OH224263   2.778   0.291   4.650 -0.0769 -0.6190 -0.2166
 8100TIP3    H124264   2.801   0.383   4.659  2.0122 -0.9575 -1.4659
 8100TIP3    H224265   2.800   0.253   4.736  0.5757 -0.2313 -0.2044
 8101TIP3   OH224266   0.802   5.313   3.787 -0.3526  0.1403  0.2118
 8101TIP3    H124267   0.802   5.319   3.692  0.2985 -0.3425  0.1760
 8101TIP3    H224268   0.817   5.221   3.806 -1.1995  0.1014  0.7894
 8102TIP3   OH224269   4.789   4.260   2.815  0.3300  0.2981 -0.0987
 8102TIP3    H124270   4.828   4.301   2.892 -0.8390 -0.0552  0.7182
 8102TIP3    H224271   4.695   4.265   2.830  0.1079 -1.1292 -0.7714
 8103TIP3   OH224272   1.583   0.284   0.203  0.5872  0.5181  0.1856
 8103TIP3    H124273   1.573   0.351   0.270 -0.1668  1.8624 -1.1970
 8103TIP3    H224274   1.576   0.201   0.250 -2.1539  1.3754  1.4883
 8104TIP3   OH224275   4.645   6.735   1.224 -0.2259  0.3573 -0.2199
 8104TIP3    H124276   4.726   6.711   1.178 -0.9244 -0.8894 -0.8358
 8104TIP3    H224277   4.675   6.791   1.296  1.0134  1.3814 -1.4596
 8105TIP3   OH224278   2.394   1.572   3.977 -0.6859 -0.3865  0.2762
 8105TIP3    H124279   2.444   1.609   4.049  0.3751 -0.6136 -0.3226
 8105TIP3    H224280   2.426   1.482   3.968  1.3000  0.4615 -2.2575
 8106TIP3   OH224281   3.952   1.668   1.175 -0.0689 -0.5292  0.2565
 8106TIP3    H124282   3.988   1.672   1.263 -1.7660 -1.0986  1.0287
 8106TIP3    H224283   3.881   1.732   1.175 -0.0359 -0.4735 -0.7350
 8107TIP3   OH224284   1.170   3.689   4.885  0.4800 -0.0602 -0.2179
 8107TIP3    H124285   1.243   3.628   4.893  1.1712  0.5824 -1.3988
 8107TIP3    H224286   1.165   3.709   4.791  0.4910  1.9439  0.1776
 8108TIP3   OH224287   4.396   2.231   3.717 -0.3511  0.4991  0.4822
 8108TIP3    H124288   4.334   2.165   3.749  0.7267 -1.4539 -1.2302
 8108TIP3    H224289   4.410   2.289   3.792 -1.0941 -1.4139  2.1906
 8109TIP3   OH224290   4.779   4.053   0.138 -0.6450  0.6103  0.2924
 8109TIP3    H124291   4.826   4.135   0.153 -1.1823  0.7726  1.1944
 8109TIP3    H224292   4.732   4.067   0.055  0.0364  0.8435 -0.0594
 8110TIP3   OH224293   3.400   2.334   3.126  0.6580 -0.4250  0.0864
 8110TIP3    H124294   3.460   2.387   3.074  0.1388 -0.3552 -0.4535
 8110TIP3    H224295   3.318   2.336   3.077  0.7276 -2.0331 -0.1589
 8111TIP3   OH224296   0.390   6.170   3.717 -0.2582  0.4047 -0.1195
 8111TIP3    H124297   0.471   6.181   3.767 -0.4628  0.7286  0.1417
 8111TIP3    H224298   0.321   6.167   3.783 -0.4848  0.3848 -0.3557
 8112TIP3   OH224299   1.702   5.792   4.891  0.1394  0.3528 -0.8459
 8112TIP3    H124300   1.686   5.743   4.810 -0.1291 -0.4397 -0.3294
 8112TIP3    H224301   1.795   5.814   4.888 -0.1780  1.6188 -2.0588
 8113TIP3   OH224302   4.023   0.833   3.227  0.6224  0.1417  0.5143
 8113TIP3    H124303   4.069   0.779   3.291  1.5754 -1.0522 -1.1050
 8113TIP3    H224304   4.069   0.819   3.145 -1.4824  0.3802 -0.8024
 8114TIP3   OH224305   1.318   1.806   1.844  0.3137 -0.4578  0.4738
 8114TIP3    H124306   1.296   1.846   1.928  1.0045  0.3784  0.2759
 8114TIP3    H224307   1.234   1.797   1.799 -0.3397 -2.7971  2.0179
 8115TIP3   OH224308   3.353   1.243   4.357  0.3805 -0.0568  0.6958
 8115TIP3    H124309   3.285   1.273   4.417 -1.4013  0.1267 -1.2841
 8115TIP3    H224310   3.337   1.150   4.347 -0.5346  0.2289 -0.8368
 8116TIP3   OH224311   3.036   1.995   0.172 -0.1020 -0.7936 -0.1931
 8116TIP3    H124312   2.994   2.078   0.151 -2.8809 -2.2623 -0.9238
 8116TIP3    H224313   3.105   1.985   0.107 -0.3222  0.5166 -0.6540
 8117TIP3   OH224314   6.084   6.472   4.259 -0.3732 -0.0713 -0.1279
 8117TIP3    H124315   6.164   6.420   4.253  0.1914  0.7707  0.1042
 8117TIP3    H224316   6.047   6.469   4.171  0.3114  0.1745 -0.4283
 8118TIP3   OH224317   4.305   5.702   4.845 -0.1278 -0.1069 -0.1590
 8118TIP3    H124318   4.211   5.708   4.827 -0.2354 -0.3941  0.2829
 8118TIP3    H224319   4.322   5.770   4.909  0.7884  2.8255 -3.2244
 8119TIP3   OH224320   1.838   2.061   2.461 -0.5701  0.3330 -0.1239
 8119TIP3    H124321   1.825   1.971   2.430  1.3568 -0.2371  0.5280
 8119TIP3    H224322   1.849   2.113   2.382 -0.4659 -0.2383 -0.4904
 8120TIP3   OH224323   2.293   3.667   0.311  0.3120 -0.1290 -0.0122
 8120TIP3    H124324   2.366   3.662   0.373 -0.7881  0.3559  1.3760
 8120TIP3    H224325   2.268   3.575   0.297  0.5579 -0.2444  0.2816
 8121TIP3   OH224326   5.746   2.381   4.947  0.3044 -0.5097  0.3337
 8121TIP3    H124327   5.693   2.339   5.015 -0.9219 -0.3600 -0.5120
 8121TIP3    H224328   5.701   2.463   4.929  0.6168 -0.5465 -0.6746
 8122TIP3   OH224329   2.875   4.728   1.611 -0.0013 -0.1123 -0.5321
 8122TIP3    H124330   2.840   4.807   1.570 -0.8314 -0.6603 -0.8966
 8122TIP3    H224331   2.865   4.743   1.705  0.1824  0.3589 -0.5823
 8123TIP3   OH224332   1.090   2.171   3.793 -0.4258 -0.1093 -0.2630
 8123TIP3    H124333   1.134   2.253   3.812  0.6725  0.5333 -4.5355
 8123TIP3    H224334   0.996   2.192   3.796 -0.1674  1.2022 -0.8922
 8124TIP3   OH224335   1.936   1.328   1.824  0.3412  0.1949  0.0361
 8124TIP3    H124336   2.000   1.335   1.895  1.6991 -1.2389 -1.0033
 8124TIP3    H224337   1.960   1.248   1.777 -0.8390  0.8311 -1.7467
 8125TIP3   OH224338   3.079   0.974   2.545 -0.8996 -0.3143 -0.3578
 8125TIP3    H124339   3.165   1.002   2.574 -0.1690 -1.1280 -1.6163
 8125TIP3    H224340   3.018   1.006   2.612  0.3684  0.3028  0.5226
 8126TIP3   OH224341   0.407   4.620   1.801 -0.3678 -0.7102 -0.1869
 8126TIP3    H124342   0.411   4.526   1.813  0.5061 -0.8314 -1.2988
 8126TIP3    H224343   0.376   4.632   1.712  0.6622  0.0230 -0.4658
 8127TIP3   OH224344   1.684   2.586   0.456  0.0031 -0.0862  0.1566
 8127TIP3    H124345   1.749   2.543   0.512 -0.3676 -1.2046 -0.2451
 8127TIP3    H224346   1.672   2.673   0.495 -0.2580 -0.8356  1.8259
 8128TIP3   OH224347   1.134   5.579   1.668 -0.0238  0.0371 -0.2992
 8128TIP3    H124348   1.129   5.660   1.618  1.6221 -1.0354 -2.3648
 8128TIP3    H224349   1.044   5.561   1.695 -0.5964  1.9047 -0.8431
 8129TIP3   OH224350   6.163   2.139   4.976 -0.0352 -0.2461  0.0257
 8129TIP3    H124351   6.163   2.222   4.927 -2.1972  0.3455  0.9335
 8129TIP3    H224352   6.075   2.104   4.964  0.8478 -2.4869 -0.3658
 8130TIP3   OH224353   4.317   2.577   4.321  0.0303 -0.3278 -0.0471
 8130TIP3    H124354   4.235   2.608   4.360 -0.8774  0.1085 -2.1294
 8130TIP3    H224355   4.370   2.657   4.311  1.2854 -0.7592  2.3700
 8131TIP3   OH224356   1.259   5.860   0.724  0.5910 -0.0570 -0.1328
 8131TIP3    H124357   1.326   5.835   0.787 -1.2416  1.0027  2.4336
 8131TIP3    H224358   1.255   5.956   0.730 -1.3414 -0.1135  0.0509
 8132TIP3   OH224359   2.255   0.805   4.363 -0.4581 -0.0017  0.3908
 8132TIP3    H124360   2.191   0.784   4.431 -0.0220  0.7795  1.0545
 8132TIP3    H224361   2.337   0.820   4.410 -0.5407  2.3195 -0.0948
 8133TIP3   OH224362   0.231   0.030   5.092 -1.0394  1.1506 -0.2771
 8133TIP3    H124363   0.258   0.018   5.001 -0.3805 -0.6515  0.1293
 8133TIP3    H224364   0.147   0.075   5.086 -1.1935  0.7026 -1.7876
 8134TIP3   OH224365   4.676   1.872   1.852  0.3092 -0.0095 -1.0277
 8134TIP3    H124366   4.647   1.880   1.943  0.7445 -1.0732 -0.7837
 8134TIP3    H224367   4.654   1.956   1.813  0.8675  0.7785  0.2763
 8135TIP3   OH224368   4.805   1.657   5.176  0.5235 -0.0129  0.1354
 8135TIP3    H124369   4.850   1.679   5.094  1.0462 -2.4623 -0.3153
 8135TIP3    H224370   4.741   1.590   5.150  0.0726 -0.1728  1.6059
 8136TIP3   OH224371   3.724   0.582   3.099 -0.3804 -0.0857 -0.3343
 8136TIP3    H124372   3.760   0.539   3.176 -0.1165 -2.5779 -1.7371
 8136TIP3    H224373   3.717   0.674   3.123 -1.4838 -0.9244  3.0812
 8137TIP3   OH224374   0.831   1.973   4.598  0.3367  0.4400  0.0458
 8137TIP3    H124375   0.783   2.055   4.585 -0.6584  0.1145  1.4441
 8137TIP3    H224376   0.838   1.936   4.510  0.5607  1.8786 -0.5736
 8138TIP3   OH224377   2.578   4.236   3.184 -0.4719  0.3950 -0.3327
 8138TIP3    H124378   2.624   4.162   3.223  0.1417  1.6009  1.3819
 8138TIP3    H224379   2.584   4.305   3.251 -2.2851  1.5176 -1.2663
 8139TIP3   OH224380   4.615   5.410   2.110 -0.2768 -0.1939 -0.5952
 8139TIP3    H124381   4.528   5.379   2.135  0.7674 -2.9587  0.0034
 8139TIP3    H224382   4.633   5.366   2.026  1.2964 -1.3558  0.2928
 8140TIP3   OH224383   4.955   3.647   2.807 -0.6265 -0.5016  0.1555
 8140TIP3    H124384   4.882   3.685   2.757 -2.2830 -0.5972  2.3383
 8140TIP3    H224385   4.997   3.723   2.849 -1.2032 -0.6543  1.0421
 8141TIP3   OH224386   6.093   2.588   1.820  0.1698  0.2448  0.5833
 8141TIP3    H124387   6.090   2.575   1.915 -0.0914  2.3980  0.9179
 8141TIP3    H224388   6.080   2.682   1.808  0.2671  0.0344 -1.5990
 8142TIP3   OH224389   7.035   0.162   0.601 -0.3776 -0.4952 -0.0195
 8142TIP3    H124390   6.944   0.177   0.626 -0.8774 -0.7529 -1.5549
 8142TIP3    H224391   7.082   0.239   0.635 -1.2933 -0.0007  0.1676
 8143TIP3   OH224392   6.793   5.002   5.140  0.4855 -0.2357 -0.0815
 8143TIP3    H124393   6.698   5.012   5.144  0.5403  0.4259 -0.3769
 8143TIP3    H224394   6.820   4.995   5.232  0.2871  0.9290  0.0775
 8144TIP3   OH224395   6.827   1.012   4.630 -0.1449 -0.5557 -0.2028
 8144TIP3    H124396   6.759   0.969   4.683 -0.1914 -1.9323 -1.3124
 8144TIP3    H224397   6.778   1.070   4.571 -0.2322 -0.3503  0.0724
 8145TIP3   OH224398   6.627   4.237   2.546 -0.0060  0.2203  0.3670
 8145TIP3    H124399   6.611   4.168   2.610 -1.0250 -0.1491 -0.2679
 8145TIP3    H224400   6.647   4.315   2.599  0.2627 -0.3367  1.0997
 8146TIP3   OH224401   2.521   3.198   1.016  0.0873  0.1756  0.4600
 8146TIP3    H124402   2.505   3.206   1.110  0.9271  1.1120  0.5309
 8146TIP3    H224403   2.616   3.205   1.007 -0.0966  1.9732 -0.6050
 8147TIP3   OH224404   5.395   4.467   3.511 -0.6941 -0.1379 -0.0885
 8147TIP3    H124405   5.477   4.511   3.490 -0.2264 -1.3087 -0.7935
 8147TIP3    H224406   5.351   4.526   3.572  0.2554  0.9316 -0.4093
 8148TIP3   OH224407   6.697   0.005   4.969  0.4857 -0.4699 -0.2993
 8148TIP3    H124408   6.618   0.004   5.024  0.5248  0.3799 -0.2241
 8148TIP3    H224409   6.769  -0.000   5.031  0.5621  1.4466 -0.1796
 8149TIP3   OH224410   1.719   2.902   4.716 -0.4125  0.1281  0.0338
 8149TIP3    H124411   1.735   2.823   4.665  0.6555 -0.3964  1.1192
 8149TIP3    H224412   1.670   2.873   4.793 -1.0682  0.7250 -0.1467
 8150TIP3   OH224413   3.875   5.681   5.141 -0.3469 -0.8982 -0.1134
 8150TIP3    H124414   3.949   5.625   5.166 -0.8116 -1.5386 -0.1448
 8150TIP3    H224415   3.872   5.676   5.046  0.2543  0.0290 -0.1929
 8151TIP3   OH224416   2.052   0.910   3.632 -0.8616 -0.2175  0.2388
 8151TIP3    H124417   2.032   0.820   3.660 -1.1525 -0.3601 -0.4155
 8151TIP3    H224418   1.978   0.962   3.664 -0.4970 -0.1272  0.9785
 8152TIP3   OH224419   0.645   3.962   3.947 -0.1521 -0.2044 -1.1945
 8152TIP3    H124420   0.715   3.952   3.883 -0.6806  0.6750 -1.9304
 8152TIP3    H224421   0.576   4.009   3.901 -1.2428 -1.0396 -0.4862
 8153TIP3   OH224422   6.533   5.941   5.531  0.4582 -0.1805  0.3684
 8153TIP3    H124423   6.518   5.970   5.621  2.3507 -0.2068  0.7225
 8153TIP3    H224424   6.484   5.859   5.525  0.7326 -0.4631  1.5589
 8154TIP3   OH224425   6.774   5.784   4.253  0.1133  0.0906 -0.2854
 8154TIP3    H124426   6.807   5.703   4.214  0.2713 -0.2747  0.5980
 8154TIP3    H224427   6.776   5.768   4.347 -0.2855  0.9590 -0.1242
 8155TIP3   OH224428   4.458   4.195   5.707  0.5070 -0.5673  0.9364
 8155TIP3    H124429   4.505   4.210   5.625  1.0679  1.7324  1.6071
 8155TIP3    H224430   4.369   4.174   5.680  0.8266 -0.4272 -0.2699
 8156TIP3   OH224431   3.061   5.049   4.028 -0.1933 -0.3239  0.0598
 8156TIP3    H124432   3.021   5.040   4.115  1.0370 -2.3558  0.4768
 8156TIP3    H224433   3.042   4.966   3.984  2.1318 -0.7419 -0.2964
 8157TIP3   OH224434   0.165   4.644   4.558 -0.3450 -0.0253  0.0405
 8157TIP3    H124435   0.147   4.569   4.615 -3.3604  1.2288  0.9149
 8157TIP3    H224436   0.101   4.637   4.488 -0.4048  1.4683 -0.0844
 8158TIP3   OH224437   1.589   0.808   1.948  0.3284  0.0635  1.0502
 8158TIP3    H124438   1.672   0.856   1.938 -0.3568  1.0634 -0.1567
 8158TIP3    H224439   1.586   0.750   1.872 -0.2176  0.2650  0.9129
 8159TIP3   OH224440   7.147   4.426   0.079 -0.4012  0.1942 -0.7383
 8159TIP3    H124441   7.171   4.509   0.037 -0.1213 -0.6165 -2.2760
 8159TIP3    H224442   7.230   4.392   0.112 -0.1882 -0.3299 -1.7686
 8160TIP3   OH224443   3.633   5.912   2.915 -0.6994 -0.0715 -0.2699
 8160TIP3    H124444   3.622   5.894   2.822  0.2206  0.8965 -0.5888
 8160TIP3    H224445   3.544   5.931   2.947 -0.9024  0.5238 -1.1649
 8161TIP3   OH224446   1.258   2.638   2.600 -0.0110  0.0372  0.0061
 8161TIP3    H124447   1.326   2.690   2.644 -0.9840  0.7138  0.7357
 8161TIP3    H224448   1.307   2.576   2.545  1.2963 -1.2879  2.4851
 8162TIP3   OH224449   6.498   5.891   1.319 -0.1845 -0.1580  0.1117
 8162TIP3    H124450   6.522   5.806   1.356 -1.3462 -0.7339 -0.4029
 8162TIP3    H224451   6.520   5.954   1.388 -0.7960 -1.0439  1.1521
 8163TIP3   OH224452   3.085   4.002   3.606  0.0831 -0.4229 -0.2043
 8163TIP3    H124453   2.990   3.997   3.608  0.0107  0.6606  1.5852
 8163TIP3    H224454   3.106   4.045   3.523 -1.0348  0.0046 -0.2769
 8164TIP3   OH224455   5.331   2.987   0.047  0.5434 -0.2158  0.5813
 8164TIP3    H124456   5.419   3.026   0.044 -0.0376  1.1215  0.2733
 8164TIP3    H224457   5.320   2.960   0.138  1.1267 -0.0426  0.7096
 8165TIP3   OH224458   0.889   3.423   0.289  0.4124 -0.1976  0.4834
 8165TIP3    H124459   0.918   3.514   0.281 -0.8160  0.2202  0.7077
 8165TIP3    H224460   0.969   3.372   0.277  0.5802  0.7068 -3.6639
 8166TIP3   OH224461   6.476   1.164   2.311 -0.3411  0.2888 -0.1314
 8166TIP3    H124462   6.565   1.199   2.308 -0.5156  0.9037  1.1391
 8166TIP3    H224463   6.485   1.072   2.286  0.1931  1.0487 -3.1542
 8167TIP3   OH224464   4.501   5.442   5.252 -0.3168 -0.1483  0.0509
 8167TIP3    H124465   4.523   5.395   5.172 -2.2111  1.2838 -1.4082
 8167TIP3    H224466   4.536   5.530   5.238 -0.3744  0.0239  0.9594
 8168TIP3   OH224467   6.981   6.607   5.575  0.6548  0.2681  0.1933
 8168TIP3    H124468   7.000   6.518   5.545  0.1497 -0.2086  1.2383
 8168TIP3    H224469   6.985   6.601   5.670  0.9292  1.4417  0.2631
 8169TIP3   OH224470   0.182   6.438   5.505 -0.2866  0.2881  0.4007
 8169TIP3    H124471   0.234   6.398   5.575 -1.1605 -3.2481 -0.7339
 8169TIP3    H224472   0.240   6.438   5.429 -0.3313  1.1566  0.3628
 8170TIP3   OH224473   4.374   0.105   2.280  0.1528  0.1981  0.0304
 8170TIP3    H124474   4.317   0.165   2.232  0.6223  0.6809  0.0661
 8170TIP3    H224475   4.456   0.105   2.231 -0.2078 -1.3339 -0.6420
 8171TIP3   OH224476   2.264   5.225   5.285  0.0148  0.3323 -0.2483
 8171TIP3    H124477   2.255   5.171   5.363 -0.6720  0.5787 -0.1478
 8171TIP3    H224478   2.289   5.311   5.318  0.4560  0.2492 -0.3590
 8172TIP3   OH224479   7.081   6.304   2.869  0.1051 -0.3769 -0.7581
 8172TIP3    H124480   7.101   6.223   2.915 -0.3976  0.8951  1.9283
 8172TIP3    H224481   6.986   6.303   2.857 -0.1302  0.4241  0.7202
 8173TIP3   OH224482   1.943   0.351   2.377  0.3025 -0.1578  0.6207
 8173TIP3    H124483   1.877   0.308   2.431 -0.6003 -0.0362 -0.3607
 8173TIP3    H224484   2.020   0.294   2.381 -0.0096 -0.5201  1.4185
 8174TIP3   OH224485   1.174   6.071   4.766  0.6939  0.6040  0.6384
 8174TIP3    H124486   1.245   6.121   4.726 -0.5149  0.3975 -2.0016
 8174TIP3    H224487   1.202   5.980   4.760 -0.6162  0.2755 -2.6263
 8175TIP3   OH224488   1.737   1.933   0.763  0.4591  0.2302 -0.3743
 8175TIP3    H124489   1.665   1.926   0.826  0.1664 -0.0325 -0.7336
 8175TIP3    H224490   1.795   1.860   0.785 -1.0912 -1.7136 -2.2141
 8176TIP3   OH224491   2.778   1.388   2.741  0.1648  0.3727 -0.6630
 8176TIP3    H124492   2.696   1.418   2.780 -0.2152 -0.4584 -0.8062
 8176TIP3    H224493   2.845   1.413   2.804 -0.0468  2.0805 -1.0629
 8177TIP3   OH224494   4.672   4.217   3.545 -0.0792  0.8460 -0.3769
 8177TIP3    H124495   4.608   4.149   3.528 -0.3987  1.0144  0.1293
 8177TIP3    H224496   4.622   4.288   3.585  0.4663  0.8543  0.3131
 8178TIP3   OH224497   2.723   0.194   2.248 -0.6176  0.1032  0.4649
 8178TIP3    H124498   2.785   0.170   2.180  0.3061  1.7750  0.6479
 8178TIP3    H224499   2.654   0.242   2.201 -0.6446  0.1410  0.5432
 8179TIP3   OH224500   7.114   6.211   4.136 -0.5069  0.3466 -0.2715
 8179TIP3    H124501   7.030   6.238   4.172  0.0451  0.6904  0.8233
 8179TIP3    H224502   7.174   6.281   4.160 -0.5366  1.8819 -4.0564
 8180TIP3   OH224503   2.640   3.844   4.913 -0.6111 -0.0654 -0.1366
 8180TIP3    H124504   2.632   3.797   4.830  2.0253 -0.4145 -0.2622
 8180TIP3    H224505   2.566   3.904   4.914 -1.0276 -0.4683 -2.4620
 8181TIP3   OH224506   6.229   1.237   5.802  0.0670 -0.7207 -0.8177
 8181TIP3    H124507   6.187   1.244   5.888  0.5648  1.3304 -0.6935
 8181TIP3    H224508   6.240   1.143   5.789  1.2349 -1.0912  1.9743
 8182TIP3   OH224509   2.376   3.035   3.337 -0.2711  0.2150  0.1274
 8182TIP3    H124510   2.337   2.948   3.322  0.6815 -0.1421 -0.3062
 8182TIP3    H224511   2.324   3.094   3.283  1.2185 -0.6094 -2.3590
 8183TIP3   OH224512   4.426   2.278   4.827 -0.2556 -0.3431  0.2572
 8183TIP3    H124513   4.431   2.254   4.919  0.9092  0.9957  0.5744
 8183TIP3    H224514   4.333   2.292   4.810 -0.4012  0.1951  1.4470
 8184TIP3   OH224515   6.423   4.348   0.926 -0.0609  0.7976  0.0806
 8184TIP3    H124516   6.514   4.318   0.925 -0.0014  0.8838 -2.2119
 8184TIP3    H224517   6.422   4.420   0.989  1.1129 -0.1392  1.2131
 8185TIP3   OH224518   3.776   3.414   0.878 -0.5343 -0.4312  0.5511
 8185TIP3    H124519   3.728   3.331   0.871 -0.4795 -0.3422 -2.6382
 8185TIP3    H224520   3.711   3.480   0.853  0.1469  0.1408  0.2744
 8186TIP3   OH224521   3.358   6.736   3.266 -0.5093 -0.2911  0.4152
 8186TIP3    H124522   3.409   6.666   3.224  0.1906  1.0978 -1.1970
 8186TIP3    H224523   3.357   6.713   3.359  1.7066 -1.2312  0.2722
 8187TIP3   OH224524   3.395   6.717   4.551  0.1033 -0.1425  0.3324
 8187TIP3    H124525   3.450   6.762   4.616  0.1711 -1.6973  1.4037
 8187TIP3    H224526   3.307   6.717   4.591 -0.3558  0.8366 -0.6109
 8188TIP3   OH224527   6.907   2.391   4.631 -0.2921  0.5484  0.0684
 8188TIP3    H124528   6.952   2.310   4.609 -1.1238  0.3088 -0.8221
 8188TIP3    H224529   6.815   2.375   4.607 -0.4218  1.8366 -0.3930
 8189TIP3   OH224530   2.958   0.500   1.223  0.1793 -0.3386 -0.2489
 8189TIP3    H124531   2.930   0.574   1.169 -1.0125 -2.0646 -2.0846
 8189TIP3    H224532   2.939   0.529   1.313 -1.0546  1.2736 -0.9668
 8190TIP3   OH224533   3.030   1.251   4.795 -0.2170  0.6360 -0.1727
 8190TIP3    H124534   2.999   1.204   4.717  0.4420  0.0332 -0.0769
 8190TIP3    H224535   2.953   1.298   4.827 -1.4842 -2.0153  0.9557
 8191TIP3   OH224536   0.943   1.564   1.236 -0.1807 -0.4692  0.0812
 8191TIP3    H124537   0.923   1.657   1.241 -2.2168 -0.9157  1.0773
 8191TIP3    H224538   0.962   1.548   1.144 -0.9364  0.7160 -0.2950
 8192TIP3   OH224539   5.778   6.685   0.572 -0.7140 -0.2575 -0.1057
 8192TIP3    H124540   5.856   6.704   0.520 -0.4390 -0.3475  0.2722
 8192TIP3    H224541   5.728   6.767   0.569 -0.2226  0.0643  0.3158
 8193TIP3   OH224542   0.533   2.913   5.562  0.0907  0.8508  0.1975
 8193TIP3    H124543   0.516   2.986   5.621 -0.3463  0.7492  0.1978
 8193TIP3    H224544   0.628   2.901   5.565  0.1198  1.1631  0.5006
 8194TIP3   OH224545   4.188   4.579   0.199 -0.0585 -0.1776  0.5540
 8194TIP3    H124546   4.250   4.527   0.250  0.9828  2.4034  2.1172
 8194TIP3    H224547   4.243   4.640   0.149 -1.2365  0.5567  0.1068
 8195TIP3   OH224548   1.409   4.422   4.329 -0.0555  0.0290 -0.1548
 8195TIP3    H124549   1.494   4.412   4.286  0.7259 -2.3541  1.7353
 8195TIP3    H224550   1.346   4.420   4.258  1.3144 -1.3362 -1.4041
 8196TIP3   OH224551   2.234   6.756   1.371 -0.0900 -0.3968  0.1026
 8196TIP3    H124552   2.184   6.773   1.291 -1.2953  0.1486  0.9359
 8196TIP3    H224553   2.221   6.835   1.425  0.8378 -0.6789  0.7633
 8197TIP3   OH224554   5.282   4.349   1.039 -0.2846  0.4307  0.2755
 8197TIP3    H124555   5.361   4.397   1.060 -0.5120  0.6623  0.6228
 8197TIP3    H224556   5.304   4.298   0.961 -0.3167  1.7721 -0.6313
 8198TIP3   OH224557   3.150   2.983   0.618  0.4614 -0.5988  0.0600
 8198TIP3    H124558   3.071   2.985   0.671 -0.1934  0.4600 -0.9164
 8198TIP3    H224559   3.215   2.939   0.673 -0.0661  0.7878  1.9015
 8199TIP3   OH224560   4.371   4.881   4.491  1.1012 -0.1101  0.4289
 8199TIP3    H124561   4.319   4.866   4.413  1.1475  0.1587  0.3459
 8199TIP3    H224562   4.462   4.873   4.462  1.1699  1.3691  0.1462
 8200TIP3   OH224563   2.686   3.110   5.110 -0.1940 -0.2690 -0.3848
 8200TIP3    H124564   2.738   3.043   5.066 -1.6131 -2.0256  0.5076
 8200TIP3    H224565   2.623   3.139   5.044 -0.3435 -0.6698 -0.4168
 8201TIP3   OH224566   1.498   1.042   0.258  0.6233  0.4089  0.0127
 8201TIP3    H124567   1.479   0.996   0.176 -0.9792  0.3041  0.4153
 8201TIP3    H224568   1.590   1.067   0.250  0.9466 -0.9706 -1.1448
 8202TIP3   OH224569   0.542   2.846   3.129  0.2074 -0.5372  0.0376
 8202TIP3    H124570   0.482   2.905   3.175 -1.1823 -2.1635  0.4086
 8202TIP3    H224571   0.485   2.793   3.073  1.1441 -2.8218  1.1441
 8203TIP3   OH224572   0.570   2.564   0.997  0.1261 -0.0992  0.1051
 8203TIP3    H124573   0.569   2.658   0.978  0.0382 -0.0908  0.1529
 8203TIP3    H224574   0.487   2.547   1.042 -0.6474 -0.5003 -1.3767
 8204TIP3   OH224575   2.850   6.707   4.220 -1.0944  0.0971  0.0528
 8204TIP3    H124576   2.823   6.798   4.220  0.8346  0.7427 -0.9795
 8204TIP3    H224577   2.826   6.675   4.133  2.3799  1.1115 -1.4736
 8205TIP3   OH224578   0.490   6.235   2.501  0.6736 -0.0220  0.0577
 8205TIP3    H124579   0.515   6.247   2.593  0.9400 -0.2074  0.0129
 8205TIP3    H224580   0.409   6.285   2.491  2.1847  2.4925 -0.3601
 8206TIP3   OH224581   5.586   1.749   2.690  0.5492  0.0963 -0.1157
 8206TIP3    H124582   5.612   1.809   2.760 -1.3548 -1.5565  2.1892
 8206TIP3    H224583   5.668   1.708   2.662  1.1853 -1.0137  3.0129
 8207TIP3   OH224584   2.281   5.286   2.127 -0.0570  0.4726  0.2540
 8207TIP3    H124585   2.241   5.371   2.148 -0.6138  0.2027  0.3141
 8207TIP3    H224586   2.237   5.258   2.047 -0.7391 -0.3032  0.8795
 8208TIP3   OH224587   0.818   5.768   0.378 -0.6655 -0.4083  0.2431
 8208TIP3    H124588   0.860   5.687   0.353  1.3411  0.6936 -0.1458
 8208TIP3    H224589   0.828   5.772   0.473 -0.1110 -0.2987  0.1856
 8209TIP3   OH224590   1.634   5.832   5.295  0.7550  0.3187 -0.1530
 8209TIP3    H124591   1.608   5.843   5.203  0.9120  1.4387 -0.0729
 8209TIP3    H224592   1.716   5.880   5.303  1.5531 -1.0759  0.2182
 8210TIP3   OH224593   1.996   4.037   4.459  0.1342 -0.6909  0.3804
 8210TIP3    H124594   1.974   3.961   4.513  0.7082 -0.4386  0.9796
 8210TIP3    H224595   2.024   4.104   4.521 -0.7019  0.1400 -0.1130
 8211TIP3   OH224596   1.900   4.937   5.402  0.3550  0.2408  0.2522
 8211TIP3    H124597   1.954   4.998   5.352 -0.7751  0.9398 -0.1449
 8211TIP3    H224598   1.911   4.853   5.356 -2.3796  1.2931 -2.6582
 8212TIP3   OH224599   1.417   5.861   5.486  0.6169 -0.6583  0.0824
 8212TIP3    H124600   1.465   5.858   5.403  1.0553 -2.7032  0.3556
 8212TIP3    H224601   1.348   5.796   5.476  0.2090 -0.3880  1.0413
 8213TIP3   OH224602   3.011   5.990   4.693  0.8705  0.2318 -0.2703
 8213TIP3    H124603   3.013   6.014   4.785 -2.0370 -1.9201  0.5003
 8213TIP3    H224604   3.096   5.949   4.677  1.1657  0.0012  1.6618
 8214TIP3   OH224605   4.309   2.394   5.072 -0.4902 -0.3386  0.1998
 8214TIP3    H124606   4.236   2.380   5.131 -1.3251  0.2523 -0.6567
 8214TIP3    H224607   4.384   2.413   5.129 -0.7988 -1.7597  1.1100
 8215TIP3   OH224608   1.625   0.036   1.631  0.0519 -0.2145  0.1542
 8215TIP3    H124609   1.577  -0.042   1.602  0.8357 -0.9486  0.7831
 8215TIP3    H224610   1.621   0.096   1.556  0.4745 -1.3349 -0.7903
 8216TIP3   OH224611   4.586   2.901   2.851 -0.3510  0.4858 -0.3597
 8216TIP3    H124612   4.499   2.865   2.834  0.4392 -2.1784  0.7246
 8216TIP3    H224613   4.638   2.873   2.775  0.1706 -0.3061  0.2766
 8217TIP3   OH224614   2.465   2.994   4.931 -0.5428 -0.0693 -0.2038
 8217TIP3    H124615   2.444   3.005   5.024  1.6564 -0.1543  0.3685
 8217TIP3    H224616   2.429   2.909   4.908 -1.1920 -0.0105  0.5421
 8218TIP3   OH224617   2.201   3.849   4.040  0.2028 -0.2820  0.1842
 8218TIP3    H124618   2.198   3.825   3.947  0.1935 -1.8006  0.5504
 8218TIP3    H224619   2.217   3.943   4.039  0.3214 -0.2790 -1.3595
 8219TIP3   OH224620   0.083   2.403   1.578 -0.1344 -0.2007  0.4831
 8219TIP3    H124621   0.052   2.314   1.559 -0.7046  0.2363 -0.7091
 8219TIP3    H224622   0.153   2.418   1.514 -0.9703  0.7051 -0.2287
 8220TIP3   OH224623   3.428   4.519   5.018 -0.0810  0.7709  0.5120
 8220TIP3    H124624   3.497   4.579   4.988  0.2377  0.7437  1.1751
 8220TIP3    H224625   3.417   4.540   5.110 -0.3291  0.1512  0.6273
 8221TIP3   OH224626   4.241   1.430   4.814  0.7127 -0.2738 -0.2205
 8221TIP3    H124627   4.168   1.425   4.875  0.7989 -0.5283 -0.1381
 8221TIP3    H224628   4.205   1.401   4.730  0.2130  1.4589 -0.6402
 8222TIP3   OH224629   2.580   5.913   1.744 -0.5222 -0.1545  0.1111
 8222TIP3    H124630   2.598   5.831   1.790  0.0528  0.1428  0.4264
 8222TIP3    H224631   2.501   5.947   1.786 -0.3864 -0.2251  0.4320
 8223TIP3   OH224632   0.109   0.075   2.529 -0.3206 -0.0856  0.3646
 8223TIP3    H124633   0.041   0.037   2.585  1.0325 -1.2132  1.2998
 8223TIP3    H224634   0.080   0.055   2.440 -1.6253  0.1978  0.7055
 8224TIP3   OH224635   5.194   3.136   2.772 -0.5063  0.1365  0.6849
 8224TIP3    H124636   5.230   3.056   2.733 -0.6322  0.2587  0.3131
 8224TIP3    H224637   5.251   3.206   2.740  1.0392 -0.0388  2.8538
 8225TIP3   OH224638   2.005   6.328   1.966 -0.1213  0.9017  0.3048
 8225TIP3    H124639   2.000   6.423   1.960  0.0137  0.8948  0.0576
 8225TIP3    H224640   1.964   6.297   1.885  1.4584  0.7872 -0.4958
 8226TIP3   OH224641   3.557   0.340   1.581 -0.5326  0.2882 -0.3714
 8226TIP3    H124642   3.611   0.419   1.584  1.5448 -1.0649 -0.2372
 8226TIP3    H224643   3.556   0.309   1.671  0.6255 -1.0479 -0.7835
 8227TIP3   OH224644   2.279   4.992   4.811  0.0171  0.3327 -0.2078
 8227TIP3    H124645   2.196   4.947   4.822  0.0088  0.0471 -1.3003
 8227TIP3    H224646   2.261   5.083   4.836 -0.6425  0.2841 -0.4945
 8228TIP3   OH224647   5.527   6.306   5.724 -0.0088  0.2848  0.2643
 8228TIP3    H124648   5.512   6.400   5.737  1.1164  0.2903  1.8679
 8228TIP3    H224649   5.466   6.264   5.784 -0.2237 -0.0052 -0.1553
 8229TIP3   OH224650   6.046   0.309   0.224  0.0417 -0.0255 -0.0361
 8229TIP3    H124651   5.957   0.334   0.247 -0.5030 -2.4775  0.7790
 8229TIP3    H224652   6.040   0.217   0.199  2.0138  0.3324 -2.1163
 8230TIP3   OH224653   4.311   4.531   1.931  0.1842 -0.4565 -0.4401
 8230TIP3    H124654   4.280   4.614   1.965  0.5162 -0.7562  0.6473
 8230TIP3    H224655   4.404   4.546   1.912  0.7240 -1.0705  1.5348
 8231TIP3   OH224656   7.087   1.909   2.262  0.4366  0.5093  0.0280
 8231TIP3    H124657   7.033   1.831   2.250  1.4538 -0.3253  0.7460
 8231TIP3    H224658   7.174   1.875   2.281  0.8064  1.8237  0.7926
 8232TIP3   OH224659   6.606   4.400   4.346 -0.1366 -0.7059  0.3481
 8232TIP3    H124660   6.661   4.439   4.413 -0.0556  1.8283 -1.0707
 8232TIP3    H224661   6.527   4.454   4.344  0.2104 -0.1570 -2.0875
 8233TIP3   OH224662   4.404   6.057   2.639 -0.6400 -0.1824  0.0588
 8233TIP3    H124663   4.439   6.045   2.727 -2.1033 -2.4160  0.4051
 8233TIP3    H224664   4.479   6.045   2.581  0.1567  0.4218  0.9467
 8234TIP3   OH224665   4.194   4.357   4.871  0.0651 -0.3177  0.7324
 8234TIP3    H124666   4.204   4.347   4.776  0.4741  0.7381  0.6440
 8234TIP3    H224667   4.282   4.346   4.906 -0.0621 -0.5588  0.9803
 8235TIP3   OH224668   0.497   5.269   4.120 -0.0045  0.9961  0.4242
 8235TIP3    H124669   0.562   5.339   4.113 -0.6951  1.7005  0.8373
 8235TIP3    H224670   0.435   5.288   4.049 -0.5072  1.1435  0.8976
 8236TIP3   OH224671   4.179   2.082   3.617  0.4963 -0.1952 -0.5309
 8236TIP3    H124672   4.204   2.030   3.694 -1.1353  0.8171  0.7481
 8236TIP3    H224673   4.091   2.051   3.596  0.9094 -0.4373 -2.0177
 8237TIP3   OH224674   1.711   0.431   0.744  0.1467 -0.3591  0.2567
 8237TIP3    H124675   1.639   0.469   0.793 -0.0738 -0.8167  0.2804
 8237TIP3    H224676   1.775   0.404   0.811  0.9438  1.2368  0.1964
 8238TIP3   OH224677   0.330   0.507   5.818 -0.1903 -0.1110 -0.0653
 8238TIP3    H124678   0.348   0.527   5.910 -1.1115 -0.0823  0.1233
 8238TIP3    H224679   0.237   0.485   5.817 -0.6182  1.5754 -1.2603
 8239TIP3   OH224680   6.462   5.311   4.343  1.0201  0.2767  0.2722
 8239TIP3    H124681   6.490   5.388   4.293 -0.0730  0.5920  0.1029
 8239TIP3    H224682   6.381   5.340   4.386  0.3026 -0.9432 -0.2126
 8240TIP3   OH224683   0.221   6.082   3.940  0.5066 -0.4327 -0.1169
 8240TIP3    H124684   0.237   5.995   3.978  1.8554 -0.9201 -1.7116
 8240TIP3    H224685   0.130   6.078   3.910  0.6117 -1.3732 -0.3473
 8241TIP3   OH224686   1.901   6.632   0.402  0.0218 -0.3980  0.3616
 8241TIP3    H124687   1.893   6.726   0.422 -0.8475 -0.6353  1.1920
 8241TIP3    H224688   1.983   6.607   0.444 -0.4845 -0.3155  1.4401
 8242TIP3   OH224689   5.480   3.955   2.796 -0.1841 -0.0424 -0.1351
 8242TIP3    H124690   5.417   3.969   2.867 -1.4255  0.6702 -1.3445
 8242TIP3    H224691   5.527   3.875   2.822 -0.2738  0.4496  1.7080
 8243TIP3   OH224692   3.913   0.495   0.700  0.4745  0.2102 -0.1277
 8243TIP3    H124693   3.936   0.422   0.758 -0.8292  0.7012  1.0932
 8243TIP3    H224694   3.962   0.479   0.620 -0.3047 -2.4075 -0.1772
 8244TIP3   OH224695   5.403   4.295   2.241 -0.5036 -0.4893  0.3951
 8244TIP3    H124696   5.327   4.236   2.237  1.5737 -3.3592  0.6752
 8244TIP3    H224697   5.415   4.312   2.334 -0.6970 -0.1454  0.3596
 8245TIP3   OH224698   0.224   4.859   3.658  0.1133  0.0526  0.1711
 8245TIP3    H124699   0.196   4.909   3.581 -0.4872  3.7527  2.5144
 8245TIP3    H224700   0.319   4.852   3.649  0.1668  1.3256 -0.4668
 8246TIP3   OH224701   2.041   1.463   3.377 -0.4682 -0.2349  0.0554
 8246TIP3    H124702   1.963   1.462   3.321 -0.8830  0.4255  0.6003
 8246TIP3    H224703   2.007   1.440   3.464  0.1937 -1.4208  0.0261
 8247TIP3   OH224704   3.153   4.244   4.831  0.4980  0.3931 -0.1885
 8247TIP3    H124705   3.088   4.174   4.830  1.1864 -0.2537 -1.6235
 8247TIP3    H224706   3.237   4.200   4.842  0.9114  1.0230 -0.7242
 8248TIP3   OH224707   3.374   1.883   0.462  0.0394  0.1583  0.4966
 8248TIP3    H124708   3.340   1.939   0.392 -1.5830  0.1444  1.2108
 8248TIP3    H224709   3.426   1.816   0.417 -2.7990 -1.2277 -1.0177
 8249TIP3   OH224710   4.723   4.434   0.129  0.1728  0.1978 -0.5288
 8249TIP3    H124711   4.810   4.440   0.090 -0.1043  0.1881 -1.1613
 8249TIP3    H224712   4.738   4.402   0.218  0.9078  1.2140 -0.2654
 8250TIP3   OH224713   0.737   5.322   5.682  0.1517  0.1349  0.0881
 8250TIP3    H124714   0.804   5.259   5.657 -1.3147 -1.6728  0.5357
 8250TIP3    H224715   0.758   5.401   5.632  0.9050 -1.3273 -2.0167
 8251TIP3   OH224716   5.988   6.659   1.556  0.6125 -0.0610 -0.7175
 8251TIP3    H124717   5.960   6.672   1.647  2.2849  1.9721 -0.4045
 8251TIP3    H224718   5.960   6.739   1.511  2.2389  0.2093 -1.3124
 8252TIP3   OH224719   2.318   5.459   5.500 -0.5305  0.8112 -0.2448
 8252TIP3    H124720   2.406   5.466   5.537 -0.4385  0.3835 -0.3751
 8252TIP3    H224721   2.323   5.502   5.415  0.1345 -1.0747 -1.2225
 8253TIP3   OH224722   0.499   6.596   1.280 -0.0031 -0.3691 -0.1068
 8253TIP3    H124723   0.485   6.596   1.374 -1.5483 -0.5353 -0.3014
 8253TIP3    H224724   0.463   6.680   1.250  1.9030  0.3898 -0.3925
 8254TIP3   OH224725   6.060   2.234   2.896 -0.1517 -0.1533  0.3819
 8254TIP3    H124726   6.027   2.145   2.882 -1.1467 -0.0079  1.5788
 8254TIP3    H224727   6.038   2.281   2.815 -0.6961 -0.7018  0.2006
 8255TIP3   OH224728   5.406   4.466   1.790  0.2988 -0.1092  0.2967
 8255TIP3    H124729   5.446   4.488   1.874  0.8435 -0.9206  0.2656
 8255TIP3    H224730   5.479   4.432   1.737 -0.2301 -0.6098 -0.1260
 8256TIP3   OH224731   6.646   1.538   0.890  0.2162  0.5970 -0.2160
 8256TIP3    H124732   6.737   1.509   0.881  0.3077  0.4639  1.0000
 8256TIP3    H224733   6.646   1.593   0.969 -0.6306  1.1349 -0.5767
 8257TIP3   OH224734   5.761   2.393   5.677 -0.3359  0.2145 -0.1720
 8257TIP3    H124735   5.795   2.416   5.763 -1.3110 -1.6740  0.7621
 8257TIP3    H224736   5.838   2.395   5.620  0.4642  0.7302  0.9002
 8258TIP3   OH224737   6.697   3.767   5.470 -0.5235 -0.0377  0.1168
 8258TIP3    H124738   6.684   3.789   5.562 -1.4330  0.4061 -0.1065
 8258TIP3    H224739   6.733   3.678   5.471 -1.6043 -0.4905  0.8733
 8259TIP3   OH224740   6.067   3.004   4.030 -0.4945  0.0708 -0.1324
 8259TIP3    H124741   6.080   3.077   4.090  0.5920  0.1542 -0.4415
 8259TIP3    H224742   5.974   3.005   4.009 -0.6815  0.7072  0.6960
 8260TIP3   OH224743   2.109   4.106   1.613 -0.2312 -0.0485  0.7167
 8260TIP3    H124744   2.105   4.166   1.688  1.1994 -0.3744  1.0811
 8260TIP3    H224745   2.018   4.097   1.585 -0.7195  0.6085  1.9966
 8261TIP3   OH224746   4.028   3.663   0.795  0.5241  0.0347 -0.8351
 8261TIP3    H124747   3.995   3.705   0.716 -1.2341 -0.2556 -0.3127
 8261TIP3    H224748   4.040   3.571   0.771 -1.3605 -0.3542 -0.4486
 8262TIP3   OH224749   5.418   1.579   1.731  0.1667  0.1478  0.2411
 8262TIP3    H124750   5.338   1.536   1.761 -0.8777  0.6835 -1.6500
 8262TIP3    H224751   5.411   1.668   1.766 -0.1085  0.2159  0.0174
 8263TIP3   OH224752   6.923   2.237   2.914 -0.7941  0.3252 -0.2318
 8263TIP3    H124753   6.944   2.146   2.894 -0.5736  0.5766 -1.1552
 8263TIP3    H224754   6.999   2.268   2.963 -0.7757  0.0821 -0.1002
 8264TIP3   OH224755   1.318   3.663   4.629  0.6462  0.0214 -0.4131
 8264TIP3    H124756   1.321   3.758   4.617 -0.0164  0.4154  2.0543
 8264TIP3    H224757   1.250   3.633   4.569  0.3309  1.1971 -0.6641
 8265TIP3   OH224758   3.889   0.112   4.336 -0.1046  0.4318  0.4305
 8265TIP3    H124759   3.896   0.042   4.270  0.5015  0.2635  0.6699
 8265TIP3    H224760   3.888   0.193   4.285  1.1885  0.3448  0.2462
 8266TIP3   OH224761   6.652   6.658   5.447 -0.5593  0.5146 -0.4645
 8266TIP3    H124762   6.620   6.748   5.446 -0.5792  0.5718  1.4414
 8266TIP3    H224763   6.600   6.615   5.515  0.0398 -0.7059 -0.7533
 8267TIP3   OH224764   5.613   2.429   4.602  0.1667  0.0566  0.0816
 8267TIP3    H124765   5.532   2.385   4.629 -0.6942  0.4982 -1.6146
 8267TIP3    H224766   5.674   2.414   4.674 -1.8483  0.9427  2.0677
 8268TIP3   OH224767   5.166   3.381   1.226 -0.4102 -0.0511 -0.1370
 8268TIP3    H124768   5.159   3.287   1.237 -2.1270  0.1425  0.6629
 8268TIP3    H224769   5.155   3.396   1.132  1.9796 -0.7614 -0.6001
 8269TIP3   OH224770   3.415   4.194   3.227  0.2954 -0.3181  0.2469
 8269TIP3    H124771   3.450   4.167   3.312  0.3352  1.0462  0.6829
 8269TIP3    H224772   3.367   4.274   3.245 -1.1774 -0.9376 -0.7323
 8270TIP3   OH224773   6.273   1.034   2.779  0.0354 -0.1969  0.1233
 8270TIP3    H124774   6.240   0.997   2.697  1.1301  0.7551 -0.7756
 8270TIP3    H224775   6.356   0.989   2.794  1.7632  2.2538 -1.3755
 8271TIP3   OH224776   2.253   2.491   2.424  0.3161  0.2731 -0.6188
 8271TIP3    H124777   2.299   2.417   2.383  2.1894  1.7971 -1.3938
 8271TIP3    H224778   2.174   2.452   2.461  1.5045 -2.2198 -0.5132
 8272TIP3   OH224779   1.534   3.295   5.237  0.3822 -0.3031 -0.9251
 8272TIP3    H124780   1.447   3.329   5.220  0.5914  1.7131  1.4909
 8272TIP3    H224781   1.520   3.224   5.300  0.5013  0.8693  0.4810
 8273TIP3   OH224782   3.983   3.510   5.103  0.0034  0.2795  0.1757
 8273TIP3    H124783   3.899   3.519   5.148  0.5898  0.0091  1.3743
 8273TIP3    H224784   3.988   3.417   5.080 -0.3428  0.4387 -0.5394
 8274TIP3   OH224785   1.318   4.278   1.081 -0.5020 -0.2615  0.2622
 8274TIP3    H124786   1.410   4.301   1.094  0.3271 -2.9151 -0.2911
 8274TIP3    H224787   1.270   4.358   1.100  1.9940  1.5681 -0.6678
 8275TIP3   OH224788   5.836   0.919   3.287 -0.2208 -0.2735 -0.2516
 8275TIP3    H124789   5.924   0.911   3.325  0.0772 -0.6265 -0.9837
 8275TIP3    H224790   5.839   0.863   3.209 -0.9191  0.1528 -0.5935
 8276TIP3   OH224791   0.433   5.998   4.602 -0.2090 -0.4004 -0.1320
 8276TIP3    H124792   0.521   5.960   4.591  0.0123  0.3921 -1.2408
 8276TIP3    H224793   0.374   5.923   4.601  0.4319 -0.9342  0.5201
 8277TIP3   OH224794   1.509   3.783   0.797  0.4140  0.1754 -0.0706
 8277TIP3    H124795   1.437   3.745   0.847 -0.1821  0.0341 -1.0169
 8277TIP3    H224796   1.547   3.709   0.748 -0.1453  0.5948 -1.1809
 8278TIP3   OH224797   3.259   0.312   2.558 -0.2478  0.6568  0.8973
 8278TIP3    H124798   3.186   0.363   2.591 -2.8451 -2.6892  0.9164
 8278TIP3    H224799   3.235   0.291   2.467  1.1845  0.2999  0.5698
 8279TIP3   OH224800   4.392   0.922   4.942 -0.5813 -0.4411  0.0155
 8279TIP3    H124801   4.325   0.879   4.996 -0.4633  0.5134  0.9570
 8279TIP3    H224802   4.473   0.914   4.993 -0.5544  0.8582  0.2236
 8280TIP3   OH224803   3.240   1.022   0.905  0.3805  0.2950 -0.3316
 8280TIP3    H124804   3.263   1.016   0.812  1.0813  0.9534 -0.2033
 8280TIP3    H224805   3.175   0.952   0.917 -2.4042  2.3545 -2.1184
 8281TIP3   OH224806   3.663   2.595   1.005  0.3386  0.5604  0.3494
 8281TIP3    H124807   3.755   2.581   0.985  0.2658  3.3749 -3.0385
 8281TIP3    H224808   3.619   2.517   0.971  1.2656  0.4529 -0.6747
 8282TIP3   OH224809   7.041   0.134   3.393  0.1236  0.2025 -0.1551
 8282TIP3    H124810   7.096   0.212   3.404  0.6676  0.1294 -2.0185
 8282TIP3    H224811   6.979   0.157   3.325  0.2398 -0.9547 -0.6846
 8283TIP3   OH224812   2.870   6.806   1.479  0.6780  0.0953 -0.5159
 8283TIP3    H124813   2.914   6.784   1.396  0.8884 -0.3694 -0.2854
 8283TIP3    H224814   2.791   6.753   1.479  1.0787 -0.5113 -0.0551
 8284TIP3   OH224815   4.142   2.303   4.232  0.0310 -0.1650 -0.8657
 8284TIP3    H124816   4.122   2.397   4.230 -0.3255 -0.2503 -2.1691
 8284TIP3    H224817   4.061   2.261   4.203  0.2469 -0.8703 -0.4515
 8285TIP3   OH224818   4.142   3.001   3.729  0.2770  0.8690 -0.0504
 8285TIP3    H124819   4.126   3.056   3.652  0.4753  0.5573 -0.3170
 8285TIP3    H224820   4.188   3.058   3.790  0.4289  1.0172 -0.3033
 8286TIP3   OH224821   3.958   1.419   4.302  0.0134  0.0608  0.3353
 8286TIP3    H124822   4.047   1.443   4.329 -1.3790  3.5597  2.6126
 8286TIP3    H224823   3.951   1.450   4.211  0.7170  1.2051  0.6518
 8287TIP3   OH224824   0.948   1.536   2.038 -0.1091  0.0122 -0.2693
 8287TIP3    H124825   0.894   1.479   1.982 -0.4261  0.4252 -0.3882
 8287TIP3    H224826   0.947   1.493   2.123 -1.4491  0.5236 -0.0051
 8288TIP3   OH224827   4.711   1.837   4.811 -0.1381  0.5482  0.2823
 8288TIP3    H124828   4.634   1.782   4.828  0.8023 -0.6700  0.7921
 8288TIP3    H224829   4.723   1.832   4.716 -1.3554  1.7224  0.0351
 8289TIP3   OH224830   4.113   0.147   5.025 -0.3206  0.0943  0.2455
 8289TIP3    H124831   4.023   0.143   4.995 -0.1970  2.2097 -0.6155
 8289TIP3    H224832   4.166   0.146   4.945  0.2998  0.6418  0.6353
 8290TIP3   OH224833   3.851   4.313   1.400 -0.2856  0.3478 -0.1824
 8290TIP3    H124834   3.896   4.281   1.478 -0.2145  1.2261  0.1534
 8290TIP3    H224835   3.910   4.294   1.328  0.3338  0.8732  0.1733
 8291TIP3   OH224836   6.293   2.513   5.853  0.0741 -0.1564 -0.6464
 8291TIP3    H124837   6.216   2.535   5.800  1.1086  0.3912 -2.0006
 8291TIP3    H224838   6.367   2.535   5.796  1.2347 -2.1007  0.0241
 8292TIP3   OH224839   3.552   0.365   3.915  0.3809  0.0995  0.7420
 8292TIP3    H124840   3.545   0.289   3.858  0.1436 -0.1227  1.0609
 8292TIP3    H224841   3.622   0.418   3.877 -1.3347  1.1434 -1.1173
 8293TIP3   OH224842   3.397   4.351   2.762  0.1284 -0.2183 -0.0841
 8293TIP3    H124843   3.436   4.323   2.845 -2.2945 -3.6540  0.1191
 8293TIP3    H224844   3.417   4.280   2.701 -1.9501  0.0364 -1.1512
 8294TIP3   OH224845   5.438   5.120   0.286  0.1078 -0.0979  0.6319
 8294TIP3    H124846   5.439   5.083   0.198 -0.0309 -0.7163  0.8829
 8294TIP3    H224847   5.347   5.115   0.313 -0.4819  3.1148 -0.4064
 8295TIP3   OH224848   7.165   5.885   4.203 -0.5178 -0.2460  0.6240
 8295TIP3    H124849   7.183   5.955   4.266 -2.5344  1.3670 -0.4474
 8295TIP3    H224850   7.070   5.879   4.201 -0.4535 -1.3792 -1.0802
 8296TIP3   OH224851   6.503   3.563   4.324 -0.0833 -0.0810  0.1055
 8296TIP3    H124852   6.527   3.480   4.283 -1.6276 -0.4956 -0.0057
 8296TIP3    H224853   6.533   3.554   4.415 -0.4274 -0.8579  0.1551
 8297TIP3   OH224854   2.804   1.650   0.058 -0.5060  0.0738 -0.5235
 8297TIP3    H124855   2.764   1.712  -0.003 -0.2478  0.0790 -0.6864
 8297TIP3    H224856   2.814   1.700   0.139 -2.2385 -0.3549  0.0094
 8298TIP3   OH224857   3.653   2.134   5.055 -0.8861 -0.0916  0.0600
 8298TIP3    H124858   3.692   2.126   5.142  0.6053  2.0312 -0.3382
 8298TIP3    H224859   3.574   2.186   5.068 -1.1401 -0.5154  0.2404
 8299TIP3   OH224860   2.516   2.057   1.685 -0.4245 -0.0172 -0.4471
 8299TIP3    H124861   2.529   2.141   1.641  1.4199 -0.6935 -1.2739
 8299TIP3    H224862   2.427   2.031   1.661 -0.7713  1.3697 -0.7304
 8300TIP3   OH224863   5.047   5.758   0.846  0.5061  0.1222 -0.2147
 8300TIP3    H124864   4.986   5.831   0.832 -1.0416 -1.0721  0.0263
 8300TIP3    H224865   5.051   5.714   0.761  0.4974 -0.2035 -0.0461
 8301TIP3   OH224866   3.235   5.050   4.856  0.4691 -0.0149 -0.3233
 8301TIP3    H124867   3.279   5.086   4.779 -0.0529 -0.4494 -0.8248
 8301TIP3    H224868   3.143   5.075   4.846  0.4948  0.4250  0.4530
 8302TIP3   OH224869   1.550   0.848   1.611  0.4333 -0.4255  0.3316
 8302TIP3    H124870   1.561   0.912   1.540 -1.8129  0.9316  1.0982
 8302TIP3    H224871   1.587   0.767   1.576 -0.0162  0.3398 -2.1637
 8303TIP3   OH224872   1.845   0.680   4.097  0.0245 -0.2910  0.1005
 8303TIP3    H124873   1.827   0.627   4.175 -0.2230  0.6531  0.6898
 8303TIP3    H224874   1.938   0.704   4.106 -0.2322  0.5579  0.5703
 8304TIP3   OH224875   1.870   0.989   4.330 -0.2476 -0.3136 -0.1253
 8304TIP3    H124876   1.923   1.019   4.405  2.2974 -2.1137 -1.0595
 8304TIP3    H224877   1.827   0.909   4.361 -1.1913  0.2843  0.1396
 8305TIP3   OH224878   2.127   4.736   3.641  0.1217 -0.5530  0.9390
 8305TIP3    H124879   2.061   4.805   3.652  0.2894 -0.3689  0.7974
 8305TIP3    H224880   2.203   4.768   3.690  1.7910  1.4638 -2.5628
 8306TIP3   OH224881   3.287   3.888   5.889 -0.3122  0.2297 -0.0922
 8306TIP3    H124882   3.231   3.899   5.813  0.3664  0.5662 -0.5534
 8306TIP3    H224883   3.346   3.816   5.866 -1.6458 -1.3060  1.0640
 8307TIP3   OH224884   6.423   0.818   0.449  0.1188  0.3364 -0.2174
 8307TIP3    H124885   6.452   0.839   0.360  0.6636  0.8334  0.0668
 8307TIP3    H224886   6.449   0.895   0.501 -2.4142  1.1686 -0.0673
 8308TIP3   OH224887   4.364   1.935   1.743 -0.1690 -0.5844 -0.1937
 8308TIP3    H124888   4.365   1.984   1.825 -0.7970 -0.8282 -0.0308
 8308TIP3    H224889   4.372   2.001   1.675  0.4251 -0.3848  0.0678
 8309TIP3   OH224890   5.402   0.216   5.320 -0.6267 -0.2315  0.4249
 8309TIP3    H124891   5.473   0.170   5.274 -1.1062 -1.9138  1.2671
 8309TIP3    H224892   5.432   0.223   5.410 -1.0407  0.0800  0.5405
 8310TIP3   OH224893   6.814   3.526   0.898  0.0616  0.4002  0.2239
 8310TIP3    H124894   6.867   3.447   0.908  0.3557  0.6389  0.6266
 8310TIP3    H224895   6.827   3.553   0.807 -2.8139 -1.9355 -1.0139
 8311TIP3   OH224896   2.817   1.564   5.632 -0.3242  0.8756 -0.3265
 8311TIP3    H124897   2.809   1.645   5.583  0.8759  1.2655  0.0928
 8311TIP3    H224898   2.865   1.588   5.712  1.8290 -0.5606 -1.0807
 8312TIP3   OH224899   5.876   5.425   4.755 -0.1573  0.7952 -0.7590
 8312TIP3    H124900   5.916   5.406   4.670  0.6342  0.9147 -0.4187
 8312TIP3    H224901   5.837   5.512   4.744 -1.2819  0.2283 -1.4252
 8313TIP3   OH224902   3.336   5.128   1.267  0.5908 -0.0558  0.1690
 8313TIP3    H124903   3.373   5.142   1.180  0.7102  1.4413  0.4356
 8313TIP3    H224904   3.256   5.077   1.252 -0.0311  1.2212 -0.9467
 8314TIP3   OH224905   2.728   3.318   5.835 -0.1983  0.0095 -0.2207
 8314TIP3    H124906   2.665   3.263   5.882  2.2590 -2.0014  0.9684
 8314TIP3    H224907   2.716   3.406   5.872 -1.2453 -0.6488  1.0710
 8315TIP3   OH224908   5.869   2.205   3.897  0.0417 -0.3617  0.9111
 8315TIP3    H124909   5.848   2.272   3.833 -1.2374  0.3304  1.9941
 8315TIP3    H224910   5.909   2.253   3.970  0.7898 -1.0268  0.9542
 8316TIP3   OH224911   1.196   2.184   2.827 -0.4053  0.3676  0.4776
 8316TIP3    H124912   1.166   2.224   2.908  0.7233  0.4932  0.8479
 8316TIP3    H224913   1.290   2.177   2.837 -0.2310  0.4811 -0.8687
 8317TIP3   OH224914   0.704   1.261   3.017  0.1301  0.2368  0.2723
 8317TIP3    H124915   0.612   1.281   3.034 -1.2610 -3.3708 -1.8936
 8317TIP3    H224916   0.728   1.318   2.944 -0.8083  0.2938 -0.0033
 8318TIP3   OH224917   7.005  -0.013   1.599 -0.2853  0.4266 -0.1998
 8318TIP3    H124918   7.088  -0.058   1.612 -0.4721  0.0668 -0.2480
 8318TIP3    H224919   7.030   0.076   1.575  0.0772  0.5280  0.5384
 8319TIP3   OH224920   2.629   5.469   2.182  0.3849  0.1222  0.6222
 8319TIP3    H124921   2.695   5.469   2.113  1.7656 -0.1915  1.8859
 8319TIP3    H224922   2.599   5.560   2.187  0.3097  0.1585 -0.3281
 8320TIP3   OH224923   4.832   5.326   5.798  0.6166 -0.2518 -0.1440
 8320TIP3    H124924   4.748   5.306   5.839  0.6170 -0.3959 -0.2151
 8320TIP3    H224925   4.817   5.412   5.757  0.1427 -0.8026 -1.1535
 8321TIP3   OH224926   3.240   3.262   3.561  0.2664  0.7136  0.0766
 8321TIP3    H124927   3.249   3.209   3.482 -2.0621 -0.5031  0.5267
 8321TIP3    H224928   3.151   3.296   3.557  0.9332  2.7315  0.9787
 8322TIP3   OH224929   4.826   1.856   5.685 -0.3187  0.3844  0.0752
 8322TIP3    H124930   4.765   1.790   5.720  0.6643  0.3239  1.7988
 8322TIP3    H224931   4.865   1.814   5.608 -0.4026 -0.6744  0.5933
 8323TIP3   OH224932   6.341   3.175   4.699 -0.5059  0.6131 -0.6140
 8323TIP3    H124933   6.423   3.217   4.725 -0.0570 -0.3899 -0.3325
 8323TIP3    H224934   6.288   3.175   4.778  0.4096 -1.3911  0.0942
 8324TIP3   OH224935   3.470   3.259   0.239 -0.7533 -0.0817 -0.5369
 8324TIP3    H124936   3.546   3.316   0.228 -0.6306 -0.3600 -1.1519
 8324TIP3    H224937   3.399   3.305   0.193 -1.5055  1.1847  1.7017
 8325TIP3   OH224938   0.427   5.486   0.724 -0.2049  0.2194  0.2928
 8325TIP3    H124939   0.431   5.396   0.693  1.9187 -0.3170  1.8431
 8325TIP3    H224940   0.492   5.533   0.672  0.3913  0.2706  1.0600
 8326TIP3   OH224941   2.511   3.547   1.163  0.2112  0.1983 -0.4131
 8326TIP3    H124942   2.521   3.515   1.074 -0.3511  1.1464 -0.8338
 8326TIP3    H224943   2.556   3.632   1.163  1.9734 -0.6554  0.7645
 8327TIP3   OH224944   4.290   4.026   3.364  0.3694 -0.0878 -0.2684
 8327TIP3    H124945   4.205   3.985   3.383  0.9814 -1.3206 -0.1029
 8327TIP3    H224946   4.285   4.111   3.407 -1.1496  0.2733 -1.0733
 8328TIP3   OH224947   4.336   4.170   3.601  0.5252 -0.4320 -0.0609
 8328TIP3    H124948   4.403   4.233   3.573 -1.0563  0.8432 -1.1830
 8328TIP3    H224949   4.264   4.225   3.633 -0.8309 -1.6464 -0.9024
 8329TIP3   OH224950   5.789   0.742   3.056 -0.1668 -0.1925 -0.0724
 8329TIP3    H124951   5.766   0.658   3.015  0.7944 -0.6725  0.3210
 8329TIP3    H224952   5.851   0.782   2.994  0.5599 -0.4903  0.4471
 8330TIP3   OH224953   3.166   2.367   2.945 -0.1993  0.0561  0.1145
 8330TIP3    H124954   3.184   2.453   2.905 -1.2087  0.5519  0.6827
 8330TIP3    H224955   3.072   2.355   2.932 -0.2791 -0.4221  1.1022
 8331TIP3   OH224956   3.152   1.959   5.199 -0.1222 -0.0116 -0.3529
 8331TIP3    H124957   3.163   1.868   5.172  0.6766 -0.1756  0.4751
 8331TIP3    H224958   3.216   1.971   5.269 -0.9001  0.9032  0.2218
 8332TIP3   OH224959   5.735   4.118   4.380 -0.4734 -0.2300 -0.0217
 8332TIP3    H124960   5.824   4.151   4.372 -0.5435 -0.3145 -1.4771
 8332TIP3    H224961   5.683   4.193   4.407  0.1079 -0.3073  1.3805
 8333TIP3   OH224962   5.271   3.401   3.273  0.2149  0.3623 -0.2002
 8333TIP3    H124963   5.185   3.396   3.315  0.0263 -2.4802 -0.7777
 8333TIP3    H224964   5.261   3.469   3.207 -0.8837  1.6195  1.1863
 8334TIP3   OH224965   3.022   4.444   4.030 -0.1109 -0.2536 -0.0164
 8334TIP3    H124966   3.083   4.461   3.958  0.8533  1.9566  1.2193
 8334TIP3    H224967   2.938   4.478   3.998  0.3726  0.9753 -0.0562
 8335TIP3   OH224968   2.249   6.619   2.261 -0.3515  0.5011  0.1830
 8335TIP3    H124969   2.247   6.568   2.180  1.7546  1.9290 -0.8415
 8335TIP3    H224970   2.158   6.617   2.292 -1.0658 -0.7383 -1.7693
 8336TIP3   OH224971   4.147   4.029   4.164  0.0878  0.2161  0.2059
 8336TIP3    H124972   4.197   3.978   4.226 -0.5657  0.0472  0.6028
 8336TIP3    H224973   4.196   4.023   4.082  0.1457 -0.8305  0.3116
 8337TIP3   OH224974   2.772   0.133   4.875  0.5546  0.0581  0.2249
 8337TIP3    H124975   2.821   0.051   4.888 -1.5645 -1.1131  1.3875
 8337TIP3    H224976   2.704   0.110   4.812  1.1882  1.5542 -1.0819
 8338TIP3   OH224977   4.651   1.629   3.340  0.2064 -0.3984  0.6103
 8338TIP3    H124978   4.572   1.642   3.287 -0.4281  0.6778  1.7725
 8338TIP3    H224979   4.618   1.613   3.428  1.2979  0.3511  1.1680
 8339TIP3   OH224980   6.991   0.341   4.517  0.0769  0.0795 -0.2802
 8339TIP3    H124981   6.955   0.277   4.456  0.3283  0.7626 -1.1656
 8339TIP3    H224982   6.914   0.373   4.565 -0.0321 -0.9714  0.2796
 8340TIP3   OH224983   3.725   0.759   2.805 -0.0778  0.3230 -0.3379
 8340TIP3    H124984   3.731   0.777   2.899 -0.8876  1.0583 -0.4190
 8340TIP3    H224985   3.641   0.715   2.795 -0.6062  1.4417 -0.8939
 8341TIP3   OH224986   4.771   1.178   3.324 -0.1604  0.3875  0.3618
 8341TIP3    H124987   4.864   1.154   3.326 -0.8451 -2.7573  2.8287
 8341TIP3    H224988   4.751   1.202   3.415 -1.8128  0.8295 -0.0925
 8342TIP3   OH224989   2.628   1.507   0.584  0.3991  0.0785  0.0982
 8342TIP3    H124990   2.593   1.564   0.516  1.0702  0.2749 -0.0883
 8342TIP3    H224991   2.576   1.427   0.577 -1.3348  1.0636  1.1213
 8343TIP3   OH224992   5.813   3.053   0.701 -0.1611  0.1266 -0.1775
 8343TIP3    H124993   5.907   3.039   0.698 -0.4078 -2.5883  1.2847
 8343TIP3    H224994   5.777   2.988   0.640 -1.1208  0.4093  0.0592
 8344TIP3   OH224995   0.562   1.079   1.961  0.3858 -0.4339  0.7452
 8344TIP3    H124996   0.585   1.141   1.892  0.2800 -0.2542  0.8722
 8344TIP3    H224997   0.539   1.134   2.035  1.2259 -0.6285  1.1667
 8345TIP3   OH224998   4.898   2.062   1.036  0.6400  0.0151 -0.3744
 8345TIP3    H124999   4.851   2.031   0.959 -0.3191  2.7622 -1.0225
 8345TIP3    H225000   4.941   2.143   1.006 -0.2500  1.4932  2.0713
 8346TIP3   OH225001   1.525   3.613   5.416  0.0425 -0.4031  0.3518
 8346TIP3    H125002   1.556   3.572   5.335  0.0179  0.7098 -0.2413
 8346TIP3    H225003   1.475   3.689   5.387  2.5761  1.8387  1.4101
 8347TIP3   OH225004   6.268   5.477   0.511  0.6157 -0.0441 -0.3062
 8347TIP3    H125005   6.347   5.427   0.529  2.1264  2.3989  0.3227
 8347TIP3    H225006   6.257   5.534   0.587 -2.8245 -1.4619  0.4625
 8348TIP3   OH225007   0.657   4.840   4.201  1.0418 -0.1525  0.2959
 8348TIP3    H125008   0.572   4.880   4.187  0.3329 -0.8975  2.1467
 8348TIP3    H225009   0.720   4.903   4.165 -0.2731  0.3135 -1.2779
 8349TIP3   OH225010   5.506   2.914   5.323 -0.1680 -0.5376  0.2558
 8349TIP3    H125011   5.446   2.937   5.252  1.3265  1.5166 -0.4360
 8349TIP3    H225012   5.496   2.985   5.386  1.2330 -0.3701  0.3046
 8350TIP3   OH225013   3.306   4.563   1.791 -0.0434 -0.1227  0.7912
 8350TIP3    H125014   3.280   4.580   1.701  1.4885  2.0904  0.7006
 8350TIP3    H225015   3.230   4.589   1.843 -0.4752 -0.2289  0.2285
 8351TIP3   OH225016   3.581   4.492   3.945  0.7167  0.2038  0.4073
 8351TIP3    H125017   3.591   4.517   4.037  0.6768 -1.2195  0.8165
 8351TIP3    H225018   3.665   4.454   3.920  0.6262  0.3009 -0.0609
 8352TIP3   OH225019   1.687   2.767   2.274  0.5039 -0.5021 -0.5458
 8352TIP3    H125020   1.745   2.695   2.299 -1.5779 -1.3398  2.4453
 8352TIP3    H225021   1.726   2.844   2.316 -0.2775 -1.0240  1.2673
 8353TIP3   OH225022   1.375   1.386   2.511  0.0489  0.2924  0.3409
 8353TIP3    H125023   1.381   1.430   2.596  0.9941 -0.8737  0.9146
 8353TIP3    H225024   1.366   1.457   2.448  1.7213  1.3509  1.2089
 8354TIP3   OH225025   5.032   2.515   2.134  1.1977 -0.1766 -0.3138
 8354TIP3    H125026   5.095   2.467   2.080  0.9107  0.7235 -1.4827
 8354TIP3    H225027   5.070   2.602   2.144 -0.5986  0.9506 -2.5091
 8355TIP3   OH225028   2.816   2.662   4.227 -0.6110  0.0614 -0.1191
 8355TIP3    H125029   2.844   2.586   4.176  0.0421  0.4720 -0.3833
 8355TIP3    H225030   2.721   2.665   4.214 -0.5790 -0.4204 -0.5036
 8356TIP3   OH225031   0.823   1.427   0.302 -0.2068 -0.6936  0.0421
 8356TIP3    H125032   0.774   1.489   0.248 -1.3490 -1.2148  0.4619
 8356TIP3    H225033   0.848   1.356   0.243  1.0367  0.0882 -0.4234
 8357TIP3   OH225034   0.207   4.782   2.423 -0.2985 -0.2812  0.6400
 8357TIP3    H125035   0.162   4.698   2.419 -0.1412 -0.3829  0.9500
 8357TIP3    H225036   0.154   4.835   2.482 -0.2597 -0.2511  0.6481
 8358TIP3   OH225037   2.434   0.144   1.093  0.1874  0.2287 -0.3568
 8358TIP3    H125038   2.414   0.099   1.175 -0.9338  1.8909  0.3331
 8358TIP3    H225039   2.501   0.208   1.116  0.3071  0.2926 -0.8713
 8359TIP3   OH225040   0.965   1.268   0.476 -0.3173  0.0431  0.5926
 8359TIP3    H125041   0.919   1.188   0.452  0.7954 -0.7213  0.9200
 8359TIP3    H225042   0.921   1.337   0.426 -0.2416 -1.0182 -1.0240
 8360TIP3   OH225043   5.637   0.385   3.373 -0.0538 -0.4780 -0.3060
 8360TIP3    H125044   5.583   0.462   3.357 -1.1879 -0.9855  0.8738
 8360TIP3    H225045   5.625   0.329   3.296 -0.6882 -0.2810 -0.3526
 8361TIP3   OH225046   0.987   0.659   3.863 -0.3045  0.4580 -0.0511
 8361TIP3    H125047   1.048   0.587   3.853  0.3025  0.9816 -0.1641
 8361TIP3    H225048   1.042   0.737   3.874 -0.9174  1.1221 -1.3911
 8362TIP3   OH225049   1.717   2.655   4.219  0.0764 -0.1634  0.4397
 8362TIP3    H125050   1.766   2.701   4.151 -2.8012  1.3045 -0.8157
 8362TIP3    H225051   1.630   2.643   4.182 -1.6716  0.7188  3.8480
 8363TIP3   OH225052   5.435   1.047   3.940  0.5453  0.5517  1.1021
 8363TIP3    H125053   5.480   1.002   3.869  0.0256 -1.7789  2.1621
 8363TIP3    H225054   5.368   1.100   3.896 -0.6333 -1.8233 -0.1499
 8364TIP3   OH225055   4.773   3.924   3.017  0.5526  0.1362  0.4540
 8364TIP3    H125056   4.787   3.929   3.112  0.6854  0.9563  0.3943
 8364TIP3    H225057   4.832   3.854   2.988  0.9523  0.2894  0.8870
 8365TIP3   OH225058   2.652   6.004   3.420  0.0049  0.4902 -0.0392
 8365TIP3    H125059   2.692   5.998   3.507  0.2267  0.7337 -0.1239
 8365TIP3    H225060   2.596   5.927   3.415 -0.1369  0.5604  0.3837
 8366TIP3   OH225061   3.325   5.144   4.225 -0.4893 -0.2643  0.0705
 8366TIP3    H125062   3.326   5.232   4.262  2.0504 -0.1561 -0.0782
 8366TIP3    H225063   3.360   5.155   4.137  0.8529 -1.5155  0.4096
 8367TIP3   OH225064   4.587   3.490   2.893 -0.1544  0.3160 -0.6831
 8367TIP3    H125065   4.643   3.486   2.970  0.3762 -0.7288 -1.0925
 8367TIP3    H225066   4.546   3.403   2.890 -0.6344  0.5577 -1.2399
 8368TIP3   OH225067   6.448   3.144   3.672  0.2621  0.3201  0.2623
 8368TIP3    H125068   6.490   3.067   3.710  0.0339 -0.1847 -0.4926
 8368TIP3    H225069   6.378   3.109   3.617 -0.2921  1.0973  0.4484
 8369TIP3   OH225070   4.709   3.746   2.270 -0.3096  0.0431  0.4258
 8369TIP3    H125071   4.627   3.715   2.309 -0.7046  0.2329 -0.2216
 8369TIP3    H225072   4.703   3.718   2.178  1.5800 -2.3567  0.9206
 8370TIP3   OH225073   4.886   1.385   0.204  0.4070 -0.3201  0.2866
 8370TIP3    H125074   4.901   1.292   0.217 -0.7508 -0.4329  0.9308
 8370TIP3    H225075   4.905   1.400   0.111 -0.4254 -1.4166 -0.0780
 8371TIP3   OH225076   5.877   1.260   2.086  0.2253 -0.3047 -1.4969
 8371TIP3    H125077   5.959   1.310   2.083 -0.2777  0.8067  1.0144
 8371TIP3    H225078   5.887   1.202   2.162 -1.5425  0.3127 -0.7486
 8372TIP3   OH225079   6.278   4.189   2.437 -0.2667  0.1891 -0.5790
 8372TIP3    H125080   6.334   4.142   2.375 -0.3138  0.3522 -0.7461
 8372TIP3    H225081   6.260   4.273   2.394 -1.0425 -0.0554 -0.7426
 8373TIP3   OH225082   4.784   4.820   0.074 -0.4203  0.0679  0.2134
 8373TIP3    H125083   4.797   4.876   0.150  0.2220 -0.1652  0.2744
 8373TIP3    H225084   4.867   4.821   0.028 -0.8842  0.4273 -0.6410
 8374TIP3   OH225085   6.124   2.318   1.139  0.8859  0.1874 -0.3508
 8374TIP3    H125086   6.044   2.266   1.147  2.1887 -1.7941  0.6485
 8374TIP3    H225087   6.190   2.255   1.109  3.0488  0.6664  2.9421
 8375TIP3   OH225088   4.152   5.765   1.032 -0.5172  0.6238 -0.0451
 8375TIP3    H125089   4.199   5.836   0.989  1.2232  0.6079  1.6559
 8375TIP3    H225090   4.213   5.691   1.030 -0.0414  0.7957  2.8391
 8376TIP3   OH225091   0.947   2.118   2.057  1.2118 -0.2413  0.2649
 8376TIP3    H125092   0.920   2.207   2.032  1.3983  0.2591  1.7040
 8376TIP3    H225093   0.872   2.063   2.037  0.7826  0.3853  0.1189
 8377TIP3   OH225094   0.230   4.933   3.221  0.2446 -0.0900 -0.7656
 8377TIP3    H125095   0.141   4.900   3.219  0.6455 -1.6199  1.9459
 8377TIP3    H225096   0.236   4.983   3.302  2.2588 -1.4674  0.0249
 8378TIP3   OH225097   3.873   2.269   3.138 -0.1580 -0.0906 -0.0520
 8378TIP3    H125098   3.961   2.253   3.104  0.3821 -1.5394  1.8633
 8378TIP3    H225099   3.880   2.351   3.187  0.0011  0.0156 -0.2486
 8379TIP3   OH225100   6.201   4.811   1.297  0.3921  0.1844  0.1315
 8379TIP3    H125101   6.145   4.733   1.304 -1.4812  1.3470 -0.9658
 8379TIP3    H225102   6.288   4.781   1.324 -0.6011 -1.8804  1.2899
 8380TIP3   OH225103   7.168   0.744   1.026  0.5510 -0.0706  0.4071
 8380TIP3    H125104   7.151   0.821   1.080 -1.2901 -1.4941  1.9721
 8380TIP3    H225105   7.263   0.738   1.022  0.7632  0.5422  2.9058
 8381TIP3   OH225106   4.513   6.192   5.153 -0.0420  0.3261  0.1753
 8381TIP3    H125107   4.525   6.263   5.090 -1.2746 -0.7419 -1.3401
 8381TIP3    H225108   4.431   6.151   5.126  0.1923 -1.1190  1.5720
 8382TIP3   OH225109   0.105   4.744   1.340  0.1651  0.8619 -0.1623
 8382TIP3    H125110   0.031   4.769   1.285 -2.8901 -1.4605  2.4895
 8382TIP3    H225111   0.099   4.801   1.416  0.1190 -0.3071  0.7439
 8383TIP3   OH225112   4.417   3.277   1.982  0.1078 -0.2099  0.2308
 8383TIP3    H125113   4.469   3.203   2.012  0.2471 -0.1526  0.1310
 8383TIP3    H225114   4.431   3.280   1.887 -0.8940 -0.8176  0.0614
 8384TIP3   OH225115   2.597   0.942   3.135  0.3509 -0.1267 -0.3800
 8384TIP3    H125116   2.673   0.912   3.085 -0.6387 -0.9645 -1.4226
 8384TIP3    H225117   2.528   0.881   3.112 -1.1132  1.5914 -0.7841
 8385TIP3   OH225118   5.647   1.238   0.040  0.0778 -0.4397  0.3801
 8385TIP3    H125119   5.635   1.187   0.121 -0.4402 -0.6926  0.1464
 8385TIP3    H225120   5.642   1.173  -0.030 -1.6958  0.0536  0.0003
 8386TIP3   OH225121   1.504   1.199   1.828 -0.2056  0.2319  0.6819
 8386TIP3    H125122   1.453   1.264   1.876  0.5434  0.0863  1.7350
 8386TIP3    H225123   1.495   1.119   1.880 -0.1076 -0.1745  0.0804
 8387TIP3   OH225124   6.148   1.903   3.084 -0.0000 -0.0421  0.4327
 8387TIP3    H125125   6.075   1.894   3.024  0.3619  0.7995 -0.1568
 8387TIP3    H225126   6.187   1.988   3.062  0.1317  0.2987  1.8644
 8388TIP3   OH225127   3.352   5.938   2.488 -0.0995  0.1904  0.0028
 8388TIP3    H125128   3.432   5.989   2.503  0.6119 -0.3988 -1.4998
 8388TIP3    H225129   3.318   5.919   2.575  0.7508  1.4493  0.6412
 8389TIP3   OH225130   4.533   4.919   4.746  0.6228  0.0512  0.1023
 8389TIP3    H125131   4.448   4.883   4.773 -0.7139  2.8219 -0.1046
 8389TIP3    H225132   4.518   4.953   4.658  1.1278  2.9563  1.0576
 8390TIP3   OH225133   1.998   1.100   1.704  0.2084 -0.1190  0.2247
 8390TIP3    H125134   2.008   1.106   1.609 -1.2311  0.8477  0.0879
 8390TIP3    H225135   2.022   1.010   1.726  1.5257 -0.0755 -0.9024
 8391TIP3   OH225136   1.516   2.911   1.929  0.5686  0.3494 -0.0213
 8391TIP3    H125137   1.562   2.995   1.927  2.4720 -0.6124  0.9058
 8391TIP3    H225138   1.481   2.904   2.018  1.7940 -0.5029  0.4188
 8392TIP3   OH225139   7.139   1.367   2.930  0.0711 -0.4209 -0.6017
 8392TIP3    H125140   7.137   1.382   3.024  2.2656 -0.0755 -0.5506
 8392TIP3    H225141   7.063   1.312   2.912 -0.2818 -0.6374  1.3973
 8393TIP3   OH225142   0.360   2.363   3.495 -0.1002  0.1690 -0.3212
 8393TIP3    H125143   0.384   2.426   3.428  0.2314 -0.2746 -0.6192
 8393TIP3    H225144   0.295   2.409   3.549  0.5700  0.9750 -0.1773
 8394TIP3   OH225145   6.987   0.940   2.257 -0.0445 -0.1374  0.1303
 8394TIP3    H125146   7.000   0.876   2.188  0.2779 -0.0066  0.0668
 8394TIP3    H225147   6.925   0.899   2.317 -2.2471  0.6919 -1.4707
 8395TIP3   OH225148   3.934   6.771   0.272  0.0055  0.2130  0.3959
 8395TIP3    H125149   4.004   6.745   0.213 -0.1581  1.7717 -0.5524
 8395TIP3    H225150   3.979   6.820   0.342 -0.0403  0.4941  0.2314
 8396TIP3   OH225151   2.974   3.318   3.705 -0.9873  0.0440 -0.1842
 8396TIP3    H125152   2.977   3.242   3.763  0.5633 -1.1185 -1.6692
 8396TIP3    H225153   2.911   3.294   3.637 -0.8704  0.2975 -0.3817
 8397TIP3   OH225154   7.038   5.962   5.006  0.6388 -0.4324 -0.5429
 8397TIP3    H125155   7.097   5.966   5.081  1.1779 -1.4275 -0.8898
 8397TIP3    H225156   6.962   5.914   5.039  0.9827 -1.0915 -0.6834
 8398TIP3   OH225157   2.816   2.409   4.061  0.3475  0.4144 -0.6732
 8398TIP3    H125158   2.823   2.383   3.969  3.5492 -2.8036  0.2441
 8398TIP3    H225159   2.759   2.343   4.100 -1.0654  1.8094 -0.2559
 8399TIP3   OH225160   4.651   1.854   4.176  0.2751  0.0270 -0.2832
 8399TIP3    H125161   4.568   1.863   4.130 -0.2066 -1.2443  0.2877
 8399TIP3    H225162   4.691   1.941   4.171 -0.2209  0.1863 -2.1700
 8400TIP3   OH225163   5.056   5.509   2.959 -0.1369  0.3062  0.0832
 8400TIP3    H125164   4.962   5.501   2.945 -0.2729  0.5705  0.7808
 8400TIP3    H225165   5.086   5.418   2.967 -0.5423  0.2393  1.0687
 8401TIP3   OH225166   6.871   5.538   4.139 -0.4050  1.0854  0.0804
 8401TIP3    H125167   6.798   5.480   4.116  0.5951  0.0316 -0.4763
 8401TIP3    H225168   6.925   5.487   4.199  2.2275  0.1179 -2.8955
 8402TIP3   OH225169   5.131   4.303   1.287  0.6379 -0.1908 -0.1808
 8402TIP3    H125170   5.157   4.382   1.240 -0.8847  1.5474  1.7274
 8402TIP3    H225171   5.040   4.288   1.261  0.8945 -1.3421 -0.4870
 8403TIP3   OH225172   7.125   4.004   4.086 -0.3508 -0.3088  0.4473
 8403TIP3    H125173   7.147   3.947   4.160 -0.6153  0.3414  1.0390
 8403TIP3    H225174   7.210   4.035   4.054 -0.1360 -1.8237 -0.5429
 8404TIP3   OH225175   4.286   6.029   1.009 -0.4633  0.3803  0.6988
 8404TIP3    H125176   4.205   6.078   1.021 -0.8877 -0.3737  0.9859
 8404TIP3    H225177   4.355   6.095   1.015 -1.1135  1.2699 -1.0379
 8405TIP3   OH225178   2.487   5.420   5.894 -0.3478 -0.3906  0.3895
 8405TIP3    H125179   2.500   5.359   5.821 -1.2053 -1.4855  1.1038
 8405TIP3    H225180   2.392   5.420   5.908 -0.3550  1.1085  0.4361
 8406TIP3   OH225181   5.789   4.595   4.618  0.5637  0.1334 -0.4460
 8406TIP3    H125182   5.875   4.594   4.576  1.1368  0.2593  0.6904
 8406TIP3    H225183   5.732   4.637   4.554  1.1240 -0.8067 -1.6079
 8407TIP3   OH225184   7.046   0.967   5.231  0.2109 -0.2389 -0.2283
 8407TIP3    H125185   6.984   0.952   5.159 -1.7650  2.1408  0.8433
 8407TIP3    H225186   6.991   0.986   5.306  2.2622 -1.0872  1.5913
 8408TIP3   OH225187   6.478   5.557   5.224  0.3839  0.3483 -0.3296
 8408TIP3    H125188   6.546   5.578   5.160  1.2592  1.0336  0.7828
 8408TIP3    H225189   6.441   5.474   5.193  1.8451 -0.1328 -0.8725
 8409TIP3   OH225190   0.952   3.172   3.539  0.4148 -0.2220 -0.3639
 8409TIP3    H125191   0.964   3.265   3.562  0.5145 -0.3696  0.1862
 8409TIP3    H225192   0.867   3.149   3.576  0.7229 -0.5490  0.1459
 8410TIP3   OH225193   0.003   4.298   5.161 -0.2423  0.1523  0.4932
 8410TIP3    H125194   0.083   4.255   5.131 -0.8177 -1.9510  1.7340
 8410TIP3    H225195  -0.051   4.305   5.082  0.7569  0.6925 -0.1655
 8411TIP3   OH225196   3.509   1.096   2.040 -0.2461 -0.0303  0.4040
 8411TIP3    H125197   3.515   1.112   1.946 -0.1342  1.6696  0.6646
 8411TIP3    H225198   3.584   1.041   2.061 -0.5253 -0.7877 -0.5689
 8412TIP3   OH225199   4.853   4.078   5.385 -0.2957  0.5153  0.0962
 8412TIP3    H125200   4.760   4.084   5.406 -0.3888  0.4705 -0.2952
 8412TIP3    H225201   4.869   3.984   5.375 -0.2519  0.5336 -0.0163
 8413TIP3   OH225202   5.386   4.667   3.187 -0.4929 -0.8255 -0.5197
 8413TIP3    H125203   5.309   4.617   3.214  0.5393 -1.9837  0.4163
 8413TIP3    H225204   5.384   4.666   3.091 -2.2230  0.1343 -0.5175
 8414TIP3   OH225205   2.396   0.288   0.834 -0.6265 -0.1151  0.3378
 8414TIP3    H125206   2.450   0.367   0.843  0.3524 -0.8805  1.6829
 8414TIP3    H225207   2.378   0.262   0.924 -2.1097 -0.6683 -0.0992
 8415TIP3   OH225208   3.284   4.010   0.446 -0.6752  0.0817  0.5512
 8415TIP3    H125209   3.224   4.078   0.478 -2.0428 -1.1874  0.8014
 8415TIP3    H225210   3.347   4.057   0.393 -1.1562  1.6438  1.2985
 8416TIP3   OH225211   0.911   3.624   4.275 -0.1027  0.6813 -0.4140
 8416TIP3    H125212   1.000   3.607   4.308 -0.7193 -1.8615  0.1605
 8416TIP3    H225213   0.872   3.680   4.342 -0.1320 -1.3950  1.4417
 8417TIP3   OH225214   0.001   4.537   4.354  0.3732 -0.1466  0.3097
 8417TIP3    H125215  -0.008   4.540   4.259  0.7898 -1.7797  0.1853
 8417TIP3    H225216   0.049   4.456   4.371 -3.3046 -2.2079  2.1406
 8418TIP3   OH225217   0.027   0.170   3.934 -0.5236 -0.1433  0.2975
 8418TIP3    H125218  -0.010   0.126   4.010  0.4957 -0.8501  0.4128
 8418TIP3    H225219  -0.005   0.260   3.940 -0.9949 -0.3590  1.1870
 8419TIP3   OH225220   3.921   0.725   5.123 -0.8311  0.0009 -0.7803
 8419TIP3    H125221   3.890   0.659   5.185  1.0932  1.2813  1.7210
 8419TIP3    H225222   3.842   0.750   5.074 -2.2556 -1.7844  0.4479
 8420TIP3   OH225223   6.974   5.692   1.042 -0.2198  0.1685  0.6728
 8420TIP3    H125224   6.984   5.738   1.125  2.7463  0.7343  0.1083
 8420TIP3    H225225   6.947   5.760   0.980  2.8806  1.0195  0.1171
 8421TIP3   OH225226   2.148   3.213   5.535 -0.3252  0.3972  0.8856
 8421TIP3    H125227   2.107   3.285   5.581 -1.1497  0.1167  0.6087
 8421TIP3    H225228   2.151   3.142   5.599 -1.6764 -0.0646  0.4651
 8422TIP3   OH225229   7.170   1.906   2.730 -0.2731 -0.2246  0.4479
 8422TIP3    H125230   7.117   1.918   2.809  1.0925 -0.8647  1.4982
 8422TIP3    H225231   7.258   1.887   2.762  0.4215 -0.0701 -1.2415
 8423TIP3   OH225232   2.854   3.816   5.718  0.1459  0.5071  0.2418
 8423TIP3    H125233   2.885   3.859   5.798 -0.0565 -1.9918  1.8046
 8423TIP3    H225234   2.760   3.833   5.716  0.0547  0.1184  0.8813
 8424TIP3   OH225235   1.805   6.694   4.381  0.4167  0.0784  0.2474
 8424TIP3    H125236   1.884   6.643   4.396  0.0955 -0.3420  0.5224
 8424TIP3    H225237   1.825   6.781   4.416  1.4829  0.5932 -1.5211
 8425TIP3   OH225238   2.686   0.896   2.857  0.3452  0.4600 -0.1826
 8425TIP3    H125239   2.594   0.867   2.860  0.7325 -1.1932 -1.9236
 8425TIP3    H225240   2.735   0.815   2.842  2.5814  0.5992  4.5308
 8426TIP3   OH225241   5.269   2.292   5.662  0.3763  0.1049  0.2760
 8426TIP3    H125242   5.307   2.206   5.641  0.8312  0.3709  0.0081
 8426TIP3    H225243   5.333   2.355   5.631 -0.8745  0.6052 -1.4432
 8427TIP3   OH225244   6.801   6.358   2.815  0.5886  0.4742 -0.1023
 8427TIP3    H125245   6.711   6.352   2.845  1.1826 -1.5525  1.4979
 8427TIP3    H225246   6.795   6.344   2.720 -0.6350 -2.1482  0.2704
 8428TIP3   OH225247   7.144   1.338   2.169  0.4034  0.4223  0.3496
 8428TIP3    H125248   7.214   1.402   2.158 -0.6600  2.0586  2.5268
 8428TIP3    H225249   7.098   1.365   2.248 -0.6419 -2.5583  0.8870
 8429TIP3   OH225250   5.169   2.915   3.465  0.6512  0.0872  0.3164
 8429TIP3    H125251   5.150   2.952   3.552 -0.5730  3.6574 -1.2802
 8429TIP3    H225252   5.261   2.936   3.450  0.2829  1.5089 -0.0826
 8430TIP3   OH225253   3.947   1.227   0.819  0.1062 -0.2650 -0.6575
 8430TIP3    H125254   3.918   1.206   0.907  1.0470 -0.2005 -0.3273
 8430TIP3    H225255   4.000   1.306   0.829 -0.1414 -0.0013 -1.3407
 8431TIP3   OH225256   3.915   2.660   0.870  0.3550 -0.1421 -0.3399
 8431TIP3    H125257   4.007   2.679   0.887  0.0243  0.4597  0.8395
 8431TIP3    H225258   3.883   2.737   0.822 -0.8056  2.2929  3.8254
 8432TIP3   OH225259   4.413   2.108   5.557 -0.1009  0.1713 -0.0040
 8432TIP3    H125260   4.460   2.190   5.567 -1.4797  0.7522  3.1058
 8432TIP3    H225261   4.362   2.118   5.477  0.8461  1.7381 -0.4348
 8433TIP3   OH225262   6.476   2.720   4.126 -0.6675 -0.1880  0.2445
 8433TIP3    H125263   6.381   2.720   4.112 -0.5029 -1.5790 -1.0865
 8433TIP3    H225264   6.497   2.811   4.146 -2.2665  0.1665  0.4834
 8434TIP3   OH225265   1.853   0.254   1.935  0.0823  0.0639  0.3492
 8434TIP3    H125266   1.847   0.183   1.871  0.5878  0.5263 -0.2260
 8434TIP3    H225267   1.767   0.295   1.935 -0.0915 -0.2975  0.3934
 8435TIP3   OH225268   5.474   6.409   2.975 -0.1090 -0.4403 -0.0067
 8435TIP3    H125269   5.548   6.350   2.983 -0.9853 -1.6230 -0.3349
 8435TIP3    H225270   5.457   6.440   3.064 -0.7536 -2.1184  0.4945
 8436TIP3   OH225271   0.389   5.207   4.375  0.1146  0.2734 -0.1602
 8436TIP3    H125272   0.399   5.269   4.448  0.5375 -1.3520  1.2162
 8436TIP3    H225273   0.412   5.258   4.297  0.1132  1.9352  0.8844
 8437TIP3   OH225274   1.781   0.955   1.839  0.3642 -0.2125 -0.1265
 8437TIP3    H125275   1.861   0.911   1.809 -0.1297 -0.9258 -0.4309
 8437TIP3    H225276   1.759   1.015   1.768 -0.1522 -1.0501 -0.6916
 8438TIP3   OH225277   3.551   4.336   3.607 -0.2977  0.2171  0.4085
 8438TIP3    H125278   3.466   4.371   3.580 -0.1637 -1.0110 -1.8613
 8438TIP3    H225279   3.558   4.359   3.699 -2.6025  1.2970  0.3899
 8439TIP3   OH225280   5.679   5.616   4.577 -0.0004 -0.3538  0.0472
 8439TIP3    H125281   5.712   5.536   4.536  0.6655 -0.7274  1.2743
 8439TIP3    H225282   5.584   5.607   4.576 -0.1713  0.5345 -3.1536
 8440TIP3   OH225283   1.145   0.004   5.765  0.0672  0.0763  0.2200
 8440TIP3    H125284   1.106  -0.040   5.689 -1.2399  0.0701  0.8574
 8440TIP3    H225285   1.177   0.087   5.731 -2.0483  0.8340 -0.0620
 8441TIP3   OH225286   6.619   3.242   5.078  0.3681  0.1697  0.5010
 8441TIP3    H125287   6.555   3.172   5.089  0.2725  0.1206 -0.2710
 8441TIP3    H225288   6.591   3.312   5.137  0.4544 -0.4365  1.2600
 8442TIP3   OH225289   5.016   1.470   0.923  0.1648 -0.0517 -0.1235
 8442TIP3    H125290   4.971   1.422   0.993  0.2519 -0.0395 -0.0600
 8442TIP3    H225291   5.108   1.469   0.948  0.2599 -0.4559 -0.4775
 8443TIP3   OH225292   1.905   1.981   1.722 -0.4637 -0.2298  0.3276
 8443TIP3    H125293   1.855   1.914   1.676  1.2750 -0.9873 -0.5729
 8443TIP3    H225294   1.841   2.050   1.741 -1.8027 -1.0718 -0.8785
 8444TIP3   OH225295   3.113   2.975   3.109 -0.3368 -0.1395  0.3035
 8444TIP3    H125296   3.125   2.948   3.018  0.8616  0.4893  0.2543
 8444TIP3    H225297   3.113   3.071   3.106 -2.3918 -0.0718  0.7389
 8445TIP3   OH225298   0.252   2.919   1.312  0.7149 -0.0760 -0.1452
 8445TIP3    H125299   0.298   2.879   1.238  3.5104  0.3664  1.1989
 8445TIP3    H225300   0.228   2.845   1.368  0.6009 -0.2588 -0.4345
 8446TIP3   OH225301   5.573   4.113   5.803 -0.0249  0.2313 -0.0075
 8446TIP3    H125302   5.543   4.159   5.724  1.2486 -0.7667 -1.1347
 8446TIP3    H225303   5.551   4.021   5.786 -1.9920  0.2671  1.9457
 8447TIP3   OH225304   2.857   0.255   1.608 -0.0468  0.1808  0.3278
 8447TIP3    H125305   2.858   0.160   1.619 -2.4625  0.1842  1.0648
 8447TIP3    H225306   2.928   0.287   1.665  0.2616 -1.1028  0.6965
 8448TIP3   OH225307   5.325   4.270   0.375  0.0174  0.0518  0.1913
 8448TIP3    H125308   5.307   4.261   0.281 -0.8093  0.6083  0.2833
 8448TIP3    H225309   5.271   4.344   0.402  2.5057  1.8461  0.5122
 8449TIP3   OH225310   5.417   2.136   3.980 -0.3387  0.0698  0.0084
 8449TIP3    H125311   5.325   2.127   3.955 -0.2962  1.6887 -0.8272
 8449TIP3    H225312   5.449   2.211   3.930  1.6910 -0.9947 -0.4053
 8450TIP3   OH225313   6.403   5.922   4.350 -0.4024  0.1058  0.0743
 8450TIP3    H125314   6.354   5.992   4.392 -3.0944 -1.0074 -1.0217
 8450TIP3    H225315   6.421   5.955   4.262 -1.2135 -0.3615 -0.2716
 8451TIP3   OH225316   6.231   3.820   1.283  0.4612 -0.3428  0.2505
 8451TIP3    H125317   6.181   3.743   1.256  0.1157  0.4451 -1.5080
 8451TIP3    H225318   6.165   3.878   1.323  0.2592 -0.0103 -0.5399
 8452TIP3   OH225319   0.145   4.308   4.439  0.2084 -0.0818 -0.2667
 8452TIP3    H125320   0.056   4.303   4.475  0.1805 -1.1119 -0.4292
 8452TIP3    H225321   0.160   4.220   4.404  1.2510  0.1197 -0.3314
 8453TIP3   OH225322   6.866   1.787   1.722  0.1830 -0.4978 -0.2555
 8453TIP3    H125323   6.831   1.841   1.793 -1.5033  1.0138 -2.0948
 8453TIP3    H225324   6.948   1.829   1.697  0.4758 -0.6846  0.3763
 8454TIP3   OH225325   4.840   5.892   2.412 -0.1528  0.2850 -0.2872
 8454TIP3    H125326   4.842   5.816   2.471  1.3958  0.4081 -0.1407
 8454TIP3    H225327   4.775   5.951   2.451 -2.8863 -1.7577 -1.4951
 8455TIP3   OH225328   2.143   6.168   4.242  0.9059 -0.1009  0.5302
 8455TIP3    H125329   2.106   6.249   4.208 -0.4869 -0.9923 -0.1193
 8455TIP3    H225330   2.219   6.151   4.186  2.3864  1.7015  1.8423
 8456TIP3   OH225331   2.025   3.393   4.398 -0.3384  0.0187  0.0528
 8456TIP3    H125332   2.009   3.299   4.393 -0.3319 -0.0402  0.9874
 8456TIP3    H225333   1.958   3.426   4.457  0.4969  0.3759  0.8337
 8457TIP3   OH225334   0.541   3.371   1.244 -0.0335  0.1121 -0.4445
 8457TIP3    H125335   0.453   3.352   1.212  0.6407 -2.2905 -1.0116
 8457TIP3    H225336   0.581   3.424   1.174 -0.1105 -1.2050 -1.5300
 8458TIP3   OH225337   2.983   4.041   1.302  0.2484  0.1921 -0.4639
 8458TIP3    H125338   3.015   3.952   1.291  1.0653  0.4966 -0.5997
 8458TIP3    H225339   3.061   4.095   1.305 -0.1450  0.7330  1.4157
 8459TIP3   OH225340   2.571   6.120   0.535  0.1945 -0.0072  0.0008
 8459TIP3    H125341   2.607   6.195   0.582 -1.6901  0.7130  0.4015
 8459TIP3    H225342   2.529   6.159   0.458 -0.2692 -0.7220 -0.1114
 8460TIP3   OH225343   6.740   1.571   5.056  0.1536  0.5067 -0.1381
 8460TIP3    H125344   6.650   1.547   5.076  0.2883  1.9157  2.5897
 8460TIP3    H225345   6.763   1.517   4.981 -2.3543 -1.1900  0.1999
 8461TIP3   OH225346   6.797   5.212   4.187 -0.1375 -0.3039  0.0114
 8461TIP3    H125347   6.826   5.170   4.268 -1.1531 -0.2896  0.3898
 8461TIP3    H225348   6.724   5.159   4.157  0.0288 -0.1231 -0.7362
 8462TIP3   OH225349   1.586   6.551   2.530 -0.3034  0.4862  0.1646
 8462TIP3    H125350   1.566   6.573   2.620 -0.4114  0.8568  0.0502
 8462TIP3    H225351   1.531   6.475   2.511 -1.5717  1.4486 -0.1238
 8463TIP3   OH225352   4.404   0.368   4.868 -0.5311  0.4641  0.0299
 8463TIP3    H125353   4.414   0.446   4.924 -1.1983  0.2473  0.4704
 8463TIP3    H225354   4.473   0.377   4.802  1.1455  0.0598  1.6441
 8464TIP3   OH225355   0.768   6.791   4.800  0.4258 -0.7571 -0.0274
 8464TIP3    H125356   0.839   6.831   4.749  0.1344 -0.5766 -0.3012
 8464TIP3    H225357   0.742   6.715   4.749  0.0492 -0.5055 -0.2183
 8465TIP3   OH225358   2.385   0.587   5.515 -0.2133 -0.9455 -0.3109
 8465TIP3    H125359   2.448   0.547   5.575  0.1663 -0.7760 -0.5919
 8465TIP3    H225360   2.299   0.563   5.550 -0.0275  0.3225  1.1062
 8466TIP3   OH225361   6.110   6.413   3.086 -0.0821  0.0365  0.0606
 8466TIP3    H125362   6.187   6.381   3.132 -0.0425  0.5739  0.3759
 8466TIP3    H225363   6.129   6.505   3.068 -1.0414  0.4438  1.0066
 8467TIP3   OH225364   0.122   4.838   0.081  0.0781 -0.2300  0.6911
 8467TIP3    H125365   0.075   4.816   0.000  0.9499 -0.5360  0.2461
 8467TIP3    H225366   0.054   4.860   0.144 -0.6461 -0.5542  0.0351
 8468TIP3   OH225367   0.787   1.454   3.550 -0.5242 -0.3957 -0.4232
 8468TIP3    H125368   0.852   1.384   3.557  1.2487  1.0636 -1.3532
 8468TIP3    H225369   0.776   1.485   3.640  2.2529  1.1400 -0.4987
 8469TIP3   OH225370   1.275   1.688   4.248  0.6767 -0.2432 -0.2714
 8469TIP3    H125371   1.315   1.688   4.161  2.2282  0.2776  0.3990
 8469TIP3    H225372   1.343   1.654   4.306 -0.3588 -0.6624  0.7349
 8470TIP3   OH225373   1.270   6.133   0.791  0.0212  0.4720 -0.0938
 8470TIP3    H125374   1.278   6.226   0.770  0.0769  0.8750  1.5802
 8470TIP3    H225375   1.296   6.127   0.883 -0.6627 -1.0885  0.0259
 8471TIP3   OH225376   1.485   0.281   0.938  0.4753 -0.1561  0.0176
 8471TIP3    H125377   1.462   0.373   0.928  2.2751  0.2359 -1.0298
 8471TIP3    H225378   1.454   0.239   0.859  0.6130 -0.2231 -0.0019
 8472TIP3   OH225379   1.847   3.834   3.227  0.0201 -0.1817  0.6917
 8472TIP3    H125380   1.777   3.865   3.171  0.2877 -1.7570 -0.6049
 8472TIP3    H225381   1.925   3.882   3.197  0.0802 -0.7177 -0.0663
 8473TIP3   OH225382   5.151   5.705   4.275 -0.5790  0.7674 -0.3405
 8473TIP3    H125383   5.195   5.625   4.304 -0.8509  0.5066 -0.6323
 8473TIP3    H225384   5.059   5.691   4.298 -1.1316 -0.2046 -2.8122
 8474TIP3   OH225385   3.125   5.006   1.629  0.4882 -0.1815  0.1354
 8474TIP3    H125386   3.190   5.040   1.567  1.5108 -1.2914  0.5814
 8474TIP3    H225387   3.176   4.957   1.694 -0.7560 -0.7639  0.7040
 8475TIP3   OH225388   1.236   0.217   1.624 -0.5782 -0.4895  0.0608
 8475TIP3    H125389   1.221   0.218   1.718  1.0252 -0.1708  0.3426
 8475TIP3    H225390   1.210   0.305   1.595  0.3622 -0.0438  0.4907
 8476TIP3   OH225391   3.527   6.414   1.791 -0.3172 -0.4031  0.5085
 8476TIP3    H125392   3.447   6.383   1.832  0.5629 -1.3723  1.5913
 8476TIP3    H225393   3.597   6.375   1.844  0.8934 -1.0745 -1.4596
 8477TIP3   OH225394   5.444   2.473   2.858 -0.3323 -0.4677 -0.2606
 8477TIP3    H125395   5.499   2.540   2.898  0.6916 -0.8062 -1.0591
 8477TIP3    H225396   5.377   2.523   2.809 -0.8552 -0.0581  0.8431
 8478TIP3   OH225397   6.829   3.624   1.463  0.1067 -0.0024 -0.7779
 8478TIP3    H125398   6.771   3.632   1.388 -1.3049 -0.8079  0.1734
 8478TIP3    H225399   6.877   3.543   1.448 -1.1663 -0.8891 -0.1867
 8479TIP3   OH225400   2.119   2.633   0.172  0.6975  0.2282 -1.1071
 8479TIP3    H125401   2.025   2.639   0.189  0.8191  2.0098 -0.8653
 8479TIP3    H225402   2.127   2.570   0.100 -0.7747  0.8203 -1.8167
 8480TIP3   OH225403   0.099   2.937   3.784 -0.0332 -0.1144 -0.3148
 8480TIP3    H125404   0.063   2.997   3.718  0.2227 -0.9439 -1.2373
 8480TIP3    H225405   0.184   2.976   3.807 -0.7092  0.9018  0.5524
 8481TIP3   OH225406   4.473   0.591   3.276 -0.2447 -0.5789  0.6049
 8481TIP3    H125407   4.501   0.635   3.357  1.5211 -0.1538 -0.1932
 8481TIP3    H225408   4.431   0.660   3.224  0.7155 -0.2903  0.1982
 8482TIP3   OH225409   2.285   5.087   1.369  0.1103 -0.5756  0.1224
 8482TIP3    H125410   2.262   5.116   1.458 -1.9223  1.0639 -0.8489
 8482TIP3    H225411   2.346   5.153   1.337  0.4390 -0.8849  0.1033
 8483TIP3   OH225412   4.128   6.678   1.431  0.5119 -0.3034  0.0798
 8483TIP3    H125413   4.193   6.647   1.494 -0.9356  0.0654  1.8571
 8483TIP3    H225414   4.140   6.773   1.430  0.4813 -0.3022 -0.1621
 8484TIP3   OH225415   7.042   5.242   3.974 -0.3249  0.3979  0.3567
 8484TIP3    H125416   6.983   5.168   3.958  1.0671 -0.6964  0.0487
 8484TIP3    H225417   7.012   5.278   4.058 -1.3624 -0.1590  0.2505
 8485TIP3   OH225418   4.269   0.357   4.281 -0.3375  0.8188 -0.1264
 8485TIP3    H125419   4.202   0.384   4.218 -0.6449  0.6802  0.1392
 8485TIP3    H225420   4.308   0.439   4.311 -0.3563  0.8982 -0.3176
 8486TIP3   OH225421   6.629   1.697   2.957 -0.3212 -0.0546  0.4418
 8486TIP3    H125422   6.654   1.779   2.916 -1.2863  0.7774  1.4482
 8486TIP3    H225423   6.663   1.703   3.046 -1.2710 -0.2734  0.8376
 8487TIP3   OH225424   2.470  -0.024   3.119 -0.1798 -0.0010  0.1535
 8487TIP3    H125425   2.494   0.069   3.116  0.5465 -0.1664  0.7399
 8487TIP3    H225426   2.412  -0.035   3.044  1.4712  0.4359 -1.2524
 8488TIP3   OH225427   1.981   5.130   4.472 -0.0090 -0.0773  0.0333
 8488TIP3    H125428   1.946   5.118   4.560  1.2948 -0.9578  0.4650
 8488TIP3    H225429   2.045   5.059   4.462 -2.3882 -2.1073 -2.8567
 8489TIP3   OH225430   5.873   0.634   2.060  0.2889 -0.3428  0.0256
 8489TIP3    H125431   5.924   0.706   2.022  0.0912 -0.8618 -1.2818
 8489TIP3    H225432   5.908   0.624   2.148  1.4631  0.2556 -0.3512
 8490TIP3   OH225433   2.847   1.767   0.973 -0.1253 -0.2836 -0.6775
 8490TIP3    H125434   2.936   1.775   0.937  0.4153 -3.1430 -0.2103
 8490TIP3    H225435   2.812   1.689   0.931 -1.6610 -0.3598  0.6850
 8491TIP3   OH225436   5.487   0.227   2.073 -0.0778 -0.2307  0.0773
 8491TIP3    H125437   5.511   0.222   1.981 -0.2095  0.4692 -0.0031
 8491TIP3    H225438   5.513   0.315   2.100 -0.5556 -0.2299  0.5549
 8492TIP3   OH225439   3.735   6.705   2.670  0.4894  0.1414  0.1747
 8492TIP3    H125440   3.804   6.694   2.735  0.1044  0.5308  0.6643
 8492TIP3    H225441   3.677   6.630   2.684  1.3966 -0.8130 -1.0014
 8493TIP3   OH225442   0.892   2.401   5.123 -0.1621 -0.9083  0.4078
 8493TIP3    H125443   0.961   2.410   5.189  1.0604 -2.0480 -0.6453
 8493TIP3    H225444   0.877   2.306   5.116 -1.4054 -0.7109  0.1742
 8494TIP3   OH225445   5.909   1.460   0.682 -0.2459  0.1368  0.3524
 8494TIP3    H125446   6.002   1.444   0.699  0.0377  1.8574  0.6056
 8494TIP3    H225447   5.870   1.373   0.678  1.1402 -0.5874  1.5644
 8495TIP3   OH225448   3.603   1.852   1.822  0.3804  0.1196 -0.2446
 8495TIP3    H125449   3.528   1.802   1.789  0.0748 -1.3962  2.4746
 8495TIP3    H225450   3.672   1.837   1.757 -1.2297  0.5191 -2.1576
 8496TIP3   OH225451   6.453   0.269   4.256 -0.5452 -0.4664 -0.0803
 8496TIP3    H125452   6.421   0.289   4.168 -0.0096  1.0335  0.0246
 8496TIP3    H225453   6.384   0.217   4.296  0.0453 -2.8903 -2.0231
 8497TIP3   OH225454   1.200   0.095   1.389  0.4496 -0.3911 -0.5631
 8497TIP3    H125455   1.246   0.135   1.462  0.3496  0.2165 -0.8253
 8497TIP3    H225456   1.122   0.150   1.377 -0.7237 -1.7883  0.3204
 8498TIP3   OH225457   0.695   3.916   5.014  0.3386 -0.0877  0.0016
 8498TIP3    H125458   0.761   3.867   4.965 -0.7276 -1.6484  0.0614
 8498TIP3    H225459   0.634   3.849   5.045 -1.1610  1.2942  0.1214
 8499TIP3   OH225460   1.303   0.285   2.109 -0.0365  0.1263  0.7051
 8499TIP3    H125461   1.301   0.325   2.196  0.7165 -0.0409  0.8063
 8499TIP3    H225462   1.221   0.234   2.105  0.3371 -0.5868  1.6723
 8500TIP3   OH225463   4.567   4.076   3.950 -0.2951  0.2483 -0.0746
 8500TIP3    H125464   4.633   4.145   3.942 -1.1441  0.9095 -2.3603
 8500TIP3    H225465   4.612   3.996   3.924  0.2472  0.2260  0.8979
 8501TIP3   OH225466   6.544   6.707   2.795 -0.1187 -0.1198 -0.6728
 8501TIP3    H125467   6.587   6.790   2.812 -0.0197 -0.2987 -0.0224
 8501TIP3    H225468   6.615   6.645   2.779 -0.1319 -0.3616  0.1564
 8502TIP3   OH225469   1.707   2.042   4.763 -0.1687 -0.4441  0.3311
 8502TIP3    H125470   1.713   2.012   4.854  0.2313 -1.4473 -0.0174
 8502TIP3    H225471   1.626   2.003   4.730 -0.5358  0.2647  0.3734
 8503TIP3   OH225472   6.472   2.014   2.484 -0.1519  0.1797  0.2143
 8503TIP3    H125473   6.407   1.944   2.494  0.0175  0.1011  0.8162
 8503TIP3    H225474   6.424   2.085   2.441  0.1527 -0.9703 -2.2197
 8504TIP3   OH225475   5.341   5.132   4.871  0.6699  0.2837  0.2448
 8504TIP3    H125476   5.405   5.141   4.801 -1.1938 -0.9557 -1.7670
 8504TIP3    H225477   5.381   5.071   4.933  2.3701  1.4185  0.3331
 8505TIP3   OH225478   1.303   5.363   0.017 -0.3581  0.2444 -0.2432
 8505TIP3    H125479   1.217   5.335   0.051  0.2657 -1.0507  0.3548
 8505TIP3    H225480   1.297   5.458   0.013 -0.9017  0.4266  2.4750
 8506TIP3   OH225481   4.175   6.746   2.689  0.8566 -0.4872 -0.4111
 8506TIP3    H125482   4.159   6.665   2.737 -0.0615  0.0078  0.1390
 8506TIP3    H225483   4.221   6.802   2.751 -1.0635  0.4636  0.2307
 8507TIP3   OH225484   6.151   5.953   4.771  0.5629 -0.3436  0.7993
 8507TIP3    H125485   6.227   5.952   4.828  0.7891 -1.0468  0.4971
 8507TIP3    H225486   6.176   5.900   4.696  0.2446  0.4956  0.0726
 8508TIP3   OH225487   1.442   2.897   4.324  0.0391  0.0149  0.7036
 8508TIP3    H125488   1.511   2.864   4.381 -0.1557  0.0763  0.9802
 8508TIP3    H225489   1.484   2.908   4.239 -0.0167 -1.4338  0.4593
 8509TIP3   OH225490   5.858   2.699   2.995  0.6281 -0.1677  0.0819
 8509TIP3    H125491   5.861   2.726   3.087 -0.4060 -0.8183  0.3194
 8509TIP3    H225492   5.874   2.605   2.997  0.3855 -0.2200 -0.3853
 8510TIP3   OH225493   2.031   5.543   3.820 -0.8596  0.1832  0.1134
 8510TIP3    H125494   2.102   5.537   3.884 -0.4964 -0.6041 -0.3521
 8510TIP3    H225495   2.000   5.453   3.809 -0.7454  0.2568 -0.9984
 8511TIP3   OH225496   5.863   0.944   3.998  0.5976  0.5967  0.3206
 8511TIP3    H125497   5.889   0.955   4.090  1.5166 -0.3059  0.1908
 8511TIP3    H225498   5.840   1.032   3.969 -2.3240  0.5543  2.1400
 8512TIP3   OH225499   1.683   1.483   2.806  0.0204  0.5389  0.0590
 8512TIP3    H125500   1.713   1.412   2.863  0.0972  0.3175 -0.2587
 8512TIP3    H225501   1.763   1.516   2.764 -0.1495  0.0709 -0.6474
 8513TIP3   OH225502   3.186   4.839   0.530  0.4590 -0.6231  0.2800
 8513TIP3    H125503   3.173   4.761   0.476  0.6448 -1.1791  1.0100
 8513TIP3    H225504   3.124   4.903   0.496  1.1384 -0.6621 -1.1168
 8514TIP3   OH225505   6.794   5.771   4.549  0.5101  0.3034  0.6066
 8514TIP3    H125506   6.749   5.855   4.555 -0.7458 -0.2351 -0.4939
 8514TIP3    H225507   6.886   5.792   4.535  0.0848  1.4948 -0.4726
 8515TIP3   OH225508   0.787   5.475   4.671 -0.2102  0.8188  1.3273
 8515TIP3    H125509   0.856   5.540   4.655  1.3484 -0.3698  2.9590
 8515TIP3    H225510   0.833   5.396   4.696 -2.1503 -0.4262  1.1843
 8516TIP3   OH225511   2.535   3.670   1.700  0.1936 -0.4032  0.4280
 8516TIP3    H125512   2.524   3.764   1.708  0.3729 -0.1738 -1.5155
 8516TIP3    H225513   2.529   3.637   1.790  0.1550  1.4423  1.1429
 8517TIP3   OH225514   2.727   5.238   1.175 -0.1664  0.4723 -0.4243
 8517TIP3    H125515   2.656   5.192   1.132  1.2716 -0.0110 -2.4118
 8517TIP3    H225516   2.691   5.263   1.261 -1.8717 -1.9593 -0.3332
 8518TIP3   OH225517   5.176   6.391   3.614  0.1757 -0.2141 -0.4115
 8518TIP3    H125518   5.125   6.317   3.580 -0.7751  1.2931 -2.5067
 8518TIP3    H225519   5.125   6.422   3.690  0.2168 -1.2439  0.0560
 8519TIP3   OH225520   5.947   4.737   5.732  0.4279 -0.8446 -0.2342
 8519TIP3    H125521   6.038   4.753   5.709  0.5126 -1.1291 -0.1073
 8519TIP3    H225522   5.914   4.680   5.663  1.0000 -2.6188  0.8912
 8520TIP3   OH225523   0.727   1.264   1.092 -0.2939  0.3403  0.1280
 8520TIP3    H125524   0.732   1.172   1.065 -0.2619  0.5102 -0.4518
 8520TIP3    H225525   0.731   1.314   1.010  1.2823  0.9200  0.5105
 8521TIP3   OH225526   0.711   4.053   5.766 -0.6041 -0.5182 -0.4548
 8521TIP3    H125527   0.715   3.969   5.721 -0.7201 -1.5821  1.4428
 8521TIP3    H225528   0.792   4.098   5.739 -0.3731 -1.3584 -1.2294
 8522TIP3   OH225529   6.355   1.812   5.721 -0.6607 -0.5326 -0.1485
 8522TIP3    H125530   6.433   1.865   5.739 -1.8439  1.3202 -0.2076
 8522TIP3    H225531   6.296   1.871   5.673 -1.9341 -2.0170 -0.5152
 8523TIP3   OH225532   2.382   4.578   3.942 -0.1808 -0.3119  0.6497
 8523TIP3    H125533   2.344   4.506   3.893 -0.7702  0.2281  0.2885
 8523TIP3    H225534   2.391   4.545   4.031  0.1405 -1.0316  0.3513
 8524TIP3   OH225535   5.194   4.621   4.529  0.1441 -0.2884 -0.1403
 8524TIP3    H125536   5.258   4.657   4.468 -0.5124 -0.1004 -0.7342
 8524TIP3    H225537   5.123   4.685   4.529  0.9464  0.7634  2.3350
 8525TIP3   OH225538   4.589   1.274   0.933  0.2079 -0.1768 -0.0011
 8525TIP3    H125539   4.542   1.353   0.908  0.0969 -0.7349 -1.7160
 8525TIP3    H225540   4.673   1.281   0.887 -0.7254 -2.1167 -2.2229
 8526TIP3   OH225541   6.033   4.891   3.616  0.3747  0.2699  0.2286
 8526TIP3    H125542   6.039   4.979   3.580  2.6515  1.5190  3.2062
 8526TIP3    H225543   6.101   4.841   3.571 -0.1974  0.3268 -0.7073
 8527TIP3   OH225544   2.611   4.447   4.828 -0.1777  0.1401 -0.4058
 8527TIP3    H125545   2.516   4.433   4.833 -0.3611  0.3205 -2.4331
 8527TIP3    H225546   2.626   4.529   4.874 -1.0514  0.2895 -0.3722
 8528TIP3   OH225547   1.573   0.432   5.299  0.1199 -0.1270 -0.3932
 8528TIP3    H125548   1.578   0.520   5.336  0.2900 -0.0421 -0.6143
 8528TIP3    H225549   1.638   0.381   5.348 -1.1797 -0.5814  0.9315
 8529TIP3   OH225550   0.079   5.685   4.455  0.5622  0.0159 -0.2549
 8529TIP3    H125551   0.104   5.713   4.367 -1.9177  1.0855 -0.7074
 8529TIP3    H225552  -0.004   5.729   4.471  0.9676 -0.0808  2.6783
 8530TIP3   OH225553   2.759   6.047   2.424  0.2099  0.0410 -0.0315
 8530TIP3    H125554   2.780   6.059   2.332  0.9623  0.1085  0.1418
 8530TIP3    H225555   2.820   6.105   2.470 -2.0703  2.2803  0.3908
 8531TIP3   OH225556   4.659   5.052   0.748  0.0886  0.2961 -0.0132
 8531TIP3    H125557   4.682   4.963   0.721  0.8499  0.7427 -0.8672
 8531TIP3    H225558   4.576   5.041   0.795 -1.0233 -0.6040 -2.0633
 8532TIP3   OH225559   2.683   5.421   4.521 -0.2016  0.0025  0.3957
 8532TIP3    H125560   2.776   5.437   4.539 -0.4711 -0.1588  2.1004
 8532TIP3    H225561   2.669   5.329   4.544 -1.5876  0.9897  4.2169
 8533TIP3   OH225562   0.913   5.598   5.075  0.7699 -0.1610  0.5317
 8533TIP3    H125563   0.927   5.692   5.089 -1.1085 -0.0970  2.3789
 8533TIP3    H225564   0.882   5.566   5.159 -1.3013 -1.9140 -0.8071
 8534TIP3   OH225565   4.205   3.450   2.151  0.3375 -0.0312  0.2058
 8534TIP3    H125566   4.232   3.380   2.091 -0.3900  0.2396 -0.4616
 8534TIP3    H225567   4.209   3.410   2.238 -0.2253 -0.9675 -0.1780
 8535TIP3   OH225568   5.005   1.503   3.190 -0.3476  0.3324  0.5171
 8535TIP3    H125569   5.045   1.426   3.148 -0.1962 -0.0789  1.4055
 8535TIP3    H225570   5.009   1.484   3.284 -0.2254  1.4669  0.7526
 8536TIP3   OH225571   4.364   6.699   0.502  0.2458  0.0097 -0.3322
 8536TIP3    H125572   4.337   6.787   0.474 -0.5770 -0.0471  0.2263
 8536TIP3    H225573   4.374   6.707   0.597  2.5217  0.0939 -0.5249
 8537TIP3   OH225574   5.728   2.332   0.146  0.0060 -0.1359 -0.5998
 8537TIP3    H125575   5.733   2.286   0.062 -0.2629 -3.0655  0.8405
 8537TIP3    H225576   5.657   2.288   0.193  2.2896 -1.0248  2.4023
 8538TIP3   OH225577   0.559   0.250   0.969 -0.0705  0.8705  0.3252
 8538TIP3    H125578   0.540   0.301   1.048  1.7144 -0.4623  1.6799
 8538TIP3    H225579   0.538   0.160   0.993  1.4678  0.3078 -0.3588
 8539TIP3   OH225580   0.977   3.635   0.841  0.2420  0.2368  0.3344
 8539TIP3    H125581   0.913   3.576   0.801  1.3433  0.9011 -2.5912
 8539TIP3    H225582   1.035   3.577   0.890 -0.9355 -0.6608  0.7158
 8540TIP3   OH225583   0.413   5.310   2.040 -0.1049 -0.3605  0.2361
 8540TIP3    H125584   0.507   5.319   2.053 -0.1737  1.4187 -0.1920
 8540TIP3    H225585   0.385   5.395   2.007 -1.8142 -0.9677 -0.0111
 8541TIP3   OH225586   3.864   6.322   4.602 -0.0447  0.2653  0.2969
 8541TIP3    H125587   3.793   6.358   4.654 -0.4450  0.3765 -0.3216
 8541TIP3    H225588   3.833   6.327   4.511  0.7436  0.3126  0.0217
 8542TIP3   OH225589   4.974   0.902   5.391  0.0350  0.8845  0.0035
 8542TIP3    H125590   5.020   0.958   5.453 -1.3750  3.3109 -0.9821
 8542TIP3    H225591   5.034   0.894   5.317 -0.0343  1.7858 -0.1667
 8543TIP3   OH225592   4.027   5.200   0.970  0.1521 -0.7073 -0.6477
 8543TIP3    H125593   3.945   5.150   0.969 -0.3387  0.0821 -0.1477
 8543TIP3    H225594   4.052   5.204   1.062  1.1887 -1.6180 -0.8657
 8544TIP3   OH225595   4.744   2.720   3.061 -0.0160 -0.3788 -0.0189
 8544TIP3    H125596   4.714   2.731   2.971  0.0552  0.3693  0.0422
 8544TIP3    H225597   4.743   2.626   3.076 -0.2375 -0.4900 -0.7315
 8545TIP3   OH225598   2.460   4.202   0.012  0.5008 -0.1698 -0.6345
 8545TIP3    H125599   2.517   4.246   0.075  0.9015 -0.2989 -0.9054
 8545TIP3    H225600   2.436   4.270  -0.051  0.1127 -0.0447 -0.3616
 8546TIP3   OH225601   0.818   1.941   2.266  0.3566 -0.4054 -0.5876
 8546TIP3    H125602   0.725   1.927   2.248  0.3234 -0.6234 -0.2619
 8546TIP3    H225603   0.862   1.925   2.183 -0.0314  1.1741 -1.1415
 8547TIP3   OH225604   1.167   0.603   2.213 -0.3910 -0.2271 -0.1111
 8547TIP3    H125605   1.173   0.698   2.200 -0.0495 -0.1044  0.8106
 8547TIP3    H225606   1.157   0.567   2.125  1.3086  0.5320 -0.6718
 8548TIP3   OH225607   6.539   4.453   1.859  0.1019 -0.1852 -0.0115
 8548TIP3    H125608   6.576   4.475   1.944 -0.4192  0.0178  0.1663
 8548TIP3    H225609   6.590   4.505   1.797  0.5728 -0.4380  0.1604
 8549TIP3   OH225610   4.210   1.701   4.490  0.5998  0.3124 -0.3052
 8549TIP3    H125611   4.125   1.704   4.533  1.4761 -0.5336  1.5953
 8549TIP3    H225612   4.258   1.776   4.526  0.8670  0.4772 -0.9688
 8550TIP3   OH225613   5.171   1.743   0.935 -0.4556 -0.4032 -0.6272
 8550TIP3    H125614   5.201   1.829   0.905 -0.3726  0.2858  1.2761
 8550TIP3    H225615   5.095   1.762   0.989  0.6427 -1.3164  1.3415
 8551TIP3   OH225616   5.033   4.933   2.982  0.0570  0.6287  0.2894
 8551TIP3    H125617   4.998   4.902   2.898 -1.2421  1.9362  0.3062
 8551TIP3    H225618   4.988   5.016   2.997 -0.1153  0.1997  2.5104
 8552TIP3   OH225619   4.676   3.687   2.749  0.3198 -0.1461  0.5210
 8552TIP3    H125620   4.645   3.645   2.829  1.7580 -0.6972  0.8321
 8552TIP3    H225621   4.612   3.755   2.731 -0.4894 -0.5723  1.6648
 8553TIP3   OH225622   4.767   0.669   1.050  0.4584  0.0670 -0.4023
 8553TIP3    H125623   4.706   0.658   0.977 -0.3684  0.2179  0.2482
 8553TIP3    H225624   4.717   0.716   1.116  1.4471  0.6613 -0.0472
 8554TIP3   OH225625   3.400   1.283   5.054  0.1540 -0.1446 -0.0768
 8554TIP3    H125626   3.394   1.378   5.043 -1.8534 -0.1567  0.5208
 8554TIP3    H225627   3.351   1.247   4.980  1.7398 -0.7738 -0.8510
 8555TIP3   OH225628   4.619   5.123   4.037  0.1010 -1.0536  0.0483
 8555TIP3    H125629   4.687   5.190   4.030 -0.9024 -0.0217 -0.1975
 8555TIP3    H225630   4.560   5.142   3.964 -0.6708 -1.6720  0.4999
 8556TIP3   OH225631   0.640   3.153   0.995 -0.4503  0.2366  0.4135
 8556TIP3    H125632   0.639   3.206   0.915 -0.4905 -0.0074  0.2504
 8556TIP3    H225633   0.698   3.200   1.054 -1.5445  1.1844  0.7727
 8557TIP3   OH225634   3.034   6.332   0.389 -0.3164  0.5406 -0.1763
 8557TIP3    H125635   3.075   6.246   0.398 -0.0787  0.8442  2.1902
 8557TIP3    H225636   3.098   6.393   0.426 -1.4172  1.4519  0.2710
 8558TIP3   OH225637   5.206   6.162   1.570 -0.4430  0.2920 -0.1619
 8558TIP3    H125638   5.119   6.124   1.576 -0.4103 -0.1220 -1.9515
 8558TIP3    H225639   5.264   6.087   1.552  0.5921  0.2763  2.7159
 8559TIP3   OH225640   6.098   5.924   2.822 -0.1048  0.4825 -0.2311
 8559TIP3    H125641   6.072   5.836   2.794  1.6417 -0.1635  0.0431
 8559TIP3    H225642   6.019   5.960   2.864 -0.6086 -1.3079  0.4709
 8560TIP3   OH225643   3.177   4.113   1.674 -0.2300 -0.2221 -0.7084
 8560TIP3    H125644   3.252   4.161   1.707 -0.3590 -0.8029  0.5018
 8560TIP3    H225645   3.118   4.180   1.641  0.9412  0.2177 -1.9871
 8561TIP3   OH225646   3.394   5.695   5.855  0.8383 -0.3481  0.2372
 8561TIP3    H125647   3.369   5.785   5.837  1.2898 -0.0816  0.9134
 8561TIP3    H225648   3.479   5.684   5.813  1.3868 -0.0528  1.2296
 8562TIP3   OH225649   3.158   0.158   1.408  0.4826 -0.2599  0.0458
 8562TIP3    H125650   3.128   0.119   1.490 -0.0046  0.7347  0.3584
 8562TIP3    H225651   3.078   0.189   1.365  0.5627 -2.0072 -1.4975
 8563TIP3   OH225652   1.172   6.324   4.456 -0.0829  0.4254 -0.0763
 8563TIP3    H125653   1.172   6.377   4.376 -0.9265  0.7387  0.1198
 8563TIP3    H225654   1.081   6.296   4.466  0.0180  0.3853  0.7697
 8564TIP3   OH225655   1.400   0.607   0.605 -0.1026 -0.6365 -0.1228
 8564TIP3    H125656   1.335   0.672   0.631  0.1604  0.0686 -1.1580
 8564TIP3    H225657   1.464   0.657   0.554  1.9034 -1.0655  1.7862
 8565TIP3   OH225658   7.075   1.201   4.927  0.5702  0.1255  0.2971
 8565TIP3    H125659   7.140   1.250   4.877 -0.3998 -0.8920 -2.0664
 8565TIP3    H225660   7.093   1.109   4.907 -1.5746 -0.1751 -0.4755
 8566TIP3   OH225661   1.747   4.713   0.262 -0.9598  0.0656  0.6660
 8566TIP3    H125662   1.664   4.697   0.306 -0.6094 -1.3818  0.8357
 8566TIP3    H225663   1.810   4.657   0.307  0.1889  1.3381  0.7278
 8567TIP3   OH225664   0.788   1.906   2.626  0.2242  0.1422  0.3025
 8567TIP3    H125665   0.841   1.826   2.630 -0.6802 -0.6048 -1.6268
 8567TIP3    H225666   0.723   1.888   2.559 -0.9698  1.9566  0.9177
 8568TIP3   OH225667   5.359   3.600   2.498  0.2734  0.0031  0.4473
 8568TIP3    H125668   5.333   3.580   2.588 -0.5356  1.4518  0.5671
 8568TIP3    H225669   5.305   3.675   2.474 -0.0985 -0.8390 -1.5345
 8569TIP3   OH225670   0.106   1.745   2.340 -0.0154  0.0355 -0.1408
 8569TIP3    H125671   0.131   1.732   2.432  0.3222  1.2676 -0.0416
 8569TIP3    H225672   0.187   1.775   2.298 -0.4536  0.5592 -0.6033
 8570TIP3   OH225673  -0.020   4.628   0.385 -0.0298 -0.1661  0.2241
 8570TIP3    H125674   0.066   4.650   0.349 -1.2629 -1.1697 -3.8657
 8570TIP3    H225675  -0.014   4.535   0.406 -0.8386 -1.1453 -3.2127
 8571TIP3   OH225676   4.131   4.079   4.568 -0.0583  0.3271  1.0896
 8571TIP3    H125677   4.083   4.093   4.650 -0.7190  0.1334  0.7464
 8571TIP3    H225678   4.090   4.002   4.528 -0.3059  0.9062  0.1814
 8572TIP3   OH225679   3.100   1.151   2.947 -0.1250 -0.4379  0.6014
 8572TIP3    H125680   3.177   1.174   2.894 -0.4482 -0.1565  0.2473
 8572TIP3    H225681   3.069   1.235   2.981  0.6930 -0.7133  2.1092
 8573TIP3   OH225682   0.002   6.080   2.645  0.5314 -0.2634  0.4530
 8573TIP3    H125683   0.081   6.084   2.698  0.3472  1.3280  0.6511
 8573TIP3    H225684  -0.039   5.996   2.669  0.9507 -0.0333  2.0970
 8574TIP3   OH225685   0.082   5.541   5.810  0.0888 -0.2076 -0.3303
 8574TIP3    H125686   0.047   5.630   5.817 -0.4219 -0.3749 -0.6621
 8574TIP3    H225687   0.031   5.490   5.873 -1.7165 -0.8723 -2.2182
 8575TIP3   OH225688   2.414   5.964   3.834 -0.1904 -0.0055  0.2237
 8575TIP3    H125689   2.320   5.947   3.830 -0.2393  0.3873 -0.4141
 8575TIP3    H225690   2.428   6.036   3.773  0.5453 -0.1462  0.2148
 8576TIP3   OH225691   3.590   2.298   3.727  0.3417 -0.6284 -0.1844
 8576TIP3    H125692   3.548   2.265   3.647 -1.0316  0.9284 -0.1792
 8576TIP3    H225693   3.646   2.369   3.696 -1.0558  0.7455  0.2663
 8577TIP3   OH225694   4.361   0.120   4.395  0.2529  0.0848  0.5219
 8577TIP3    H125695   4.338   0.212   4.381  0.2326 -0.1161 -0.8796
 8577TIP3    H225696   4.455   0.121   4.411  0.8588  0.1403 -2.4264
 8578TIP3   OH225697   5.691   3.180   2.130 -0.4129  0.6852 -0.1898
 8578TIP3    H125698   5.727   3.261   2.167 -0.2511 -0.2609  1.9100
 8578TIP3    H225699   5.752   3.112   2.158 -0.7679 -0.2421 -1.5594
 8579TIP3   OH225700   3.926   5.131   3.153 -0.3370  0.0067  0.2492
 8579TIP3    H125701   3.926   5.223   3.178 -0.0501  0.5821 -1.7079
 8579TIP3    H225702   3.897   5.131   3.062  0.6643 -1.7387 -0.1172
 8580TIP3   OH225703   4.930   4.578   5.841 -0.0406 -0.1783 -0.8609
 8580TIP3    H125704   4.992   4.510   5.868 -1.9797 -1.6667  0.0594
 8580TIP3    H225705   4.958   4.656   5.889  1.5689 -0.5811 -1.0873
 8581TIP3   OH225706   0.642   4.023   1.831  0.2949  0.2240  0.8004
 8581TIP3    H125707   0.569   3.968   1.804 -0.1199  0.1353  2.0291
 8581TIP3    H225708   0.699   4.027   1.755 -1.0243  0.3551 -0.2109
 8582TIP3   OH225709   0.993   4.690   4.827 -0.7387 -0.0032 -0.3038
 8582TIP3    H125710   1.053   4.759   4.857 -2.1365  0.4366  1.6753
 8582TIP3    H225711   0.920   4.738   4.788 -0.5846 -0.4806 -1.2033
 8583TIP3   OH225712   5.621   1.855   2.362  0.0706 -0.4087  0.3401
 8583TIP3    H125713   5.592   1.942   2.333 -1.0441 -0.1491  2.0996
 8583TIP3    H225714   5.699   1.872   2.414  1.1231 -0.7106 -1.0956
 8584TIP3   OH225715   5.972   4.223   4.576 -0.0591  0.4173  0.2487
 8584TIP3    H125716   5.987   4.286   4.506 -0.6467  0.9848  0.6264
 8584TIP3    H225717   6.051   4.168   4.576  1.0968  1.9890  0.7879
 8585TIP3   OH225718   2.162   1.680   3.800 -0.0035 -0.5346  0.3600
 8585TIP3    H125719   2.185   1.588   3.796  0.9316 -0.2827 -2.6619
 8585TIP3    H225720   2.236   1.725   3.760 -0.5881  1.5156  1.4471
 8586TIP3   OH225721   3.143   3.193   5.183  0.3965  0.3756 -0.4358
 8586TIP3    H125722   3.108   3.205   5.271 -0.6892 -0.5031 -0.7287
 8586TIP3    H225723   3.081   3.134   5.140  1.4727 -0.0621 -1.4496
 8587TIP3   OH225724   3.912   1.976   4.752  0.0590  0.3164  0.3264
 8587TIP3    H125725   3.848   1.936   4.692 -0.7315  0.2759  1.1820
 8587TIP3    H225726   3.988   1.917   4.748  0.4839  0.8988 -1.4715
 8588TIP3   OH225727   1.876   6.166   5.468  0.1785  0.1702 -0.0861
 8588TIP3    H125728   1.835   6.175   5.554  2.0409 -0.4818  0.9539
 8588TIP3    H225729   1.845   6.241   5.418 -1.7877 -0.0111  0.7841
 8589TIP3   OH225730   7.204   0.140   5.082 -0.1275 -0.0777 -0.4583
 8589TIP3    H125731   7.175   0.230   5.098 -0.6677  0.3411 -3.3678
 8589TIP3    H225732   7.131   0.086   5.111 -0.8653  0.5875 -1.0111
 8590TIP3   OH225733   3.672   0.753   3.973 -0.4147  0.1614  0.4397
 8590TIP3    H125734   3.667   0.663   3.938 -2.3132  0.8043 -1.1483
 8590TIP3    H225735   3.724   0.800   3.908 -0.6338  0.5173  0.5212
 8591TIP3   OH225736   1.571   0.238   2.296 -0.2673  0.5040 -0.0201
 8591TIP3    H125737   1.635   0.231   2.367  0.5658  1.5200 -0.6275
 8591TIP3    H225738   1.499   0.289   2.333 -0.3136  0.1468  0.3922
 8592TIP3   OH225739   6.897   4.310   4.425 -0.1617  0.2272 -0.5392
 8592TIP3    H125740   6.903   4.254   4.347 -0.2600  0.8576 -1.0115
 8592TIP3    H225741   6.854   4.390   4.393 -0.4770  0.3714  0.2332
 8593TIP3   OH225742   1.598   4.427   3.138  0.0818 -0.1657 -0.1336
 8593TIP3    H125743   1.649   4.495   3.093  1.1042 -1.5192 -1.1156
 8593TIP3    H225744   1.653   4.349   3.133 -0.9822 -1.0326  1.1241
 8594TIP3   OH225745   1.641   4.786   4.403  0.3839  0.1024  0.2938
 8594TIP3    H125746   1.624   4.704   4.450  1.6464  0.2333  1.0209
 8594TIP3    H225747   1.627   4.855   4.468 -2.9536  0.7310 -0.8685
 8595TIP3   OH225748   0.351   3.768   2.946  0.0239 -0.0893  0.1674
 8595TIP3    H125749   0.345   3.736   3.036 -1.6447 -0.1049  0.0743
 8595TIP3    H225750   0.269   3.741   2.905 -0.9864  3.1895 -0.2571
 8596TIP3   OH225751   1.016   5.756   2.498  0.0678  0.1923  0.2822
 8596TIP3    H125752   1.090   5.714   2.542  0.0710 -0.3826 -0.2487
 8596TIP3    H225753   1.004   5.704   2.418 -0.8823  0.3021  0.3458
 8597TIP3   OH225754   6.372   0.677   2.467 -0.1939  0.2168  0.2549
 8597TIP3    H125755   6.415   0.691   2.551 -0.8616  0.6880  0.5275
 8597TIP3    H225756   6.279   0.689   2.485 -0.2924  1.0986 -0.6995
 8598TIP3   OH225757   5.223   0.114   1.144  0.4340  0.5317  0.0064
 8598TIP3    H125758   5.162   0.044   1.121 -0.4864  1.7099 -1.2479
 8598TIP3    H225759   5.310   0.075   1.132 -0.0585 -0.0926 -1.6930
 8599TIP3   OH225760   1.054   4.489   2.938  0.4784 -0.3744 -0.4923
 8599TIP3    H125761   1.144   4.482   2.969  0.0425  0.4145  1.0309
 8599TIP3    H225762   1.028   4.579   2.959  0.1523  0.2929 -3.2570
 8600TIP3   OH225763   5.252   5.005   4.376 -0.4269 -0.4658 -0.4319
 8600TIP3    H125764   5.251   5.064   4.451  0.3052  0.0229 -0.7857
 8600TIP3    H225765   5.345   4.984   4.363 -0.4885 -0.1655 -1.4816
 8601TIP3   OH225766   5.004   0.756   1.930  0.0201 -0.5267 -0.7857
 8601TIP3    H125767   4.934   0.807   1.971 -0.4854 -0.7026 -1.4113
 8601TIP3    H225768   4.960   0.705   1.862  0.7063 -0.8967 -0.9639
 8602TIP3   OH225769   1.114   4.146   2.468 -0.2160  0.4922 -0.0276
 8602TIP3    H125770   1.202   4.179   2.486  0.4436 -0.3592 -1.5353
 8602TIP3    H225771   1.110   4.061   2.512 -0.2709  0.5082 -0.0005
 8603TIP3   OH225772   1.103   1.843   0.444 -0.1164  0.2685 -0.3867
 8603TIP3    H125773   1.033   1.812   0.502  0.1092 -0.4614 -0.4885
 8603TIP3    H225774   1.140   1.762   0.407  1.2798  0.6034  0.2418
 8604TIP3   OH225775   5.100   5.093   5.436 -1.3337  0.0971 -0.5570
 8604TIP3    H125776   5.114   5.100   5.341 -1.2131  0.0161 -0.5462
 8604TIP3    H225777   5.180   5.050   5.468 -1.4742 -0.0883 -0.4507
 8605TIP3   OH225778   3.512   2.899   2.039 -0.9239 -0.8271 -0.0076
 8605TIP3    H125779   3.454   2.939   2.104 -1.4237 -0.3854 -0.6995
 8605TIP3    H225780   3.565   2.972   2.006 -0.0787 -1.2016  0.5078
 8606TIP3   OH225781   6.850   4.064   4.881 -0.3933  0.4767 -0.3197
 8606TIP3    H125782   6.832   4.082   4.973 -0.5582  0.6326 -0.3811
 8606TIP3    H225783   6.798   4.129   4.833  0.5989  1.1669 -0.4944
 8607TIP3   OH225784   0.916   3.293   5.736  0.4113  0.8470 -0.4117
 8607TIP3    H125785   0.873   3.286   5.821 -1.2988 -1.5995 -1.3865
 8607TIP3    H225786   0.964   3.211   5.726 -0.7093  0.3668 -2.4265
 8608TIP3   OH225787   6.190   4.976   5.312  0.0995 -0.3986  0.5588
 8608TIP3    H125788   6.147   4.896   5.343 -0.4143 -1.9025 -3.3703
 8608TIP3    H225789   6.129   5.046   5.335 -0.9279 -1.5386  1.4436
 8609TIP3   OH225790   5.552   2.971   4.960  0.3204  0.1065  0.6899
 8609TIP3    H125791   5.529   2.942   4.872  0.6113 -0.0315  0.6568
 8609TIP3    H225792   5.603   3.051   4.947 -1.5726  1.4006  0.8344
 8610TIP3   OH225793   0.910   1.655   2.653  0.4835  0.2423 -0.2395
 8610TIP3    H125794   0.924   1.573   2.605 -0.5691  0.1684 -0.4333
 8610TIP3    H225795   0.983   1.659   2.715 -0.3381 -1.6763  0.9223
 8611TIP3   OH225796   2.099   5.675   3.576 -0.4020  0.7986 -0.9807
 8611TIP3    H125797   2.193   5.687   3.594  0.3468 -3.4189 -1.0702
 8611TIP3    H225798   2.064   5.636   3.657 -1.1810 -1.0100 -2.1250
 8612TIP3   OH225799   1.389   5.498   3.446 -0.3968  0.0776 -0.1885
 8612TIP3    H125800   1.310   5.448   3.463 -0.2604 -0.1614 -0.2458
 8612TIP3    H225801   1.408   5.543   3.528 -0.2040 -0.4128  0.0416
 8613TIP3   OH225802   1.173   2.827   4.765  0.5242 -0.0304 -0.0566
 8613TIP3    H125803   1.133   2.893   4.821  2.4827  3.1470 -2.0745
 8613TIP3    H225804   1.264   2.824   4.793  1.1999  0.5671 -2.0508
 8614TIP3   OH225805   4.170   5.346   5.144 -0.6589  0.6174  0.4811
 8614TIP3    H125806   4.228   5.422   5.141  4.3680 -2.7801 -0.9815
 8614TIP3    H225807   4.139   5.336   5.054  0.3728 -0.0411  0.1699
 8615TIP3   OH225808   5.057   3.511   2.519 -0.9383  0.0497  0.2702
 8615TIP3    H125809   5.050   3.533   2.612 -2.4930  0.5979  0.0486
 8615TIP3    H225810   5.015   3.585   2.474  0.8569  0.3857 -0.9552
 8616TIP3   OH225811   5.008   6.062   1.106 -0.0052 -0.4873  0.0588
 8616TIP3    H125812   4.931   6.109   1.137  0.8777  1.1575 -0.1306
 8616TIP3    H225813   4.979   6.015   1.028 -1.0745 -0.8278  0.6454
 8617TIP3   OH225814   1.070   5.208   5.051 -0.0286  0.5173  0.3783
 8617TIP3    H125815   1.065   5.293   5.006  2.3464  0.1395 -0.7434
 8617TIP3    H225816   1.102   5.229   5.138 -1.2922  0.9241  0.7648
 8618TIP3   OH225817   6.927   1.503   0.538  0.0705  0.3997 -0.1611
 8618TIP3    H125818   6.909   1.513   0.444 -0.8340  0.4818  0.0085
 8618TIP3    H225819   6.843   1.523   0.580  0.6318  0.9569  0.7036
 8619TIP3   OH225820   0.543   2.238   3.652  0.5898  0.2190  0.3272
 8619TIP3    H125821   0.486   2.309   3.621  1.5908  0.7349 -0.3758
 8619TIP3    H225822   0.509   2.217   3.739 -0.8071  0.3636 -0.1565
 8620TIP3   OH225823   0.186   1.039   0.544 -0.0385  0.1262 -0.2628
 8620TIP3    H125824   0.125   0.977   0.583  0.0603 -0.6529 -1.2794
 8620TIP3    H225825   0.130   1.107   0.505 -0.3143 -0.7218 -1.4210
 8621TIP3   OH225826   3.044   5.991   2.707 -0.0126 -0.6136  0.4660
 8621TIP3    H125827   2.958   5.952   2.689 -0.0378 -0.3195 -0.0815
 8621TIP3    H225828   3.032   6.084   2.688  1.1956 -0.9642 -2.6544
 8622TIP3   OH225829   2.996   1.866   1.344 -0.3744  0.3001  0.6064
 8622TIP3    H125830   2.966   1.916   1.268  1.1021  0.4273  0.0750
 8622TIP3    H225831   2.988   1.775   1.316  0.1950  0.3467  0.2549
 8623TIP3   OH225832   5.569   2.002   4.556  0.0420 -0.1098  0.1890
 8623TIP3    H125833   5.635   1.937   4.532  0.4945  0.8097 -1.1842
 8623TIP3    H225834   5.515   1.959   4.622  0.5489 -1.7377 -0.4239
 8624TIP3   OH225835   2.248   1.999   2.773 -0.5339  0.3628  0.3281
 8624TIP3    H125836   2.291   2.007   2.858 -0.1306  1.0761  0.0729
 8624TIP3    H225837   2.308   2.044   2.712 -0.7498 -0.2559 -0.3498
 8625TIP3   OH225838   3.919   1.202   2.352 -0.7649 -0.2505  0.1289
 8625TIP3    H125839   3.886   1.165   2.271  3.1678 -1.6130 -1.0789
 8625TIP3    H225840   3.973   1.276   2.324  1.2296 -1.1686  1.3299
 8626TIP3   OH225841   0.535   0.634   4.990 -0.0236  0.1237  0.4100
 8626TIP3    H125842   0.476   0.563   5.015  1.1264 -1.4491 -1.0789
 8626TIP3    H225843   0.590   0.648   5.067  0.5034 -1.4704  0.3608
 8627TIP3   OH225844   3.895   6.139   4.067  0.1796 -0.2179 -0.0785
 8627TIP3    H125845   3.887   6.128   3.972 -0.3356  0.3193 -0.1067
 8627TIP3    H225846   3.807   6.121   4.101  0.4468 -0.7724  0.3424
 8628TIP3   OH225847   2.620   0.853   3.440  0.3660 -0.4229  0.6921
 8628TIP3    H125848   2.616   0.947   3.422 -0.1367 -0.8011 -1.4421
 8628TIP3    H225849   2.601   0.811   3.356  2.3654 -2.4569  1.1511
 8629TIP3   OH225850   4.059   4.683   5.143 -0.5593 -0.3244 -0.4739
 8629TIP3    H125851   4.061   4.749   5.212 -0.5973 -0.0573 -0.7280
 8629TIP3    H225852   3.993   4.619   5.173 -1.6714  0.5656 -0.9695
 8630TIP3   OH225853   4.837   2.376   4.480  0.3200 -0.4433 -0.1457
 8630TIP3    H125854   4.825   2.346   4.390 -1.1774 -0.2726 -0.0362
 8630TIP3    H225855   4.847   2.296   4.531  1.2322 -0.5384 -0.4593
 8631TIP3   OH225856   0.902   4.868   3.218 -0.0552 -0.1984  0.2849
 8631TIP3    H125857   0.952   4.835   3.292  1.8622  1.4143 -0.2089
 8631TIP3    H225858   0.860   4.947   3.252  1.8512  1.2718 -0.5853
 8632TIP3   OH225859   1.642   2.314   1.223  0.0043  0.8975 -0.3267
 8632TIP3    H125860   1.583   2.262   1.169 -0.3251  1.0554 -0.1241
 8632TIP3    H225861   1.729   2.296   1.188  0.0064 -0.4795  0.2887
 8633TIP3   OH225862   2.540   4.107   4.906  0.3033  0.2039 -0.3353
 8633TIP3    H125863   2.462   4.159   4.925  0.3311  0.1112  0.0440
 8633TIP3    H225864   2.567   4.135   4.818  1.6089  2.5019  0.7084
 8634TIP3   OH225865   1.423   5.274   1.061 -0.1663  0.3503 -0.3219
 8634TIP3    H125866   1.412   5.357   1.108 -0.5756 -0.6154  1.3879
 8634TIP3    H225867   1.338   5.257   1.022 -0.5080  0.0666  0.5186
 8635TIP3   OH225868   2.450   3.530   5.912  0.1750  0.7605  0.0080
 8635TIP3    H125869   2.444   3.449   5.861  1.6877 -0.3010  1.4090
 8635TIP3    H225870   2.536   3.565   5.892 -0.3184  1.8371 -0.2828
 8636TIP3   OH225871   0.156   5.784   3.788  0.3460 -0.1704  0.3521
 8636TIP3    H125872   0.245   5.802   3.756  0.5539 -1.0797  0.4072
 8636TIP3    H225873   0.169   5.758   3.880 -0.1450  1.3315  0.8825
 8637TIP3   OH225874   5.181   0.926   1.321 -0.1065 -0.1552 -0.4876
 8637TIP3    H125875   5.092   0.894   1.307 -0.2745 -0.0469  0.3022
 8637TIP3    H225876   5.215   0.872   1.392  0.4857 -0.2425 -0.8306
 8638TIP3   OH225877   1.052   3.167   1.682  0.3151 -0.7921 -0.0680
 8638TIP3    H125878   1.029   3.252   1.644 -0.1262 -2.2566 -3.4330
 8638TIP3    H225879   1.145   3.176   1.704  0.1720  0.7030  0.0590
 8639TIP3   OH225880   4.808   1.870   0.002 -0.3561 -0.6535  0.0039
 8639TIP3    H125881   4.784   1.803   0.066  0.1132 -1.3592 -0.5425
 8639TIP3    H225882   4.881   1.832  -0.047  0.0970  0.3659 -0.1428
 8640TIP3   OH225883   4.296   1.224   0.892 -0.1518  0.7336 -0.3751
 8640TIP3    H125884   4.374   1.170   0.899 -0.8592 -0.1277  1.4471
 8640TIP3    H225885   4.328   1.314   0.898  0.6444  0.3668  1.3110
 8641TIP3   OH225886   5.363   4.168   1.915  0.2407 -0.3953  0.0097
 8641TIP3    H125887   5.307   4.156   1.992 -0.5437 -0.5852 -0.5730
 8641TIP3    H225888   5.444   4.205   1.949 -0.2483 -0.1076  0.8806
 8642TIP3   OH225889   0.317   5.074   5.328 -0.5517 -0.4167 -0.6140
 8642TIP3    H125890   0.284   4.996   5.372  1.3484 -1.3475 -0.7252
 8642TIP3    H225891   0.308   5.144   5.392 -0.8762 -1.0534  0.0489
 8643TIP3   OH225892   5.780   5.848   2.876 -0.1079 -0.0719 -0.5919
 8643TIP3    H125893   5.792   5.935   2.840  1.2336  0.0079 -0.0338
 8643TIP3    H225894   5.688   5.844   2.901  0.2707  2.0357  1.4731
 8644TIP3   OH225895   6.419   1.534   3.385  0.0429  0.1375 -0.4003
 8644TIP3    H125896   6.341   1.577   3.351 -1.3156 -2.4119 -0.7577
 8644TIP3    H225897   6.444   1.473   3.316  2.1148  0.5454 -0.0854
 8645TIP3   OH225898   2.799   2.041   3.009 -0.3763  0.1061  0.2242
 8645TIP3    H125899   2.787   2.124   3.056 -0.1371 -0.4116  1.2226
 8645TIP3    H225900   2.802   1.975   3.078 -0.7709 -0.7657 -0.5741
 8646TIP3   OH225901   3.394   4.263   3.867 -0.3522  0.0790 -0.6733
 8646TIP3    H125902   3.416   4.356   3.879 -0.8084  0.1824 -0.6066
 8646TIP3    H225903   3.337   4.243   3.941  0.1736 -0.4017 -0.3945
 8647TIP3   OH225904   6.165   6.442   3.460  0.5328 -0.3072 -0.2679
 8647TIP3    H125905   6.115   6.370   3.497 -0.2212  0.5442  0.4396
 8647TIP3    H225906   6.204   6.407   3.380 -0.5454 -1.2283 -0.4047
 8648TIP3   OH225907   2.433   1.430   2.035  0.1999  0.3276 -0.1360
 8648TIP3    H125908   2.398   1.496   2.095  0.0519 -0.6638  0.9091
 8648TIP3    H225909   2.522   1.459   2.017 -0.0315  1.0801 -0.1040
 8649TIP3   OH225910   1.625   0.888   5.124  0.0336  0.1287  0.4258
 8649TIP3    H125911   1.552   0.879   5.184  1.1270  0.7660  1.8958
 8649TIP3    H225912   1.612   0.817   5.060  0.3513 -2.4748  3.0322
 8650TIP3   OH225913   1.420   1.954   4.732  0.1173  0.1769  0.2938
 8650TIP3    H125914   1.449   1.875   4.685  0.7803  1.9975 -2.6129
 8650TIP3    H225915   1.328   1.964   4.707  0.1550  0.5557  0.3132
 8651TIP3   OH225916   0.345   5.991   5.530  0.0967  0.0293 -0.4474
 8651TIP3    H125917   0.317   6.049   5.459 -2.4447  0.8165  1.0705
 8651TIP3    H225918   0.412   6.041   5.576 -1.2460  1.3456  0.1574
 8652TIP3   OH225919   4.178   0.972   4.276 -0.1791  0.6481  0.3294
 8652TIP3    H125920   4.160   1.037   4.209  0.2660 -0.9593 -1.4274
 8652TIP3    H225921   4.093   0.955   4.316 -1.0148 -0.3112 -1.7123
 8653TIP3   OH225922   6.871   6.797   3.733  0.9502  0.1511 -0.0316
 8653TIP3    H125923   6.872   6.703   3.751  1.7458 -0.1341 -1.4175
 8653TIP3    H225924   6.885   6.803   3.638 -2.0387  1.5438 -0.5053
 8654TIP3   OH225925   0.280   4.158   3.439 -0.1749 -0.2987  0.0905
 8654TIP3    H125926   0.371   4.158   3.470  0.4215  0.4232 -1.5316
 8654TIP3    H225927   0.242   4.238   3.473 -0.4167 -0.8998  1.2848
 8655TIP3   OH225928   1.647   4.627   5.576 -0.1156  0.6982 -0.0055
 8655TIP3    H125929   1.734   4.665   5.565  0.6100 -1.2352 -1.6226
 8655TIP3    H225930   1.617   4.610   5.486 -1.2497 -0.6046  0.5871
 8656TIP3   OH225931   1.752   2.182   1.841  0.2952 -0.0650 -0.0348
 8656TIP3    H125932   1.660   2.196   1.864  0.3730 -1.0350  0.9779
 8656TIP3    H225933   1.788   2.270   1.834 -0.8837  0.3534 -1.2614
 8657TIP3   OH225934   1.177   5.904   2.280  0.1025 -0.3977  0.3762
 8657TIP3    H125935   1.218   5.819   2.266  0.4552  0.0619 -1.6018
 8657TIP3    H225936   1.114   5.889   2.350  1.8907 -1.6903  1.8119
 8658TIP3   OH225937   3.951   3.226   1.217 -0.2888 -0.2729 -0.7874
 8658TIP3    H125938   3.957   3.136   1.248 -0.3613 -0.2105 -0.5864
 8658TIP3    H225939   4.004   3.228   1.137 -1.8905 -0.9752 -1.9168
 8659TIP3   OH225940   4.556   5.260   4.802 -0.1995 -0.1188  0.6095
 8659TIP3    H125941   4.569   5.171   4.768  0.9062 -0.6385  2.2479
 8659TIP3    H225942   4.461   5.271   4.805 -0.3434 -0.9689 -0.2749
 8660TIP3   OH225943   1.319   2.738   0.015  0.4016 -0.0969 -0.1482
 8660TIP3    H125944   1.335   2.804   0.083 -0.5499  0.0438 -0.0383
 8660TIP3    H225945   1.224   2.739   0.003  0.5298 -0.2960 -1.3131
 8661TIP3   OH225946   3.475   2.353   0.897  0.5667 -0.3078  0.2919
 8661TIP3    H125947   3.504   2.410   0.826 -1.6694  0.8248  0.1914
 8661TIP3    H225948   3.384   2.331   0.874  0.2540 -1.0874  2.0929
 8662TIP3   OH225949   2.747   3.002   4.687  0.1075  0.0542  0.3984
 8662TIP3    H125950   2.770   2.914   4.718  0.0368 -0.3822 -0.7285
 8662TIP3    H225951   2.658   2.992   4.652  0.5584  0.2695 -0.8540
 8663TIP3   OH225952   4.104   2.776   2.746  0.2605  0.5140 -1.0467
 8663TIP3    H125953   4.195   2.799   2.764 -0.1136  1.6713 -0.5000
 8663TIP3    H225954   4.104   2.681   2.742  1.3280  0.4363 -0.0312
 8664TIP3   OH225955   4.959   0.402   2.002 -0.6803  0.3055  0.3016
 8664TIP3    H125956   4.965   0.452   2.083  0.5144 -0.2631  0.5775
 8664TIP3    H225957   5.038   0.349   2.000 -0.2623  0.9131 -1.6472
 8665TIP3   OH225958   4.479   3.279   0.944  0.2144  0.4739  0.7492
 8665TIP3    H125959   4.446   3.189   0.934 -0.1273  0.5452  1.1808
 8665TIP3    H225960   4.574   3.270   0.937  0.0889  0.3805 -1.3053
 8666TIP3   OH225961   0.106   0.699   3.138  0.8840  0.0047  0.0161
 8666TIP3    H125962   0.149   0.613   3.142 -0.6794 -0.7884  0.6284
 8666TIP3    H225963   0.069   0.711   3.226  0.5289  1.0208 -0.2645
 8667TIP3   OH225964   2.395   6.222   5.422  0.2072  0.5242  0.4486
 8667TIP3    H125965   2.438   6.161   5.482  1.1822 -0.5222 -1.2086
 8667TIP3    H225966   2.434   6.202   5.337 -3.1036 -0.0914 -1.0900
 8668TIP3   OH225967   7.200   0.813   2.499 -0.6953  0.4313  0.1500
 8668TIP3    H125968   7.161   0.792   2.584 -1.6241 -0.6389 -0.5271
 8668TIP3    H225969   7.127   0.840   2.444 -0.2743 -0.0191 -0.6552
 8669TIP3   OH225970   6.647   5.294   4.940  0.2341  0.2206 -0.3490
 8669TIP3    H125971   6.604   5.380   4.938 -1.5330 -0.5487  1.2731
 8669TIP3    H225972   6.682   5.286   5.028 -0.0332 -0.8937 -0.3264
 8670TIP3   OH225973   1.045   5.811   3.372  0.1257  0.1912 -0.1588
 8670TIP3    H125974   0.994   5.873   3.423  0.9104  0.7913 -0.0864
 8670TIP3    H225975   1.018   5.826   3.282 -0.1278  0.2172 -0.0790
 8671TIP3   OH225976   6.180   5.477   1.932  0.5519  0.5686  0.2864
 8671TIP3    H125977   6.183   5.390   1.973 -1.4193  0.1337 -0.3815
 8671TIP3    H225978   6.086   5.494   1.920  0.9680  2.1769 -0.9042
 8672TIP3   OH225979   6.872   4.851   5.372  0.5859  0.1187  0.2003
 8672TIP3    H125980   6.843   4.772   5.326 -0.5259  1.1344 -0.9351
 8672TIP3    H225981   6.966   4.837   5.387  0.6621 -0.9136 -1.0312
 8673TIP3   OH225982   6.653   0.475   0.981  0.2792  0.2217  0.1695
 8673TIP3    H125983   6.727   0.523   1.018  0.7601 -0.1114 -0.3353
 8673TIP3    H225984   6.689   0.389   0.959  0.0367  0.4301 -1.1204
 8674TIP3   OH225985   0.921   2.246   1.536  0.2144 -0.4389 -0.1151
 8674TIP3    H125986   0.875   2.214   1.614  0.7387  0.3981  0.5550
 8674TIP3    H225987   0.900   2.339   1.533 -0.4860 -0.6211 -1.4740
 8675TIP3   OH225988   6.479   2.951   4.249 -0.7040  0.5389  0.5964
 8675TIP3    H125989   6.453   3.042   4.238 -1.3281  0.5165  1.7134
 8675TIP3    H225990   6.477   2.936   4.343  0.3393 -0.3664  0.5026
 8676TIP3   OH225991   4.697   6.785   2.729  0.1908 -0.4124  0.4349
 8676TIP3    H125992   4.690   6.791   2.825 -0.2586 -1.2157  0.4626
 8676TIP3    H225993   4.612   6.816   2.697  0.2769 -0.3124  0.3027
 8677TIP3   OH225994   1.567   1.631   1.079  0.6347  0.6180 -0.4926
 8677TIP3    H125995   1.596   1.658   0.991  0.3840  1.2183 -0.3939
 8677TIP3    H225996   1.637   1.661   1.137  0.1353  1.4848 -0.3288
 8678TIP3   OH225997   1.356   1.454   1.594 -0.0778 -0.7421 -0.1278
 8678TIP3    H125998   1.315   1.465   1.509  0.2931 -2.5054 -0.5559
 8678TIP3    H225999   1.368   1.360   1.604  0.2075 -0.5552  1.7265
 8679TIP3   OH226000   3.603   2.860   4.548 -0.5591 -0.7779 -0.2997
 8679TIP3    H126001   3.553   2.842   4.627 -1.6733  0.1706 -0.7536
 8679TIP3    H226002   3.581   2.789   4.488 -1.2745 -0.4416 -0.4445
 8680TIP3   OH226003   1.729   0.146   0.994  0.0681  0.3257  0.2802
 8680TIP3    H126004   1.645   0.192   0.991 -0.6146 -0.8909 -0.0126
 8680TIP3    H226005   1.787   0.205   1.044 -1.5218  0.3302  2.2568
 8681TIP3   OH226006   1.793   6.155   1.767 -0.1115  1.1483  0.2538
 8681TIP3    H126007   1.854   6.085   1.790  1.0866  1.2372 -2.3336
 8681TIP3    H226008   1.791   6.155   1.672 -1.2791  3.6457  0.1957
 8682TIP3   OH226009   0.100   2.764   0.991 -0.0364  0.0635 -0.2926
 8682TIP3    H126010   0.191   2.777   1.017 -0.1476  0.5130 -0.1078
 8682TIP3    H226011   0.050   2.788   1.069 -0.3791  1.3789 -0.8780
 8683TIP3   OH226012   1.292   5.550   3.060 -0.2160 -0.4581 -0.0016
 8683TIP3    H126013   1.344   5.628   3.043 -0.5914 -0.1640  0.1806
 8683TIP3    H226014   1.226   5.579   3.123 -0.6244 -0.8107 -0.2645
 8684TIP3   OH226015   3.724   2.740   5.111 -0.1940 -0.5587 -0.1482
 8684TIP3    H126016   3.629   2.751   5.108 -0.0798  0.5076 -0.1970
 8684TIP3    H226017   3.758   2.828   5.128  0.6856 -1.2952  2.2224
 8685TIP3   OH226018   1.804   6.251   0.030 -0.2806 -0.0447 -0.1012
 8685TIP3    H126019   1.835   6.278   0.116  0.7887 -0.4139 -0.3566
 8685TIP3    H226020   1.822   6.325  -0.027 -0.2805 -0.0864 -0.1557
 8686TIP3   OH226021   0.156   0.438   1.642 -0.4709 -0.1695  0.4020
 8686TIP3    H126022   0.231   0.455   1.699  0.3209  1.6550 -1.0881
 8686TIP3    H226023   0.081   0.474   1.689 -0.2501 -0.8887  1.3433
 8687TIP3   OH226024   4.149   2.580   1.008  0.0430  0.3204 -0.0377
 8687TIP3    H126025   4.097   2.501   1.025  0.3940  0.4223  1.7151
 8687TIP3    H226026   4.240   2.551   1.019  0.3875  0.2752 -2.5049
 8688TIP3   OH226027   1.918   3.530   0.067 -0.4617 -0.3386 -0.4743
 8688TIP3    H126028   2.014   3.524   0.073 -0.5643 -1.4502  0.6896
 8688TIP3    H226029   1.895   3.598   0.130 -0.3576  1.0229 -1.8707
 8689TIP3   OH226030   2.898   5.925   1.238 -0.5629 -0.4478  0.4535
 8689TIP3    H126031   2.897   6.001   1.296 -1.5419  0.7930 -1.1094
 8689TIP3    H226032   2.830   5.868   1.273 -2.2241  0.9875 -0.2751
 8690TIP3   OH226033   6.971   5.934   2.750 -0.4283 -0.3510  0.0540
 8690TIP3    H126034   6.997   5.844   2.768  0.8803 -0.0031 -0.0256
 8690TIP3    H226035   7.008   5.985   2.822 -1.9771  0.0185  0.6287
 8691TIP3   OH226036   4.153   5.601   4.250 -0.0869  0.1256 -0.2189
 8691TIP3    H126037   4.179   5.525   4.198 -3.1430 -0.6183 -0.8714
 8691TIP3    H226038   4.070   5.576   4.290  0.2200  2.1280  1.9204
 8692TIP3   OH226039   1.842   3.750   0.225 -0.0659 -0.0457  0.2071
 8692TIP3    H126040   1.798   3.835   0.222  0.4342  0.1940 -2.8255
 8692TIP3    H226041   1.935   3.772   0.230  0.0219 -0.4537  0.3675
 8693TIP3   OH226042   7.139   5.179   2.522 -0.3032  0.4797 -0.5260
 8693TIP3    H126043   7.158   5.223   2.605 -1.2499  1.2820 -0.7213
 8693TIP3    H226044   7.166   5.241   2.455  1.1146 -0.4468 -0.8542
 8694TIP3   OH226045   6.775   1.316   1.484  0.1133 -0.4793  0.7212
 8694TIP3    H126046   6.851   1.370   1.508  0.1071  0.8882 -1.9397
 8694TIP3    H226047   6.799   1.277   1.400 -1.6892 -0.9884  0.4086
 8695TIP3   OH226048   7.221   3.558   5.066 -0.0347  0.0792 -0.2781
 8695TIP3    H126049   7.174   3.639   5.045 -0.8892 -0.2221  0.4115
 8695TIP3    H226050   7.155   3.502   5.106  0.7568 -0.6303  0.0627
 8696TIP3   OH226051   6.725   1.499   4.680 -0.3281 -0.1135 -0.0542
 8696TIP3    H126052   6.787   1.427   4.670  0.5891  0.7235 -0.4888
 8696TIP3    H226053   6.778   1.578   4.674 -1.4201  0.6240 -0.2913
 8697TIP3   OH226054   4.381   4.312   4.390 -0.4004 -0.6398  0.2749
 8697TIP3    H126055   4.341   4.286   4.307 -1.3551  0.8323  0.2259
 8697TIP3    H226056   4.475   4.317   4.372 -0.7452  1.4378 -1.2735
 8698TIP3   OH226057   1.538   3.211   0.070 -0.1733 -0.5854  0.2089
 8698TIP3    H126058   1.579   3.133   0.108 -1.0544 -1.1969 -0.0662
 8698TIP3    H226059   1.610   3.257   0.027  0.3271 -1.3333  0.2288
 8699TIP3   OH226060   0.909   3.946   2.800  0.3138 -0.3853  0.1236
 8699TIP3    H126061   0.848   4.018   2.786  1.3660  0.9024  1.7245
 8699TIP3    H226062   0.874   3.898   2.876 -0.7963 -2.1007 -1.3939
 8700TIP3   OH226063   3.787   5.016   0.395 -0.5206  0.2723 -0.6869
 8700TIP3    H126064   3.842   4.958   0.448 -0.0897  0.5493 -0.8287
 8700TIP3    H226065   3.742   4.958   0.334 -1.1301 -0.0711  0.0607
 8701TIP3   OH226066   2.654   3.717   0.539 -0.4098 -0.5185 -0.4923
 8701TIP3    H126067   2.616   3.630   0.527 -0.5452 -0.8953  2.0320
 8701TIP3    H226068   2.600   3.758   0.607 -1.4677  2.3137 -2.8072
 8702TIP3   OH226069   2.066   2.517   1.441 -0.0604  0.0042  0.3070
 8702TIP3    H126070   2.132   2.586   1.453  0.5733 -0.6430  0.6614
 8702TIP3    H226071   2.056   2.479   1.528 -0.2449 -0.4863  0.0726
 8703TIP3   OH226072   3.072   5.649   0.973 -0.2886  0.2637  0.4250
 8703TIP3    H126073   2.991   5.612   1.010 -1.0449  0.5190 -0.9298
 8703TIP3    H226074   3.139   5.630   1.039 -1.3365 -0.4715  1.3104
 8704TIP3   OH226075   1.204   0.495   1.579  0.1084  0.0314  0.1753
 8704TIP3    H126076   1.194   0.564   1.644  1.7565 -0.3459  0.8745
 8704TIP3    H226077   1.293   0.507   1.545 -0.7247  0.2706 -2.1032
 8705TIP3   OH226078   4.248   6.671   1.723 -0.6389 -0.3179 -0.3214
 8705TIP3    H126079   4.251   6.763   1.700 -0.8532  0.2842  1.8047
 8705TIP3    H226080   4.164   6.660   1.769 -1.3906 -1.9757 -1.9357
 8706TIP3   OH226081   1.781   3.586   5.892 -0.3352 -0.2921  0.3670
 8706TIP3    H126082   1.755   3.575   5.800 -1.8218  0.4003  0.6778
 8706TIP3    H226083   1.770   3.498   5.930  0.0745 -0.5323 -0.0573
 8707TIP3   OH226084   2.074   1.062   0.887  0.0342  0.2128  0.2034
 8707TIP3    H126085   2.099   1.137   0.941  0.1187  0.7159 -0.5227
 8707TIP3    H226086   2.046   1.100   0.804 -2.6754 -0.3616  0.7621
 8708TIP3   OH226087   0.925   0.686   2.940 -0.3461  0.1277  0.0811
 8708TIP3    H126088   0.955   0.607   2.985  2.1317  0.6190 -0.5601
 8708TIP3    H226089   0.856   0.655   2.881  0.3366 -1.5203  0.0808
 8709TIP3   OH226090   6.400   5.971   0.280 -0.5233 -0.2961 -0.6459
 8709TIP3    H126091   6.307   5.952   0.283 -0.3215 -1.8833 -2.5574
 8709TIP3    H226092   6.437   5.923   0.354 -1.2716  0.8527  0.4974
 8710TIP3   OH226093   4.366   5.676   2.594 -0.7172 -0.3595 -0.0106
 8710TIP3    H126094   4.342   5.583   2.584  0.2907 -1.0423  3.0256
 8710TIP3    H226095   4.461   5.677   2.584 -0.7424  0.3902 -0.2061
 8711TIP3   OH226096   5.508   6.079   2.430 -0.7417 -0.5413 -0.0055
 8711TIP3    H126097   5.549   6.007   2.478  0.8028 -0.3106 -0.9135
 8711TIP3    H226098   5.414   6.062   2.438 -0.5137 -1.2412  1.9304
 8712TIP3   OH226099   1.846   4.092   1.543 -0.0247 -0.0797  0.0948
 8712TIP3    H126100   1.787   4.076   1.616 -1.7693  1.5710 -0.8588
 8712TIP3    H226101   1.818   4.030   1.476 -0.2470  0.2617 -0.1300
 8713TIP3   OH226102   3.761   4.029   1.859 -0.2159  0.2853  0.5177
 8713TIP3    H126103   3.685   3.974   1.845 -1.5052  2.0432  0.3115
 8713TIP3    H226104   3.766   4.039   1.955  1.3900 -1.9305  0.7551
 8714TIP3   OH226105   6.008   0.144   5.692  0.1872 -0.3412 -0.1031
 8714TIP3    H126106   6.052   0.077   5.745  0.9646 -0.9966 -1.5241
 8714TIP3    H226107   5.996   0.103   5.607 -2.0576  0.2994 -0.1454
 8715TIP3   OH226108   0.224   0.669   1.014  0.2090  0.0515  0.9940
 8715TIP3    H126109   0.272   0.746   1.045  0.3486  0.2304  0.3502
 8715TIP3    H226110   0.270   0.642   0.934  0.4996 -1.0416  1.5176
 8716TIP3   OH226111   7.041   5.501   5.541 -0.5125  0.0456 -0.2025
 8716TIP3    H126112   7.136   5.510   5.528 -0.1887 -0.2737  1.6456
 8716TIP3    H226113   7.006   5.489   5.453  1.1635  0.1589 -0.9302
 8717TIP3   OH226114   3.822   3.127   0.629  0.0636 -0.3613  0.0711
 8717TIP3    H126115   3.747   3.106   0.573  0.8286 -0.8533 -0.8048
 8717TIP3    H226116   3.890   3.065   0.601  1.1523  0.8074  0.0552
 8718TIP3   OH226117   3.249   2.449   5.535  0.5480 -0.1649  0.3487
 8718TIP3    H126118   3.255   2.463   5.441  0.4718  0.9393  0.4990
 8718TIP3    H226119   3.340   2.437   5.564  0.4248 -4.0079 -0.3198
 8719TIP3   OH226120   2.905   4.081   4.803  0.2641 -0.0448  0.1622
 8719TIP3    H126121   2.890   4.160   4.854  3.7516  0.9201 -0.0397
 8719TIP3    H226122   2.861   4.098   4.719 -0.4854  0.9117  0.7296
 8720TIP3   OH226123   1.007   4.853   5.833 -0.1188 -0.5985 -0.1512
 8720TIP3    H126124   0.956   4.777   5.860 -1.3395  0.2370 -0.0147
 8720TIP3    H226125   1.078   4.817   5.780  1.4218 -2.1342  2.7670
 8721TIP3   OH226126   1.325   6.123   0.271 -0.6423 -0.5242 -0.1774
 8721TIP3    H126127   1.416   6.100   0.253 -0.8158 -1.6518  0.3133
 8721TIP3    H226128   1.292   6.159   0.189  0.5501  0.9518 -0.0520
 8722TIP3   OH226129   2.984   4.183   5.092  0.0207 -0.2820  0.7495
 8722TIP3    H126130   3.038   4.105   5.107  1.0698  0.4075  0.6604
 8722TIP3    H226131   3.041   4.243   5.045 -0.7527  0.5730  0.8705
 8723TIP3   OH226132   1.191   1.317   2.243  0.2234 -0.1432  0.2898
 8723TIP3    H126133   1.235   1.355   2.166  1.2261 -1.3859  0.2165
 8723TIP3    H226134   1.108   1.364   2.249  0.2077  0.1130 -1.4529
 8724TIP3   OH226135   6.207   6.691   4.919  0.2847 -0.5285  0.7807
 8724TIP3    H126136   6.189   6.781   4.946  0.5707 -0.1283 -0.3112
 8724TIP3    H226137   6.204   6.640   5.000  0.3821  0.5038  1.4461
 8725TIP3   OH226138   4.491   0.322   3.757 -0.3677 -0.4953 -0.1278
 8725TIP3    H126139   4.566   0.336   3.815  0.4868  0.1232 -1.3118
 8725TIP3    H226140   4.519   0.250   3.701  0.5965  1.4906 -2.4173
 8726TIP3   OH226141   5.363   3.773   0.291  0.1872  0.1517 -0.5232
 8726TIP3    H126142   5.425   3.722   0.239  0.3036  2.2435 -2.5969
 8726TIP3    H226143   5.350   3.721   0.371  1.8995 -2.0164 -1.5497
 8727TIP3   OH226144   0.918   4.091   0.267  0.5739 -0.1474 -0.1952
 8727TIP3    H126145   0.863   4.131   0.334  0.0919  1.5581 -1.5611
 8727TIP3    H226146   1.002   4.077   0.310  0.8366  2.5618  0.3093
 8728TIP3   OH226147   1.253   4.833   5.683 -0.5786  0.1990 -1.0495
 8728TIP3    H126148   1.222   4.887   5.610 -2.1596 -1.7503 -1.9180
 8728TIP3    H226149   1.248   4.744   5.650  1.6339 -0.5539  0.4407
 8729TIP3   OH226150   2.467   0.677   3.645  0.1451  0.2800  0.0901
 8729TIP3    H126151   2.537   0.626   3.686 -0.4705  0.4894  1.4817
 8729TIP3    H226152   2.511   0.733   3.582  1.0804 -0.4642  0.0605
 8730TIP3   OH226153   6.797   4.813   3.897  0.2784 -0.3178  0.2072
 8730TIP3    H126154   6.877   4.818   3.846  0.8384 -1.3208  0.9601
 8730TIP3    H226155   6.741   4.752   3.849 -0.4035  1.0063 -0.7615
 8731TIP3   OH226156   3.151   2.563   0.436 -0.1124  0.2792  0.1097
 8731TIP3    H126157   3.177   2.525   0.352 -1.2809 -0.2369 -0.0424
 8731TIP3    H226158   3.115   2.648   0.414  0.8583  0.7416  0.2558
 8732TIP3   OH226159   3.153   2.914   2.852 -0.1060  0.4153 -0.0043
 8732TIP3    H126160   3.151   2.981   2.785 -0.0291 -0.7923 -1.2601
 8732TIP3    H226161   3.104   2.841   2.814  1.7829 -1.1137  0.3153
 8733TIP3   OH226162   6.692   5.627   2.348  0.3884  0.2928  0.4254
 8733TIP3    H126163   6.757   5.684   2.308 -1.1735  0.6183 -1.8491
 8733TIP3    H226164   6.611   5.679   2.349 -0.5893 -1.1582  0.1974
 8734TIP3   OH226165   0.668   2.857   1.043 -0.5307 -0.3852  0.0218
 8734TIP3    H126166   0.673   2.934   0.987  0.6815 -0.6412 -0.2496
 8734TIP3    H226167   0.758   2.826   1.050 -1.2054 -3.2321 -1.8951
 8735TIP3   OH226168   1.456   1.813   1.295 -0.1314 -0.4757  0.2986
 8735TIP3    H126169   1.410   1.772   1.221  0.9616 -1.9743  0.4184
 8735TIP3    H226170   1.537   1.763   1.304 -0.2202 -0.2962  2.4980
 8736TIP3   OH226171   0.383   5.806   1.184  0.0432 -0.7526  0.4696
 8736TIP3    H126172   0.390   5.879   1.246 -1.6695 -1.4893  1.6224
 8736TIP3    H226173   0.292   5.777   1.192 -0.3184 -0.7649 -2.5867
 8737TIP3   OH226174   3.623   2.412   2.981  0.1668  0.0481 -0.2621
 8737TIP3    H126175   3.703   2.395   2.930  0.6266 -0.5464  0.6324
 8737TIP3    H226176   3.626   2.505   3.001 -1.1550  0.8242 -3.1832
 8738TIP3   OH226177   1.640   5.532  -0.025  0.2112 -0.6423 -0.4796
 8738TIP3    H126178   1.571   5.599  -0.027  1.2726  0.4776 -1.6961
 8738TIP3    H226179   1.646   5.507   0.067  0.9866  2.2873  0.3826
 8739TIP3   OH226180   0.378   5.972   3.490  0.3826 -0.4780 -0.0561
 8739TIP3    H126181   0.400   6.065   3.502 -0.5883 -0.1478 -0.7087
 8739TIP3    H226182   0.409   5.929   3.570  0.1048  0.5371  0.6153
 8740TIP3   OH226183   3.378   1.375   0.315  0.7979  0.3057  0.1820
 8740TIP3    H126184   3.349   1.308   0.253  1.1953  0.8252 -0.5718
 8740TIP3    H226185   3.345   1.344   0.400 -1.5490  0.6210 -0.5379
 8741TIP3   OH226186   5.442   3.363   0.891  0.5854  0.0285 -0.1402
 8741TIP3    H126187   5.464   3.443   0.939  1.5617 -0.9522  1.1092
 8741TIP3    H226188   5.527   3.329   0.862  0.3027 -1.1756  0.3976
 8742TIP3   OH226189   2.639   1.389   0.103 -0.2233  0.2294 -0.3301
 8742TIP3    H126190   2.660   1.477   0.071 -0.8700  0.7297  0.5617
 8742TIP3    H226191   2.559   1.401   0.154  2.3331  0.1364  4.1993
 8743TIP3   OH226192   3.310   0.906   2.807  0.2701 -0.1215  0.0519
 8743TIP3    H126193   3.368   0.950   2.745  2.5478 -0.0411  2.0902
 8743TIP3    H226194   3.295   0.971   2.876 -0.0148 -1.0510  0.8864
 8744TIP3   OH226195   3.138   2.541   1.211  0.8660 -0.5870 -0.8171
 8744TIP3    H126196   3.110   2.626   1.176  0.8500 -0.2699 -0.0648
 8744TIP3    H226197   3.069   2.517   1.273  1.8035 -0.2069  0.4138
 8745TIP3   OH226198   1.437   2.490  -0.013 -0.1995 -0.0091 -0.0966
 8745TIP3    H126199   1.385   2.568   0.005 -1.0886 -0.3680 -1.0236
 8745TIP3    H226200   1.477   2.468   0.071  0.6113  1.8167  0.0384
 8746TIP3   OH226201   2.467   2.639   3.188 -0.3259 -0.4277  0.8825
 8746TIP3    H126202   2.434   2.657   3.100 -0.1080  2.7284  1.3399
 8746TIP3    H226203   2.397   2.668   3.246  1.0601  1.4112  1.7570
 8747TIP3   OH226204   4.724   3.021   1.168  0.1031  0.1046  0.2565
 8747TIP3    H126205   4.738   3.079   1.243 -0.6463  0.5901  0.0259
 8747TIP3    H226206   4.680   3.076   1.103  0.0990 -0.5119 -0.2679
 8748TIP3   OH226207   6.771   6.134   5.530  0.1754  0.0671 -0.0591
 8748TIP3    H126208   6.731   6.141   5.616 -0.2068  2.4303 -0.3396
 8748TIP3    H226209   6.698   6.115   5.471  0.1973 -0.1502 -0.0136
 8749TIP3   OH226210   5.583   5.077   5.318  0.2784  0.6977  0.2280
 8749TIP3    H126211   5.672   5.068   5.351  1.2289  0.5806 -2.2086
 8749TIP3    H226212   5.587   5.149   5.255 -1.2528  0.4313 -0.2281
 8750TIP3   OH226213   0.263   4.812   0.578  0.0382  0.6928  0.5219
 8750TIP3    H126214   0.238   4.761   0.501  1.3720 -0.8443  1.0387
 8750TIP3    H226215   0.190   4.873   0.591 -0.0413  1.2823 -2.1575
 8751TIP3   OH226216   3.756   3.576   5.252 -0.0936  1.3843 -0.9006
 8751TIP3    H126217   3.663   3.573   5.230 -0.8599  1.0760  1.9595
 8751TIP3    H226218   3.767   3.659   5.298  0.8628  1.0379 -0.4683
 8752TIP3   OH226219   1.218   5.368   1.894 -0.1554 -0.3022  0.2694
 8752TIP3    H126220   1.206   5.332   1.806 -0.0030 -0.0825  0.1567
 8752TIP3    H226221   1.250   5.457   1.879  0.4698 -0.4762  0.5490
 8753TIP3   OH226222   5.294   5.981   0.744  0.2070  0.0242 -0.2934
 8753TIP3    H126223   5.262   6.071   0.749 -0.6334 -0.2530 -0.4137
 8753TIP3    H226224   5.354   5.981   0.669  0.0424  0.4350 -0.4283
 8754TIP3   OH226225   6.566   1.596   1.550  0.1947 -0.4204 -0.1482
 8754TIP3    H126226   6.528   1.509   1.538 -0.4749 -0.4830  1.9440
 8754TIP3    H226227   6.518   1.632   1.625  3.3317  0.0266  1.7956
 8755TIP3   OH226228   4.422   1.439   5.302  0.0291  0.6281 -0.4353
 8755TIP3    H126229   4.412   1.476   5.214 -0.1742  1.2591 -0.1500
 8755TIP3    H226230   4.347   1.473   5.351 -0.9399 -1.2513 -0.5304
 8756TIP3   OH226231   4.435   3.396   3.666 -0.2269  0.3683 -0.0651
 8756TIP3    H126232   4.504   3.332   3.651  0.9329  1.4222  0.5930
 8756TIP3    H226233   4.459   3.470   3.609 -1.9529 -0.0251 -1.3982
 8757TIP3   OH226234   2.944   4.877   2.970 -0.0953  0.1945  0.4084
 8757TIP3    H126235   2.854   4.907   2.985 -0.5259  0.3905 -2.0474
 8757TIP3    H226236   2.936   4.782   2.961  0.1595  0.0749  1.3480
 8758TIP3   OH226237   4.846   5.342   4.299  0.3815 -0.1339  0.1550
 8758TIP3    H126238   4.907   5.382   4.360  0.7503  0.7881 -0.7812
 8758TIP3    H226239   4.784   5.413   4.277  0.2591 -0.4408 -0.5249
 8759TIP3   OH226240   1.079   2.196   4.166 -0.0492 -0.0704  0.1417
 8759TIP3    H126241   1.162   2.229   4.132  0.1026  1.1136  1.5946
 8759TIP3    H226242   1.103   2.117   4.214  0.6762  1.5240  2.5960
 8760TIP3   OH226243   1.139   0.646   3.562  0.1572  0.3047  0.3484
 8760TIP3    H126244   1.109   0.598   3.639  0.7811  0.3863  0.6427
 8760TIP3    H226245   1.234   0.642   3.566  0.2338  1.8178  0.5369
 8761TIP3   OH226246   2.783   1.039   0.002 -0.4995 -0.0226 -0.3114
 8761TIP3    H126247   2.844   1.090  -0.051  1.1438 -1.2819  0.2924
 8761TIP3    H226248   2.831   1.018   0.082 -1.9141 -0.6114  0.4211
 8762TIP3   OH226249   4.122   2.538   4.047  0.4425  0.0753  0.6906
 8762TIP3    H126250   4.120   2.618   4.099 -3.4592  0.5275  0.1559
 8762TIP3    H226251   4.137   2.568   3.958 -1.8199  0.4250  0.3683
 8763TIP3   OH226252   7.150   4.007   2.275  0.0885  0.0309 -0.2789
 8763TIP3    H126253   7.107   4.041   2.353  2.1238  0.2599  0.8329
 8763TIP3    H226254   7.128   4.069   2.206 -2.6950 -0.7892 -0.2515
 8764TIP3   OH226255   6.446   5.810   3.955  0.3673  0.5749 -0.0848
 8764TIP3    H126256   6.399   5.869   3.896  0.4257  0.1555 -0.5537
 8764TIP3    H226257   6.379   5.751   3.989  0.4300  0.4435 -0.1866
 8765TIP3   OH226258   7.085   1.460   4.123 -0.1597  0.2795 -0.2038
 8765TIP3    H126259   7.164   1.467   4.070 -0.3501  0.5452 -0.4519
 8765TIP3    H226260   7.088   1.371   4.158  0.8983  0.6713  0.8112
 8766TIP3   OH226261   4.720   2.007   0.836  0.1063 -0.3374 -0.3091
 8766TIP3    H126262   4.636   2.006   0.790 -0.2498 -0.9518  0.3415
 8766TIP3    H226263   4.784   1.988   0.767 -0.3772 -0.8209 -0.6430
 8767TIP3   OH226264   4.411   6.745   3.054  0.4224 -0.0660 -0.5562
 8767TIP3    H126265   4.386   6.816   2.996  1.5727  0.1239 -0.8434
 8767TIP3    H226266   4.372   6.768   3.139  1.5313  1.3937 -0.4076
 8768TIP3   OH226267   3.017   3.760   1.240 -0.7143  0.5221  0.1072
 8768TIP3    H126268   2.988   3.672   1.213  0.2775 -0.2712  1.5254
 8768TIP3    H226269   3.100   3.772   1.195  0.2606 -0.2310  1.6424
 8769TIP3   OH226270   2.915   4.502   1.826 -0.1779 -0.5776  0.1974
 8769TIP3    H126271   2.958   4.586   1.834  0.0585 -0.6650 -0.1707
 8769TIP3    H226272   2.821   4.523   1.827 -0.1904 -0.5016  2.4290
 8770TIP3   OH226273   1.413   5.131   1.615 -0.7018 -0.7088  0.3979
 8770TIP3    H126274   1.468   5.137   1.693 -0.6212 -0.9683  0.3621
 8770TIP3    H226275   1.356   5.208   1.619  0.0069 -0.1536  0.1796
 8771TIP3   OH226276   0.442   3.142   3.206 -0.6435  1.0867  0.6978
 8771TIP3    H126277   0.402   3.060   3.235  2.9350 -1.8267 -1.7259
 8771TIP3    H226278   0.530   3.140   3.242 -0.1281  3.4285 -0.2667
 8772TIP3   OH226279   3.620   3.643   4.891  0.3649 -0.4872 -0.1691
 8772TIP3    H126280   3.544   3.640   4.833 -0.1973  1.6178  0.4018
 8772TIP3    H226281   3.673   3.567   4.865 -1.8400 -1.9413 -0.6563
 8773TIP3   OH226282   0.937   0.034   0.023 -0.3829 -0.2385  0.3623
 8773TIP3    H126283   0.961   0.046   0.115  0.2137 -2.5683  0.5822
 8773TIP3    H226284   1.008  -0.019  -0.013 -1.0779 -0.1388 -1.2134
 8774TIP3   OH226285   4.275   5.354   2.840  0.5827  0.6368  0.3468
 8774TIP3    H126286   4.235   5.288   2.898 -0.5831  1.0467  0.0474
 8774TIP3    H226287   4.276   5.434   2.893  0.4951  0.7550  0.1713
 8775TIP3   OH226288   1.467   3.669   2.025  0.6371 -0.0849  0.2402
 8775TIP3    H126289   1.443   3.745   2.078 -0.0681  0.1555 -0.3954
 8775TIP3    H226290   1.560   3.657   2.040  0.4425 -0.0927  1.6144
 8776TIP3   OH226291   3.624   1.885   3.790  0.2338  0.0835 -0.5717
 8776TIP3    H126292   3.634   1.825   3.864  0.1674  1.2605  0.4261
 8776TIP3    H226293   3.670   1.965   3.817 -0.4498  0.8114 -1.4828
 8777TIP3   OH226294   0.318   0.125   2.055  0.3940 -0.2093 -0.1345
 8777TIP3    H126295   0.380   0.188   2.021  1.7060 -1.4780 -0.1760
 8777TIP3    H226296   0.330   0.128   2.150 -0.9762  1.0043  0.0390
 8778TIP3   OH226297   7.151   1.193   5.601  0.0790 -0.0272 -0.3021
 8778TIP3    H126298   7.205   1.205   5.523 -0.6874 -0.7154 -0.9599
 8778TIP3    H226299   7.105   1.276   5.611  0.8536  0.3786 -0.0471
 8779TIP3   OH226300   3.545   4.767   3.902  0.1003  0.6570  0.1566
 8779TIP3    H126301   3.468   4.781   3.957  1.0947  1.9445  1.2711
 8779TIP3    H226302   3.570   4.676   3.920 -1.3695  0.0636 -0.5601
 8780TIP3   OH226303   1.215   2.314   2.176  0.1112  0.0797  0.9371
 8780TIP3    H126304   1.270   2.274   2.109  1.8014  0.4189  2.0531
 8780TIP3    H226305   1.174   2.389   2.132  0.8825  0.0660  0.1754
 8781TIP3   OH226306   4.791   3.973   3.296 -0.0548 -0.2834 -0.0099
 8781TIP3    H126307   4.850   4.020   3.356  0.3199 -0.3065 -0.3518
 8781TIP3    H226308   4.703   4.000   3.323  0.1574  2.2311 -1.4506
 8782TIP3   OH226309   5.791   0.495   5.683  0.5011  0.3049  0.4174
 8782TIP3    H126310   5.750   0.507   5.769 -1.3360 -1.6809 -0.0790
 8782TIP3    H226311   5.772   0.404   5.660  2.0272  0.4122 -1.5680
 8783TIP3   OH226312   7.005   2.884   4.957 -0.5819  0.8108 -0.1714
 8783TIP3    H126313   7.038   2.866   5.045 -1.9406 -0.9209  0.0242
 8783TIP3    H226314   6.949   2.961   4.968 -0.2156  1.0086  0.3436
 8784TIP3   OH226315   4.310   4.968   1.541  0.8750  0.0179  0.0376
 8784TIP3    H126316   4.366   4.920   1.479  0.7396 -0.0517 -0.0300
 8784TIP3    H226317   4.303   5.056   1.503  1.2335  0.1313  0.2309
 8785TIP3   OH226318   0.162   3.251   1.248  0.1969 -0.1332 -0.0293
 8785TIP3    H126319   0.132   3.174   1.200  1.1115  0.0178 -0.8641
 8785TIP3    H226320   0.211   3.302   1.184  0.7879  0.4671  0.8764
 8786TIP3   OH226321   5.918   3.817   0.212  0.2280  0.2680  0.6148
 8786TIP3    H126322   5.958   3.783   0.292 -0.5542 -1.9998  0.1146
 8786TIP3    H226323   5.907   3.740   0.156 -0.1481  1.6439 -1.2928
 8787TIP3   OH226324   2.822   1.378   0.303  0.0217  0.4290 -0.4177
 8787TIP3    H126325   2.751   1.343   0.250  0.6601 -0.5197 -0.6596
 8787TIP3    H226326   2.841   1.464   0.265 -0.9212  0.6475 -0.4072
 8788TIP3   OH226327   4.556   4.690   4.274  0.1420 -0.1665  0.1799
 8788TIP3    H126328   4.604   4.768   4.302  2.6019 -1.2665 -0.6809
 8788TIP3    H226329   4.525   4.711   4.186 -0.8178  0.4517  0.6407
 8789TIP3   OH226330   6.021   5.487   5.342 -0.0204  0.5419 -0.7295
 8789TIP3    H126331   5.930   5.460   5.327  0.0599  0.3150 -0.8185
 8789TIP3    H226332   6.024   5.511   5.435 -0.2004  0.6710 -0.7572
 8790TIP3   OH226333   3.529   1.561   2.194  0.3651  0.1892 -0.0850
 8790TIP3    H126334   3.446   1.515   2.182 -0.1528  0.9196  0.6243
 8790TIP3    H226335   3.515   1.647   2.155  0.4372  0.6879  0.9688
 8791TIP3   OH226336   5.914   2.129   4.864  0.4177 -0.1080 -0.4683
 8791TIP3    H126337   5.820   2.108   4.869  0.3146  0.5711  1.3454
 8791TIP3    H226338   5.917   2.225   4.872  1.3179 -0.2528  1.5124
 8792TIP3   OH226339   4.282   1.457   3.007  0.1412 -0.0141 -0.1217
 8792TIP3    H126340   4.324   1.393   3.065 -0.2228  1.5994  2.0094
 8792TIP3    H226341   4.223   1.404   2.953  1.3061 -1.7131  0.1902
 8793TIP3   OH226342   5.600   4.912   2.443 -0.5700 -0.1977  0.0397
 8793TIP3    H126343   5.563   4.838   2.394  0.0561  0.6902 -1.8885
 8793TIP3    H226344   5.615   4.979   2.376 -2.1004  2.1185  1.8722
 8794TIP3   OH226345   5.200   3.295   1.925 -0.5539 -0.4530  0.2745
 8794TIP3    H126346   5.127   3.350   1.953  1.9709  2.3162  2.0167
 8794TIP3    H226347   5.175   3.207   1.950 -2.2694  0.7497  3.2679
 8795TIP3   OH226348   5.421   5.542   4.145  0.4675  0.5374 -0.2365
 8795TIP3    H126349   5.506   5.581   4.163 -0.4370  1.9464  1.2528
 8795TIP3    H226350   5.381   5.531   4.231 -0.7352 -0.4292 -0.8837
 8796TIP3   OH226351   5.527   0.930   0.541  0.8449 -0.3587 -0.0544
 8796TIP3    H126352   5.574   0.874   0.479 -1.6294 -1.1645 -1.3282
 8796TIP3    H226353   5.579   0.924   0.622  1.2195 -3.7690 -0.3905
 8797TIP3   OH226354   6.225   0.793   4.156 -0.5321  0.0154  0.0969
 8797TIP3    H126355   6.164   0.720   4.145 -0.5016 -0.0709  0.4968
 8797TIP3    H226356   6.308   0.751   4.178 -0.0597  0.0681 -1.4599
 8798TIP3   OH226357   4.965   4.358   2.567  0.3201  0.5671 -0.3055
 8798TIP3    H126358   4.982   4.349   2.661  1.8849 -3.1396 -0.7429
 8798TIP3    H226359   4.870   4.367   2.560  0.0642 -0.1778  1.6155
 8799TIP3   OH226360   5.997   0.732   1.467  0.0869 -0.1817  0.1891
 8799TIP3    H126361   5.948   0.788   1.407  1.1243  0.5357 -0.0239
 8799TIP3    H226362   6.082   0.719   1.423  0.8944  0.4239  1.5293
 8800TIP3   OH226363   6.834   1.083   0.934  0.2762 -0.0593 -0.0511
 8800TIP3    H126364   6.881   1.146   0.879 -0.0144  0.3407  0.1569
 8800TIP3    H226365   6.800   1.019   0.872 -1.0678  1.0334 -0.4883
 8801TIP3   OH226366   2.600   2.763   2.428 -0.0190 -0.2843  0.1143
 8801TIP3    H126367   2.581   2.761   2.522  0.5386  0.4967  0.2460
 8801TIP3    H226368   2.610   2.671   2.404 -0.4912 -0.5072  0.7505
 8802TIP3   OH226369   0.968   2.538   3.875  0.1010  0.4722  0.5387
 8802TIP3    H126370   0.934   2.489   3.949  1.0417  2.0737  2.1095
 8802TIP3    H226371   0.902   2.528   3.807 -1.2077 -0.3358  1.8792
 8803TIP3   OH226372   5.544   3.563   1.052 -0.0064  0.3750 -0.3331
 8803TIP3    H126373   5.538   3.634   1.116 -1.1303 -0.0335  0.0558
 8803TIP3    H226374   5.631   3.527   1.064 -0.0826  0.5145  0.7642
 8804TIP3   OH226375   4.675   6.176   3.268 -0.0327 -0.5386 -0.1056
 8804TIP3    H126376   4.640   6.102   3.317  0.2735 -1.2650 -0.9440
 8804TIP3    H226377   4.601   6.208   3.216 -0.5643  0.7162  1.3321
 8805TIP3   OH226378   2.456   1.468   0.829  0.6240 -0.2951  0.2155
 8805TIP3    H126379   2.489   1.381   0.808 -0.3049 -1.4297  3.0292
 8805TIP3    H226380   2.497   1.490   0.913 -0.7171  1.0874  0.5511
 8806TIP3   OH226381   6.689   4.574   5.014 -0.0963  0.3392 -0.5733
 8806TIP3    H126382   6.702   4.628   4.936 -1.9311  0.5170 -0.7957
 8806TIP3    H226383   6.767   4.591   5.068  1.5286 -0.2603 -2.5971
 8807TIP3   OH226384   4.645   0.822   5.130  0.3244 -0.2898 -0.4249
 8807TIP3    H126385   4.654   0.840   5.223 -0.6864 -1.8399  0.0149
 8807TIP3    H226386   4.725   0.856   5.090  0.4180  1.1092  0.8823
 8808TIP3   OH226387   1.736   5.777   5.846  0.1772 -0.1742  0.3421
 8808TIP3    H126388   1.759   5.856   5.894  4.8771 -0.0842 -1.5132
 8808TIP3    H226389   1.726   5.806   5.755 -1.4165 -1.2841  0.1313
 8809TIP3   OH226390   2.044   3.629   3.611  0.1725 -0.2300  1.0983
 8809TIP3    H126391   1.964   3.602   3.567  0.5964 -0.5597  0.5225
 8809TIP3    H226392   2.064   3.716   3.575  0.3897 -0.3984  0.8074
 8810TIP3   OH226393   5.352   2.481   3.597  0.5308 -0.6658  0.4074
 8810TIP3    H126394   5.301   2.439   3.528 -0.2586  0.2590  0.4026
 8810TIP3    H226395   5.288   2.530   3.649  1.2882 -0.2368  0.9651
 8811TIP3   OH226396   6.589   3.910   0.898  0.3146  0.0889 -0.1628
 8811TIP3    H126397   6.587   3.827   0.851  0.9877 -0.4691  0.7501
 8811TIP3    H226398   6.543   3.892   0.980  0.5302  0.5931  0.0729
 8812TIP3   OH226399   0.564   2.360   0.133  0.0370  0.6997 -0.6203
 8812TIP3    H126400   0.654   2.332   0.147  1.3290  3.4786 -2.5834
 8812TIP3    H226401   0.529   2.372   0.221  2.5398  2.2937  0.2624
 8813TIP3   OH226402   6.532   0.189   0.811  0.1487 -0.1038  0.1240
 8813TIP3    H126403   6.464   0.152   0.866  0.2425  1.6464  1.5171
 8813TIP3    H226404   6.564   0.116   0.758 -2.1996 -1.1353  0.0422
 8814TIP3   OH226405   2.399   5.489   5.213 -0.5683  0.0598 -0.1296
 8814TIP3    H126406   2.447   5.451   5.139  0.9971 -1.3279  1.4925
 8814TIP3    H226407   2.463   5.546   5.257 -1.2381  0.2971  0.5632
 8815TIP3   OH226408   3.536   3.301   3.459 -0.4786  0.3572 -0.5965
 8815TIP3    H126409   3.470   3.248   3.414  0.2314  0.3660 -1.6872
 8815TIP3    H226410   3.489   3.342   3.531 -1.0862 -1.6126  0.1826
 8816TIP3   OH226411   2.647   0.618   2.575  0.7052  0.7264  0.0644
 8816TIP3    H126412   2.726   0.664   2.604  0.7253 -0.0291  1.2925
 8816TIP3    H226413   2.592   0.612   2.654  0.1142 -0.1323 -0.3908
 8817TIP3   OH226414   5.350   0.029   2.892 -0.1225 -0.2552  0.7211
 8817TIP3    H126415   5.321   0.083   2.966 -1.1965 -1.0865  0.9383
 8817TIP3    H226416   5.275   0.030   2.832  0.4969 -0.1299 -0.0558
 8818TIP3   OH226417   0.259   0.775   4.886  0.4389 -0.5320 -0.3658
 8818TIP3    H126418   0.334   0.733   4.928  0.7761  1.4843  1.2346
 8818TIP3    H226419   0.295   0.816   4.807  1.0108  0.1786  0.2410
 8819TIP3   OH226420   0.353   0.001   4.841  0.2519 -0.1024 -0.3980
 8819TIP3    H126421   0.427   0.055   4.869  0.2184  0.6405 -1.6811
 8819TIP3    H226422   0.313   0.050   4.769 -0.2507 -1.4751 -1.0857
 8820TIP3   OH226423   3.560   4.857   1.670  0.0263 -0.0493  0.1335
 8820TIP3    H126424   3.559   4.762   1.658 -0.9874 -0.3463  2.1459
 8820TIP3    H226425   3.527   4.892   1.587  1.1471 -1.3845 -0.9086
 8821TIP3   OH226426   3.695   6.237   2.719 -0.0378 -0.2777  0.3282
 8821TIP3    H126427   3.779   6.252   2.674 -0.3104 -0.6231 -0.3059
 8821TIP3    H226428   3.721   6.204   2.805  0.4956  0.6093  0.5177
 8822TIP3   OH226429   1.837   1.748   3.099  0.3350  0.0139  0.3512
 8822TIP3    H126430   1.903   1.695   3.144  1.6002 -1.0039 -2.5079
 8822TIP3    H226431   1.781   1.683   3.056 -0.1995  0.9548 -0.3944
 8823TIP3   OH226432   1.105   1.868   2.499 -0.2368 -0.5558 -0.5421
 8823TIP3    H126433   1.044   1.798   2.479  1.1722 -1.9899 -0.0882
 8823TIP3    H226434   1.171   1.827   2.555  1.6561  0.6466 -1.7640
 8824TIP3   OH226435   6.539   1.292   2.792  0.9505 -0.3348 -0.0587
 8824TIP3    H126436   6.567   1.205   2.762 -3.0657 -1.7740 -0.2514
 8824TIP3    H226437   6.497   1.332   2.716  1.3821  1.1807  0.4649
 8825TIP3   OH226438   1.471   1.600   1.826 -0.6646  0.1004 -0.8378
 8825TIP3    H126439   1.420   1.681   1.821 -1.0601 -0.1321 -0.6916
 8825TIP3    H226440   1.435   1.545   1.756 -1.8257 -0.7290  0.3449
 8826TIP3   OH226441   2.484   6.088   5.669  0.2823  0.3673 -0.6779
 8826TIP3    H126442   2.509   5.997   5.653  0.7292  0.4313 -0.3578
 8826TIP3    H226443   2.567   6.136   5.674  0.1314  0.5039  0.8611
 8827TIP3   OH226444   3.416   3.800   2.348  0.2800 -0.5333 -0.1323
 8827TIP3    H126445   3.507   3.772   2.358  0.3214 -0.2212  0.3697
 8827TIP3    H226446   3.387   3.821   2.436 -0.2388 -0.4966 -0.3081
 8828TIP3   OH226447   1.558   6.076   2.445  0.0544 -0.5180  0.5940
 8828TIP3    H126448   1.552   6.101   2.353 -0.8215  0.2809  0.8522
 8828TIP3    H226449   1.571   5.982   2.444 -1.5716 -0.7721 -0.3383
 8829TIP3   OH226450   7.006   6.327   3.843  0.0527  0.0138 -0.3955
 8829TIP3    H126451   7.043   6.407   3.806  0.5654  0.1158  0.3208
 8829TIP3    H226452   7.079   6.287   3.891 -0.2762 -0.7344 -0.4957
 8830TIP3   OH226453   5.660   1.011   5.599  0.0152 -0.4446  1.0930
 8830TIP3    H126454   5.707   0.930   5.619 -0.6956 -1.2067 -0.1378
 8830TIP3    H226455   5.713   1.054   5.531 -0.0308 -0.3003  1.1476
 8831TIP3   OH226456   3.669   3.942   1.135 -0.3019  0.4355 -0.3380
 8831TIP3    H126457   3.601   3.902   1.080  1.2197  0.2441 -2.1882
 8831TIP3    H226458   3.683   3.880   1.206 -1.7310  0.2694 -0.1819
 8832TIP3   OH226459   1.140   6.685   4.757  0.3828 -0.6258 -0.3552
 8832TIP3    H126460   1.132   6.599   4.799  0.2854 -1.3997 -1.9048
 8832TIP3    H226461   1.213   6.676   4.696 -0.6225 -0.1111 -1.6824
 8833TIP3   OH226462   5.958   5.681   4.160 -0.3016 -0.1234  0.0093
 8833TIP3    H126463   5.992   5.612   4.217  1.4255  0.4766 -0.2280
 8833TIP3    H226464   6.030   5.698   4.098 -1.0264  1.2720 -0.4869
 8834TIP3   OH226465   0.873   6.512   4.049 -0.3232 -0.3675 -0.0855
 8834TIP3    H126466   0.834   6.558   3.974  2.1900  2.1196 -0.0401
 8834TIP3    H226467   0.892   6.424   4.016 -2.6535 -0.5681 -1.1160
 8835TIP3   OH226468   2.164   1.304   5.371  0.4896  0.2495 -0.2871
 8835TIP3    H126469   2.111   1.273   5.298  2.3791 -0.4886 -1.4235
 8835TIP3    H226470   2.221   1.370   5.333  1.6440 -0.2822  0.4529
 8836TIP3   OH226471   0.656   1.317   1.822  0.2146 -0.2019  0.5440
 8836TIP3    H126472   0.634   1.404   1.854 -0.6059 -0.3926  0.5389
 8836TIP3    H226473   0.649   1.323   1.727 -0.4001 -0.3995  0.5674
 8837TIP3   OH226474   0.469   0.417   3.486  0.5197 -0.0578 -0.7312
 8837TIP3    H126475   0.441   0.349   3.548 -0.1765 -0.0683 -1.0411
 8837TIP3    H226476   0.497   0.368   3.409 -0.1988  0.0025 -1.0404
 8838TIP3   OH226477   1.730   6.117   5.721  0.1904 -0.1181  0.0815
 8838TIP3    H126478   1.779   6.093   5.799  0.1786 -0.8340 -0.1263
 8838TIP3    H226479   1.721   6.035   5.672 -1.7567 -0.1437  0.4141
 8839TIP3   OH226480   6.810   6.069   1.050 -0.0293 -0.3210  0.0328
 8839TIP3    H126481   6.719   6.091   1.070 -0.0402 -0.5816  0.2825
 8839TIP3    H226482   6.804   6.001   0.983  0.0075  0.5559 -0.8932
 8840TIP3   OH226483   5.122   6.723   2.714  0.1041  0.7647 -0.0024
 8840TIP3    H126484   5.179   6.776   2.659 -1.6533  2.3984 -0.3316
 8840TIP3    H226485   5.108   6.643   2.664  0.4873  1.1960 -0.8199
 8841TIP3   OH226486   2.479   5.632   0.531 -0.0994  0.4311  0.0716
 8841TIP3    H126487   2.454   5.723   0.545 -0.1810  0.3773  0.2853
 8841TIP3    H226488   2.575   5.632   0.531 -0.0074  0.1486  2.7753
 8842TIP3   OH226489   1.109   1.665   1.630 -0.6813  0.0792 -0.9776
 8842TIP3    H126490   1.180   1.686   1.569  0.3780 -0.4077  0.0633
 8842TIP3    H226491   1.057   1.745   1.634  0.7486  1.0353 -0.5047
 8843TIP3   OH226492   2.111   5.906   2.889 -0.0403  0.2017 -0.2278
 8843TIP3    H126493   2.140   5.990   2.925  0.2530 -0.1232  0.3124
 8843TIP3    H226494   2.152   5.840   2.946 -0.3498 -0.3054 -0.5815
 8844TIP3   OH226495   4.414   2.154   1.896 -0.2679  0.0066  0.6101
 8844TIP3    H126496   4.454   2.171   1.982 -1.3570  1.0227  0.9427
 8844TIP3    H226497   4.486   2.166   1.834  0.1677  0.8598  1.2519
 8845TIP3   OH226498   1.852   0.076   4.764  0.0896  0.1662 -0.5882
 8845TIP3    H126499   1.932   0.118   4.793  1.1535 -1.8519 -0.4132
 8845TIP3    H226500   1.804   0.056   4.844  1.0472 -1.6243 -0.4031
 8846TIP3   OH226501   5.652   0.235   4.220  0.8716  0.3466  0.1325
 8846TIP3    H126502   5.697   0.244   4.304 -1.4492 -0.3915  1.5804
 8846TIP3    H226503   5.642   0.324   4.188  1.5804  0.6649  0.7582
 8847TIP3   OH226504   7.136   6.457   1.962 -0.0680 -0.4061 -0.5800
 8847TIP3    H126505   7.148   6.385   1.900  3.0765 -0.6191  0.0995
 8847TIP3    H226506   7.136   6.536   1.908  1.3353 -0.6761 -1.0253
 8848TIP3   OH226507   6.332   1.697   5.019 -0.0085 -0.3241 -0.2190
 8848TIP3    H126508   6.253   1.682   5.071  0.7623 -0.5088  0.9360
 8848TIP3    H226509   6.309   1.666   4.932 -1.0284 -0.9149  0.2371
 8849TIP3   OH226510   1.382   6.373   0.450  0.3812 -0.1821 -0.0183
 8849TIP3    H126511   1.431   6.291   0.441 -1.9671 -1.5493 -1.2826
 8849TIP3    H226512   1.372   6.405   0.361 -1.5201 -0.3038  0.1148
 8850TIP3   OH226513   6.506   5.876   2.054 -0.2678  0.6704  0.2826
 8850TIP3    H126514   6.423   5.850   2.014  0.0237 -0.4288  0.3629
 8850TIP3    H226515   6.567   5.880   1.981 -0.1638  0.5113  0.3612
 8851TIP3   OH226516   3.543   5.279   0.806 -0.1148 -0.1654  0.6019
 8851TIP3    H126517   3.512   5.227   0.733  0.4578 -1.7368  1.4328
 8851TIP3    H226518   3.463   5.308   0.851 -0.4545  0.5735 -0.4537
 8852TIP3   OH226519   3.648   4.693   4.895 -0.0662  0.3682  0.1510
 8852TIP3    H126520   3.680   4.681   4.985  0.1540 -0.4295 -0.0261
 8852TIP3    H226521   3.725   4.676   4.840 -1.2188 -4.3245 -0.4485
 8853TIP3   OH226522   1.860   3.954   4.047  0.3366 -0.0130 -0.1119
 8853TIP3    H126523   1.827   3.880   3.996 -1.8831  0.8180 -0.0292
 8853TIP3    H226524   1.933   3.988   3.996  0.7677 -1.6607 -0.6409
 8854TIP3   OH226525   6.808   1.086   0.508 -0.5330 -0.0516  0.6227
 8854TIP3    H126526   6.860   1.142   0.565 -1.1926  2.3393 -0.9903
 8854TIP3    H226527   6.873   1.039   0.455  0.0474 -1.5539  2.5341
 8855TIP3   OH226528   0.061   6.371   0.579 -0.4003 -0.1412 -0.1708
 8855TIP3    H126529   0.078   6.447   0.634  1.6396 -1.1068  0.6315
 8855TIP3    H226530  -0.003   6.401   0.515  0.0555  2.1107  0.3602
 8856TIP3   OH226531   6.806   2.635   2.144  0.1383 -0.0407  0.4773
 8856TIP3    H126532   6.803   2.599   2.055  2.5228  0.9813 -0.0852
 8856TIP3    H226533   6.856   2.570   2.194  0.4371  0.2789  0.5959
 8857TIP3   OH226534   2.593   3.472   0.928 -0.1755  0.0912  0.1125
 8857TIP3    H126535   2.550   3.390   0.906  1.7417 -1.1920  0.9512
 8857TIP3    H226536   2.630   3.503   0.846  0.8545 -0.9807  0.1514
 8858TIP3   OH226537   4.830   4.949   5.534  0.0576  0.4613 -0.1339
 8858TIP3    H126538   4.857   4.916   5.449 -0.6636 -0.4351 -0.0334
 8858TIP3    H226539   4.809   5.041   5.518  0.7796  0.5362 -0.7214
 8859TIP3   OH226540   4.080   4.889   3.822  0.1333 -0.1678  0.2593
 8859TIP3    H126541   4.112   4.901   3.733 -0.4761 -2.0019 -0.2373
 8859TIP3    H226542   4.159   4.884   3.876  0.5459 -0.4026 -0.3652
 8860TIP3   OH226543   0.828   5.819   4.013 -0.3105 -0.2413 -0.2013
 8860TIP3    H126544   0.799   5.729   3.998 -1.1619  0.2445 -1.7815
 8860TIP3    H226545   0.903   5.811   4.071 -1.3514 -1.8403  1.0012
 8861TIP3   OH226546   6.800   4.704   0.362  0.0921  0.4330  0.1357
 8861TIP3    H126547   6.713   4.741   0.377 -1.1494 -1.7401 -1.1736
 8861TIP3    H226548   6.831   4.679   0.449 -1.2192  0.0247  0.5115
 8862TIP3   OH226549   5.082   0.050   5.708 -0.0406  0.1041 -0.5140
 8862TIP3    H126550   5.060   0.088   5.793  0.2981 -0.8979  0.0379
 8862TIP3    H226551   4.999   0.052   5.659 -0.1500  1.0456 -0.3211
 8863TIP3   OH226552   7.069   6.132   5.569  0.4256 -0.5440  0.0383
 8863TIP3    H126553   7.129   6.177   5.509 -1.0871  1.7950  0.1692
 8863TIP3    H226554   6.982   6.165   5.545 -0.6756 -2.6141  0.9180
 8864TIP3   OH226555   5.912   0.264   4.906  0.1201 -0.0495  0.1768
 8864TIP3    H126556   5.825   0.302   4.913  0.8292  1.8286 -0.5445
 8864TIP3    H226557   5.963   0.306   4.976  0.5748 -0.7854  0.3057
 8865TIP3   OH226558   1.664   0.955   5.406  0.0611 -0.0493  1.0204
 8865TIP3    H126559   1.720   1.032   5.414  3.2356 -2.0484  0.1921
 8865TIP3    H226560   1.614   0.969   5.325  0.7857  1.0182  0.7378
 8866TIP3   OH226561   4.202   5.961   4.592 -0.2023  0.1104 -0.0918
 8866TIP3    H126562   4.247   5.928   4.514  0.4880 -0.1056  0.3813
 8866TIP3    H226563   4.122   5.909   4.598 -0.1709  0.0086 -0.5577
 8867TIP3   OH226564   7.012   6.496   3.448  0.0883 -0.3442 -0.5015
 8867TIP3    H126565   7.091   6.452   3.479  0.9771  1.6334  0.2068
 8867TIP3    H226566   7.035   6.527   3.360  0.9346  2.0536  0.4908
 8868TIP3   OH226567   2.038   3.482   5.076  0.1672  0.3183 -0.2616
 8868TIP3    H126568   2.126   3.479   5.038  0.1383 -0.4049 -0.2980
 8868TIP3    H226569   2.041   3.417   5.147 -0.6595 -0.5451 -0.9943
 8869TIP3   OH226570   0.608   4.287   2.649  0.0252  0.0346  0.4965
 8869TIP3    H126571   0.605   4.366   2.596 -0.4601 -0.6251 -0.5010
 8869TIP3    H226572   0.700   4.261   2.648  0.1392  0.4383  0.5952
 8870TIP3   OH226573   0.574   3.279   0.721  0.0341 -0.5999 -0.2012
 8870TIP3    H126574   0.556   3.232   0.640  0.6566  1.5389 -1.6877
 8870TIP3    H226575   0.509   3.349   0.723 -0.9847 -1.5147  2.0314
 8871TIP3   OH226576   6.621   0.559   5.436 -0.1092 -0.0730 -0.9823
 8871TIP3    H126577   6.577   0.556   5.351 -0.8987  1.0870 -0.6370
 8871TIP3    H226578   6.602   0.474   5.476 -1.5363  0.1833 -1.0899
 8872TIP3   OH226579   5.263   4.870   0.976 -0.4499 -0.2983 -0.0941
 8872TIP3    H126580   5.274   4.943   0.915 -2.2342 -0.6841 -0.9350
 8872TIP3    H226581   5.304   4.900   1.057  1.2322  0.5590 -1.2055
 8873TIP3   OH226582   4.254   3.377   5.124 -0.2614  0.0945  0.2320
 8873TIP3    H126583   4.214   3.290   5.116 -2.6051  1.0410  0.6048
 8873TIP3    H226584   4.227   3.423   5.044  2.4399 -0.0128 -0.8216
 8874TIP3   OH226585   0.862   0.669   0.215  0.7594  0.0552  0.6220
 8874TIP3    H126586   0.868   0.604   0.145 -1.6909  1.1603 -0.7419
 8874TIP3    H226587   0.894   0.624   0.293 -0.7514 -2.7836 -0.2761
 8875TIP3   OH226588   0.513   3.696   3.697 -0.0151 -0.1579  0.0393
 8875TIP3    H126589   0.443   3.656   3.645 -1.0296  0.7434  0.6735
 8875TIP3    H226590   0.509   3.789   3.677  0.1328  0.0882  1.0762
 8876TIP3   OH226591   0.314   2.154   5.341 -0.4092  0.2825  0.2704
 8876TIP3    H126592   0.289   2.062   5.346  1.1342 -0.1072  1.1919
 8876TIP3    H226593   0.260   2.189   5.270 -0.8282 -1.3865 -0.2736
 8877TIP3   OH226594   4.596   4.108   4.733  0.3163 -0.0641 -0.0328
 8877TIP3    H126595   4.522   4.066   4.688 -0.0852  2.6562 -2.1568
 8877TIP3    H226596   4.673   4.075   4.687 -0.0700  2.3893 -2.6968
 8878TIP3   OH226597   0.939   1.703   2.331 -0.2753 -0.6251 -0.2723
 8878TIP3    H126598   0.906   1.793   2.334 -0.5276 -0.7097 -0.4177
 8878TIP3    H226599   0.876   1.657   2.275  0.0666 -0.8031 -0.5110
 8879TIP3   OH226600   2.936   4.980   2.371  0.1781 -0.2494 -0.5741
 8879TIP3    H126601   2.903   5.023   2.450 -0.8855 -2.0252  0.0149
 8879TIP3    H226602   3.017   4.938   2.399  2.0521  2.4769 -1.5283
 8880TIP3   OH226603   6.167   6.780   3.980  0.2937  0.3111  0.4186
 8880TIP3    H126604   6.112   6.703   3.965 -0.3191  0.7664  0.2709
 8880TIP3    H226605   6.252   6.757   3.942 -0.0680 -0.0553 -0.1842
 8881TIP3   OH226606   1.809   3.042   2.307 -0.1877  0.0655 -0.0966
 8881TIP3    H126607   1.740   3.108   2.309 -2.0616 -1.5561 -3.5274
 8881TIP3    H226608   1.878   3.081   2.253 -0.0544  0.2429  0.1978
 8882TIP3   OH226609   6.631   5.062   0.309 -0.0372  0.4092 -0.1048
 8882TIP3    H126610   6.600   4.971   0.306  0.6784  0.1506  0.1351
 8882TIP3    H226611   6.690   5.065   0.384 -0.2450  1.1408  0.0394
 8883TIP3   OH226612   5.249   6.656   1.535  0.2459  0.1646 -0.2329
 8883TIP3    H126613   5.278   6.573   1.496 -1.9287 -0.3779 -0.8482
 8883TIP3    H226614   5.312   6.721   1.505  1.8124 -1.1783 -0.0159
 8884TIP3   OH226615   2.304   3.406   4.612  1.1812  0.2791  0.1182
 8884TIP3    H126616   2.330   3.406   4.704  0.9489 -0.5038  0.1990
 8884TIP3    H226617   2.260   3.490   4.599  0.1257 -0.1029  1.0495
 8885TIP3   OH226618   2.021   1.886   3.662  0.0164  0.5675 -0.1200
 8885TIP3    H126619   1.947   1.908   3.718  0.3858  3.4492 -0.5922
 8885TIP3    H226620   2.077   1.831   3.716 -1.3369  0.2935  1.0497
 8886TIP3   OH226621   1.326   3.941   5.023  0.1278  0.7231  0.3026
 8886TIP3    H126622   1.250   3.993   4.997 -0.2236  0.6834  1.2013
 8886TIP3    H226623   1.354   3.897   4.943 -0.5308  1.0711 -0.1292
 8887TIP3   OH226624   4.156   6.448   0.997 -0.2545  0.5669 -0.2731
 8887TIP3    H126625   4.142   6.355   0.979  0.3343  0.5834 -0.8541
 8887TIP3    H226626   4.203   6.449   1.081 -0.7279  0.3754  0.0031
 8888TIP3   OH226627   0.629   1.364   5.008 -0.3322  0.3090 -0.6161
 8888TIP3    H126628   0.565   1.294   5.018 -0.4115  0.3964 -0.5034
 8888TIP3    H226629   0.695   1.328   4.949 -0.7110  0.3698 -1.0856
 8889TIP3   OH226630   2.578   1.952   2.295  0.2867 -0.4716 -0.3720
 8889TIP3    H126631   2.501   1.925   2.345  0.9177 -1.3548  0.1391
 8889TIP3    H226632   2.562   1.920   2.206  1.0698 -2.6985  0.2400
 8890TIP3   OH226633   6.782   2.771   4.730 -0.1156 -0.3703 -0.3282
 8890TIP3    H126634   6.848   2.727   4.784 -1.2481  0.5813  1.9908
 8890TIP3    H226635   6.736   2.828   4.792 -0.9037  1.5154 -2.5357
 8891TIP3   OH226636   0.640   2.255   4.165 -0.1106  0.3538  0.1198
 8891TIP3    H126637   0.701   2.188   4.133  1.9613  2.2846 -0.2635
 8891TIP3    H226638   0.577   2.207   4.219  0.9892 -1.9404 -0.5140
 8892TIP3   OH226639   0.945   6.008   5.474  0.1700  0.3357  0.1545
 8892TIP3    H126640   0.962   5.983   5.565  1.9588  0.6345 -0.0554
 8892TIP3    H226641   0.997   5.947   5.422 -0.5454  0.3985 -0.6594
 8893TIP3   OH226642   6.432   2.901   2.120 -0.3415  0.2543 -0.1999
 8893TIP3    H126643   6.489   2.973   2.092  1.8018 -1.1316  0.3797
 8893TIP3    H226644   6.468   2.874   2.204 -1.7780 -0.8328  0.1031
 8894TIP3   OH226645   0.968   6.510   2.635  0.6533 -0.1299 -0.2665
 8894TIP3    H126646   1.022   6.557   2.571  0.7846  1.0537  0.7000
 8894TIP3    H226647   0.894   6.568   2.652  0.5945 -0.4599  0.6299
 8895TIP3   OH226648   6.863   5.046   0.495  0.2566  0.2880 -0.8524
 8895TIP3    H126649   6.895   4.956   0.490 -2.7664 -0.8715 -1.7396
 8895TIP3    H226650   6.940   5.100   0.475  2.0261 -2.1003 -0.9498
 8896TIP3   OH226651   2.394   2.235   3.186 -0.2340  0.4968 -0.1001
 8896TIP3    H126652   2.352   2.153   3.160  0.2603 -0.0316  0.7086
 8896TIP3    H226653   2.323   2.291   3.216 -0.3402 -0.6797  2.0477
 8897TIP3   OH226654   0.170   1.104   2.011  0.6099  1.1449  0.2912
 8897TIP3    H126655   0.096   1.100   2.071  1.8953 -0.5618  1.8419
 8897TIP3    H226656   0.172   1.018   1.969  0.9135  1.6558 -0.7973
 8898TIP3   OH226657   6.084   3.243   4.120 -0.2801  0.6362  0.1627
 8898TIP3    H126658   6.137   3.278   4.048 -0.0882  1.2982  0.6257
 8898TIP3    H226659   6.024   3.314   4.143 -0.2157  0.4970  0.7834
 8899TIP3   OH226660   4.420   4.527   1.261  0.0155  0.3890 -0.2556
 8899TIP3    H126661   4.345   4.476   1.291  0.6919 -0.8502 -0.6179
 8899TIP3    H226662   4.426   4.508   1.167  1.3472 -0.2924 -0.0575
 8900TIP3   OH226663   2.644   6.000   4.935  0.3766 -0.7515 -0.2248
 8900TIP3    H126664   2.651   5.911   4.969  1.6238 -0.7238 -0.3617
 8900TIP3    H226665   2.592   5.991   4.855 -2.5723 -0.8272  1.5635
 8901TIP3   OH226666   3.761   5.641   0.836  0.1508 -0.2126  0.0281
 8901TIP3    H126667   3.731   5.598   0.756 -0.3230 -0.7460  0.4880
 8901TIP3    H226668   3.849   5.605   0.850  0.3012  0.0022 -0.3328
 8902TIP3   OH226669   1.348   3.619   0.938  0.2947 -0.4241  0.1609
 8902TIP3    H126670   1.423   3.561   0.947 -1.2477 -2.5823 -0.2660
 8902TIP3    H226671   1.312   3.627   1.026  1.5154  1.3972  0.5443
 8903TIP3   OH226672   6.776   3.595   2.270 -0.2282  0.2687  0.1193
 8903TIP3    H126673   6.747   3.686   2.272 -0.3273  0.2368  0.1560
 8903TIP3    H226674   6.697   3.544   2.289  0.2756  0.2642  2.6380
 8904TIP3   OH226675   2.282   4.541   3.220  0.0927  0.1417  0.3390
 8904TIP3    H126676   2.332   4.483   3.277  0.6364 -0.3120 -0.5944
 8904TIP3    H226677   2.221   4.585   3.280 -0.2885 -1.3162  1.0732
 8905TIP3   OH226678   1.218   1.964   3.908 -0.0113  0.2036 -0.2091
 8905TIP3    H126679   1.189   1.945   3.997  1.1065  2.3213  0.6701
 8905TIP3    H226680   1.161   2.035   3.878 -2.3561 -2.3618 -2.4130
 8906TIP3   OH226681   4.651   3.980   4.218  0.6805  0.6626 -0.0335
 8906TIP3    H126682   4.564   3.946   4.241 -0.4598  3.2039 -0.2100
 8906TIP3    H226683   4.668   3.945   4.131  0.2313 -0.5061  0.3206
 8907TIP3   OH226684   1.986   5.179   1.079  0.3501 -0.1957 -0.0210
 8907TIP3    H126685   1.941   5.123   1.142  0.1159  0.6557  0.5825
 8907TIP3    H226686   1.923   5.191   1.008  0.3365 -0.5340 -0.0711
 8908TIP3   OH226687   4.845   6.477   5.266 -0.9782  0.8967  0.6307
 8908TIP3    H126688   4.862   6.569   5.286  1.1848  0.6278  0.2790
 8908TIP3    H226689   4.892   6.461   5.184 -1.1588 -0.5638  0.7874
 8909TIP3   OH226690   4.100   3.260   4.052 -0.7604  0.2998  0.0852
 8909TIP3    H126691   4.024   3.225   4.005 -1.5471  2.1018 -0.0668
 8909TIP3    H226692   4.084   3.235   4.144 -1.4969  0.5702  0.0411
 8910TIP3   OH226693   6.122   5.896   5.213  1.0745 -0.7713  0.3890
 8910TIP3    H126694   6.180   5.958   5.168 -0.2270 -0.3040 -0.7202
 8910TIP3    H226695   6.170   5.871   5.292  1.4103  2.2205  1.2875
 8911TIP3   OH226696   1.688   5.369   2.503  0.2529 -0.0906 -0.3114
 8911TIP3    H126697   1.607   5.421   2.499  0.3835  0.2524  0.8880
 8911TIP3    H226698   1.752   5.430   2.539  1.1881 -0.2149 -1.7142
 8912TIP3   OH226699   6.267   0.750   1.300 -0.5534  1.2861 -0.6346
 8912TIP3    H126700   6.250   0.674   1.245 -0.8546  0.6716  0.2897
 8912TIP3    H226701   6.348   0.728   1.346  0.1511  2.1428 -1.4077
 8913TIP3   OH226702   3.593   6.580   5.097 -0.7666  0.4845 -0.3473
 8913TIP3    H126703   3.592   6.546   5.007 -0.8678  2.0634 -0.9885
 8913TIP3    H226704   3.685   6.600   5.113 -0.9899  2.2158 -0.9585
 8914TIP3   OH226705   1.420   2.746   3.378  0.0638  0.2283  0.3898
 8914TIP3    H126706   1.365   2.740   3.300 -0.8835  1.3957  0.9376
 8914TIP3    H226707   1.461   2.660   3.386 -0.2766 -0.0875 -1.0540
 8915TIP3   OH226708   1.110   0.571   4.616  0.7853 -0.3380  0.4299
 8915TIP3    H126709   1.144   0.654   4.583  0.9103 -0.0044  1.3686
 8915TIP3    H226710   1.166   0.550   4.690 -1.1611  0.3484  2.1763
 8916TIP3   OH226711   6.347   6.651   2.531  0.1665 -0.7293  0.4245
 8916TIP3    H126712   6.300   6.652   2.614  1.9276 -0.8577  1.4822
 8916TIP3    H226713   6.327   6.565   2.493  0.9103 -1.5044  1.7095
 8917TIP3   OH226714   4.596   1.222   3.879 -0.0440  0.3486 -0.1639
 8917TIP3    H126715   4.534   1.289   3.909 -0.5121  0.6296 -1.6599
 8917TIP3    H226716   4.542   1.144   3.866  0.5375 -0.4241  1.7907
 8918TIP3   OH226717   6.670   2.307   3.260  0.2132 -0.3288 -0.2229
 8918TIP3    H126718   6.621   2.230   3.290 -1.6286  1.3136  1.2102
 8918TIP3    H226719   6.622   2.337   3.183  0.0872  0.1897  0.0572
 8919TIP3   OH226720   0.717   4.108   2.078  0.6789  0.2681 -0.4824
 8919TIP3    H126721   0.768   4.040   2.123  0.3941  1.1056  1.1891
 8919TIP3    H226722   0.705   4.074   1.990  1.3480 -1.4240  0.0314
 8920TIP3   OH226723   1.603   3.972   3.127  0.5394 -0.3725  0.1860
 8920TIP3    H126724   1.563   3.941   3.208  0.6725 -0.8599  0.0685
 8920TIP3    H226725   1.531   3.977   3.064  0.3204  0.6103  0.4979
 8921TIP3   OH226726   3.487   3.140   2.225  0.3709 -0.0497  0.3716
 8921TIP3    H126727   3.438   3.124   2.306  0.4491 -2.2350  0.0395
 8921TIP3    H226728   3.571   3.096   2.239  1.1139  1.1450 -0.2076
 8922TIP3   OH226729   6.588   3.626   3.602 -0.2653  0.1626  0.6119
 8922TIP3    H126730   6.573   3.629   3.696  2.2193  0.1871  1.0726
 8922TIP3    H226731   6.514   3.576   3.567 -0.3400 -1.3503  2.7733
 8923TIP3   OH226732   6.688   3.463   3.191 -0.2249 -0.0691 -0.1623
 8923TIP3    H126733   6.688   3.539   3.250  1.9572  0.9792 -1.4150
 8923TIP3    H226734   6.595   3.441   3.181 -0.7434  0.1610  3.0103
 8924TIP3   OH226735   6.380   1.705   5.420 -0.6466 -0.6021  0.4051
 8924TIP3    H126736   6.297   1.717   5.467 -1.9756  0.5481 -2.0466
 8924TIP3    H226737   6.366   1.626   5.367 -0.4481 -0.0315 -0.5165
 8925TIP3   OH226738   5.890   2.027   2.851 -0.1752  0.0174 -0.7834
 8925TIP3    H126739   5.883   2.010   2.757  1.0281 -1.4175 -0.6634
 8925TIP3    H226740   5.807   1.996   2.888 -0.9815  1.3313 -1.4336
 8926TIP3   OH226741   0.171   3.020   4.201 -0.4617  0.1933  0.0927
 8926TIP3    H126742   0.137   3.010   4.290  0.3905  3.0906  0.8573
 8926TIP3    H226743   0.247   2.962   4.198 -1.0814 -0.7010  0.8731
 8927TIP3   OH226744   2.500   0.928   0.982 -0.0750  0.2210  0.3527
 8927TIP3    H126745   2.471   0.997   1.043  0.4465  1.4337 -0.7173
 8927TIP3    H226746   2.436   0.929   0.912  1.2682  1.3992 -0.9215
 8928TIP3   OH226747   5.208   0.105   0.657 -0.1108 -0.2982 -0.3080
 8928TIP3    H126748   5.161   0.179   0.693 -2.5356 -1.6394 -0.4821
 8928TIP3    H226749   5.285   0.095   0.713 -0.6413  1.2813  0.7592
 8929TIP3   OH226750   5.523   3.339   2.681  0.3670  1.1868  0.2943
 8929TIP3    H126751   5.440   3.338   2.632  0.4615  0.2354  0.1350
 8929TIP3    H226752   5.504   3.391   2.759 -0.0845  1.8415 -0.2444
 8930TIP3   OH226753   6.534   2.069   3.275  0.2238 -0.6364 -0.1124
 8930TIP3    H126754   6.459   2.121   3.304  0.8440 -1.3881  3.2426
 8930TIP3    H226755   6.523   2.063   3.180 -3.1066  0.5192  0.0527
 8931TIP3   OH226756   7.118   5.812   2.396 -0.2125  0.2527 -0.4272
 8931TIP3    H126757   7.167   5.786   2.474  0.4529  1.6475 -0.3497
 8931TIP3    H226758   7.181   5.863   2.344 -0.3854 -1.3095 -2.2925
 8932TIP3   OH226759   4.712   2.900   2.618 -0.1336  0.1375  0.1417
 8932TIP3    H126760   4.704   2.914   2.524  0.0533  0.5311  0.1826
 8932TIP3    H226761   4.740   2.985   2.652  0.3184 -0.1507  0.4854
 8933TIP3   OH226762   0.954   2.765   3.146  0.0026 -0.0769 -0.2215
 8933TIP3    H126763   0.886   2.709   3.184 -0.1907 -0.5066 -1.1613
 8933TIP3    H226764   0.919   2.854   3.152  0.4703  0.0220  1.6266
 8934TIP3   OH226765   5.548   1.267   4.873 -0.2607 -0.1970  0.1106
 8934TIP3    H126766   5.492   1.338   4.903  1.3721  1.0256  0.4355
 8934TIP3    H226767   5.521   1.250   4.783 -2.2583 -0.8262  0.7966
 8935TIP3   OH226768   5.390   1.864   4.696 -0.0101 -0.0112 -0.2222
 8935TIP3    H126769   5.313   1.876   4.641 -0.7469  1.2449  1.0095
 8935TIP3    H226770   5.358   1.876   4.786  1.5901  0.5262  0.3257
 8936TIP3   OH226771   2.335   6.162   2.091 -0.1418  0.3146  0.6644
 8936TIP3    H126772   2.242   6.176   2.107 -0.1804  2.9471 -1.0672
 8936TIP3    H226773   2.375   6.247   2.109  1.8855 -0.6592  0.9984
 8937TIP3   OH226774   2.335   5.340  -0.036  0.0897 -0.3506 -0.4046
 8937TIP3    H126775   2.319   5.408   0.029 -0.0413 -0.3117 -0.4780
 8937TIP3    H226776   2.378   5.270   0.012 -0.1085 -0.3679 -0.2554
 8938TIP3   OH226777   6.502   2.853   3.714 -0.1256  0.1016  0.6885
 8938TIP3    H126778   6.454   2.797   3.775 -1.1796 -0.7759 -0.8700
 8938TIP3    H226779   6.519   2.797   3.638  1.4148  1.0601  0.2801
 8939TIP3   OH226780   1.055   5.642   1.152  0.3229  0.3070  0.0065
 8939TIP3    H126781   1.032   5.597   1.070  1.1530 -0.0130 -0.0624
 8939TIP3    H226782   1.004   5.597   1.219 -0.5477  0.7250 -0.3608
 8940TIP3   OH226783   6.735   0.909   4.893  0.3587  0.3465  0.0205
 8940TIP3    H126784   6.826   0.879   4.896 -0.4462 -2.3039  0.7446
 8940TIP3    H226785   6.702   0.893   4.982 -1.2805 -0.5008 -0.6993
 8941TIP3   OH226786   4.982   5.140   1.133  0.8213  0.2483  0.3166
 8941TIP3    H126787   4.983   5.076   1.062 -1.3086 -0.4836  0.8976
 8941TIP3    H226788   5.029   5.097   1.204  0.2185 -0.2810  0.3928
 8942TIP3   OH226789   5.311   0.211   4.737  0.7207 -0.3435 -0.0067
 8942TIP3    H126790   5.383   0.273   4.720  0.6642 -0.6405 -1.5357
 8942TIP3    H226791   5.315   0.194   4.831  3.4990 -1.3696 -0.2182
 8943TIP3   OH226792   1.379   3.473   0.031 -0.3850 -0.3034  0.0070
 8943TIP3    H126793   1.379   3.400   0.093 -0.6875 -0.9540 -0.7361
 8943TIP3    H226794   1.379   3.552   0.086 -0.9346 -0.8589  0.8256
 8944TIP3   OH226795   4.705   1.405   3.198 -0.7989  0.0109  0.0969
 8944TIP3    H126796   4.733   1.323   3.239  1.6655 -0.5690 -2.4309
 8944TIP3    H226797   4.710   1.470   3.268  2.3113 -1.0614  1.0370
 8945TIP3   OH226798   3.070   5.450   0.659  0.0896 -0.3697  0.1998
 8945TIP3    H126799   2.982   5.426   0.686  0.2119 -0.8963  0.1335
 8945TIP3    H226800   3.124   5.433   0.736 -0.0945  1.4426  0.7827
 8946TIP3   OH226801   6.638   5.553   0.852 -0.0685 -0.0583 -0.4188
 8946TIP3    H126802   6.663   5.528   0.763 -1.0409 -0.6465 -0.5338
 8946TIP3    H226803   6.650   5.474   0.903  0.4071  0.2582 -0.0331
 8947TIP3   OH226804   5.412   1.401   3.122 -0.4614 -0.7928  0.0731
 8947TIP3    H126805   5.396   1.334   3.056 -1.7380 -1.3582  0.9186
 8947TIP3    H226806   5.367   1.369   3.200 -1.0030  0.9922  0.5388
 8948TIP3   OH226807   6.384   1.363   2.569  0.9312  0.5034  0.0989
 8948TIP3    H126808   6.336   1.443   2.548  1.5996  1.2765  1.4325
 8948TIP3    H226809   6.332   1.293   2.528 -0.3704  1.4792  0.0277
 8949TIP3   OH226810   4.497   2.550   1.039 -0.1510  0.1134  0.1555
 8949TIP3    H126811   4.555   2.625   1.026 -0.5939  0.0872 -2.6134
 8949TIP3    H226812   4.508   2.526   1.131  2.3803  1.5987  0.3195
 8950TIP3   OH226813   0.870   6.725   3.269 -0.0461 -0.4498  0.2080
 8950TIP3    H126814   0.778   6.752   3.257 -0.4314 -1.4505  0.7954
 8950TIP3    H226815   0.918   6.775   3.203 -0.5999  2.2100  1.6298
 8951TIP3   OH226816   6.646   2.616   1.015  0.4163 -0.4185 -0.0873
 8951TIP3    H126817   6.656   2.705   1.050 -0.0892 -0.8800  1.2632
 8951TIP3    H226818   6.735   2.580   1.017  0.5323 -0.1382 -0.1167
 8952TIP3   OH226819   5.661   0.930   0.756  0.1023 -0.0821 -0.5374
 8952TIP3    H126820   5.728   0.997   0.767 -0.6543  0.5413  0.5206
 8952TIP3    H226821   5.691   0.857   0.811 -2.4826  2.1317  4.5780
 8953TIP3   OH226822   4.636   4.950   4.364  0.2539 -0.0444 -0.3962
 8953TIP3    H126823   4.708   4.979   4.420  0.4462 -0.1573 -0.5829
 8953TIP3    H226824   4.615   5.026   4.309 -0.4722  0.3299  0.3722
 8954TIP3   OH226825   4.243   4.439   0.544  1.1542  0.6098 -0.3857
 8954TIP3    H126826   4.189   4.517   0.543 -0.4493 -0.4619 -1.0942
 8954TIP3    H226827   4.313   4.458   0.481  0.6258  1.3639 -0.7662
 8955TIP3   OH226828   6.994   2.139   2.140 -0.0403  0.3762 -0.2570
 8955TIP3    H126829   7.014   2.050   2.169 -0.5788 -0.2387 -1.6722
 8955TIP3    H226830   7.073   2.167   2.094 -0.0191  0.4712 -0.1618
 8956TIP3   OH226831   4.889   6.737   5.823  0.0896 -0.1646  0.1658
 8956TIP3    H126832   4.860   6.747   5.732 -0.2931 -1.0270  0.1792
 8956TIP3    H226833   4.959   6.672   5.818  0.0792 -0.1998  0.4872
 8957TIP3   OH226834   1.794   4.259   3.889 -0.0352 -0.4946 -0.2269
 8957TIP3    H126835   1.712   4.237   3.845  0.0242 -4.0008  1.0954
 8957TIP3    H226836   1.776   4.241   3.982  1.4308  1.5351  0.5424
 8958TIP3   OH226837   3.355   5.107   0.977  0.3256 -0.0891 -0.8001
 8958TIP3    H126838   3.284   5.166   1.003  0.6184 -0.1269  0.1336
 8958TIP3    H226839   3.353   5.107   0.881  0.7455  1.9564 -0.8480
 8959TIP3   OH226840   4.651   6.063   0.408  0.0284  0.3629  0.2575
 8959TIP3    H126841   4.685   6.020   0.329 -0.4761 -0.0251  0.2468
 8959TIP3    H226842   4.570   6.104   0.380 -0.2855  0.0043  0.6341
 8960TIP3   OH226843   5.821   2.870   5.765 -0.1919  0.0103 -0.2226
 8960TIP3    H126844   5.810   2.805   5.695  0.0946  0.4647 -0.6964
 8960TIP3    H226845   5.733   2.905   5.778 -0.1228  0.4573 -0.8869
 8961TIP3   OH226846   6.756   4.085   2.076 -0.4006 -0.0347  0.1430
 8961TIP3    H126847   6.712   4.115   2.156 -1.7624 -1.9219  0.1500
 8961TIP3    H226848   6.691   4.098   2.007  0.7036  1.4065 -0.6840
 8962TIP3   OH226849   4.139   1.073   5.222  0.0478  0.3914 -0.6852
 8962TIP3    H126850   4.153   0.992   5.173  1.8185 -1.6260  2.7439
 8962TIP3    H226851   4.224   1.116   5.223  0.0395  0.4140  0.4540
 8963TIP3   OH226852   0.595   4.406   5.272  0.0835 -0.0598 -0.1510
 8963TIP3    H126853   0.524   4.361   5.225  1.2315 -2.6380  0.3759
 8963TIP3    H226854   0.622   4.477   5.213 -1.8715 -0.0100 -1.0494
 8964TIP3   OH226855   0.316   2.096   3.450 -0.1910 -0.1918 -0.7358
 8964TIP3    H126856   0.383   2.155   3.484 -0.3647 -0.4674  0.1293
 8964TIP3    H226857   0.241   2.109   3.509 -0.4808 -0.7467 -0.9726
 8965TIP3   OH226858   4.022   0.308   1.243  0.2471 -0.1276 -0.1970
 8965TIP3    H126859   4.067   0.224   1.256  1.0946  0.2960 -0.2971
 8965TIP3    H226860   4.074   0.371   1.292 -1.1358  0.1464  0.9784
 8966TIP3   OH226861   4.719   4.353   2.457  0.2547 -0.4292 -0.3185
 8966TIP3    H126862   4.724   4.399   2.373  3.0592 -0.2462 -0.1334
 8966TIP3    H226863   4.720   4.260   2.433  1.0691 -0.3792 -0.5282
 8967TIP3   OH226864   6.515   6.504   4.712  0.2945 -0.0107 -0.0586
 8967TIP3    H126865   6.449   6.573   4.700  0.8098  1.0112  2.3384
 8967TIP3    H226866   6.532   6.471   4.624 -1.1728  1.8130 -1.0979
 8968TIP3   OH226867   5.658   4.538   3.504  0.0035  0.0759  0.3691
 8968TIP3    H126868   5.684   4.629   3.512 -1.2144  0.5735 -0.8605
 8968TIP3    H226869   5.699   4.509   3.422  1.7023 -1.0017  1.5310
 8969TIP3   OH226870   1.535   0.690   4.959 -0.6021  0.0521 -0.4449
 8969TIP3    H126871   1.507   0.635   5.033 -2.2229 -0.4886 -1.4048
 8969TIP3    H226872   1.474   0.667   4.889  1.3163  0.0470 -2.1860
 8970TIP3   OH226873   3.526   2.121   0.535 -0.6632 -0.1621  0.1208
 8970TIP3    H126874   3.449   2.178   0.544  0.4069  1.2132  0.8727
 8970TIP3    H226875   3.492   2.033   0.550 -2.1379  0.3816  0.1559
 8971TIP3   OH226876   3.022   2.798   3.516 -0.0235 -0.3163 -0.0071
 8971TIP3    H126877   3.103   2.792   3.464 -1.0003  0.8919 -1.7741
 8971TIP3    H226878   3.048   2.845   3.595  1.2983 -1.2751  0.1588
 8972TIP3   OH226879   0.831   6.754   3.786 -0.2520 -0.0508 -0.1603
 8972TIP3    H126880   0.867   6.785   3.703 -1.9502 -0.6088 -1.1655
 8972TIP3    H226881   0.849   6.660   3.786  0.7985  0.1311  0.7003
 8973TIP3   OH226882   1.153   3.282   1.191  0.3073  0.1969 -0.5026
 8973TIP3    H126883   1.182   3.217   1.127  0.6149  0.7484 -0.9347
 8973TIP3    H226884   1.186   3.249   1.275 -1.2092 -1.2098 -0.4083
 8974TIP3   OH226885   7.014   4.144   2.475 -0.5170 -0.4125  0.2787
 8974TIP3    H126886   6.996   4.225   2.429  1.2775  1.1956  2.1880
 8974TIP3    H226887   7.069   4.170   2.549 -0.3685 -3.2965  1.3254
 8975TIP3   OH226888   0.791   2.196   3.784 -0.4544 -0.1479  0.1003
 8975TIP3    H126889   0.723   2.209   3.718  1.4824  1.6395 -1.6921
 8975TIP3    H226890   0.799   2.281   3.827 -0.8568 -0.9629  1.8922
 8976TIP3   OH226891   1.610   4.137   2.178 -0.4090 -0.1031 -0.0275
 8976TIP3    H126892   1.653   4.102   2.100  1.0286 -2.7440  1.8040
 8976TIP3    H226893   1.634   4.230   2.180  1.8536 -0.6046 -1.2342
 8977TIP3   OH226894   1.773   3.221   3.950 -1.0340  0.4450 -0.7895
 8977TIP3    H126895   1.801   3.181   4.032 -2.4271 -0.1793 -0.5781
 8977TIP3    H226896   1.752   3.147   3.893 -3.5288  0.7885 -0.4423
 8978TIP3   OH226897   5.463   4.027   0.420 -0.0237 -0.6630  0.3851
 8978TIP3    H126898   5.420   4.108   0.392  3.7558  0.7949 -1.9941
 8978TIP3    H226899   5.433   3.961   0.357  1.5019  0.4687 -1.6444
 8979TIP3   OH226900   0.115   5.882   1.058  0.1829 -0.1652 -0.1143
 8979TIP3    H126901   0.092   5.842   1.141 -1.7926 -0.5076 -0.7630
 8979TIP3    H226902   0.101   5.976   1.071 -1.5409 -0.3486 -0.4326
 8980TIP3   OH226903   4.453   5.944   4.715 -0.1107 -0.0135  0.5927
 8980TIP3    H126904   4.369   5.906   4.742  0.4069 -0.9878  0.8782
 8980TIP3    H226905   4.514   5.870   4.715  1.2719  1.0231  2.5224
 8981TIP3   OH226906   6.449   2.393   2.055 -0.0645 -0.1508  0.5053
 8981TIP3    H126907   6.508   2.372   2.128  0.6375  1.9167  0.6126
 8981TIP3    H226908   6.420   2.482   2.073  0.1607  0.4319 -1.7435
 8982TIP3   OH226909   3.838   1.388   4.726 -0.9555 -0.2270 -0.4627
 8982TIP3    H126910   3.793   1.404   4.644  1.2624 -0.1815 -1.7633
 8982TIP3    H226911   3.832   1.294   4.740 -1.8724 -0.1528 -0.3329
 8983TIP3   OH226912   5.811   1.912   5.901 -0.1802 -0.3562  0.0852
 8983TIP3    H126913   5.832   1.976   5.833 -0.2480  1.6175  1.8276
 8983TIP3    H226914   5.846   1.829   5.868  0.8160  0.7662 -1.8176
 8984TIP3   OH226915   4.908   1.752   4.961 -0.0761  0.3645  0.6666
 8984TIP3    H126916   4.834   1.794   4.917 -0.8682 -1.1084  0.5153
 8984TIP3    H226917   4.961   1.715   4.890  0.1544  0.3970  0.8201
 8985TIP3   OH226918   2.130   6.319   5.305 -0.5476 -0.2458 -0.0710
 8985TIP3    H126919   2.173   6.243   5.346  1.3282  1.4076  1.2170
 8985TIP3    H226920   2.046   6.326   5.350 -0.4658 -1.1605  0.2483
 8986TIP3   OH226921   6.052   0.441   0.907  0.0247  0.4306  0.2536
 8986TIP3    H126922   6.116   0.475   0.970 -0.5065  0.7295  0.6362
 8986TIP3    H226923   6.048   0.347   0.928  2.4155 -0.1938 -1.6165
 8987TIP3   OH226924   5.536   1.967   4.168 -0.6377 -0.7377 -0.4598
 8987TIP3    H126925   5.628   1.976   4.143 -0.7457 -0.2458 -0.6843
 8987TIP3    H226926   5.487   2.008   4.097 -0.9687  0.2728  0.3311
 8988TIP3   OH226927   6.324   4.232   1.535 -0.6471  0.0644  0.7886
 8988TIP3    H126928   6.334   4.292   1.608 -0.9577  0.7754  0.2523
 8988TIP3    H226929   6.411   4.227   1.495 -0.7938  0.7359  0.3854
 8989TIP3   OH226930   2.007   5.116   5.242 -0.0275 -0.1362  0.4912
 8989TIP3    H126931   2.093   5.157   5.229  0.4532 -1.0050  0.7597
 8989TIP3    H226932   1.961   5.129   5.159 -0.2395  1.6623  0.8533
 8990TIP3   OH226933   3.979   4.604   3.726  0.0244 -0.0170  0.0087
 8990TIP3    H126934   3.896   4.637   3.761  0.9045  0.3479  1.9191
 8990TIP3    H226935   4.045   4.664   3.760  1.0864 -0.2358 -1.5547
 8991TIP3   OH226936   4.153   5.434   4.605  0.6204  0.4624  0.7920
 8991TIP3    H126937   4.244   5.451   4.581  1.1660 -1.0476  1.6438
 8991TIP3    H226938   4.128   5.358   4.553  0.3408 -0.0215  1.6076
 8992TIP3   OH226939   2.029   5.199   1.500  0.3720 -0.3119 -0.0755
 8992TIP3    H126940   2.017   5.104   1.492 -1.2921 -0.3148  1.7100
 8992TIP3    H226941   1.991   5.220   1.585  2.6038  1.6679  0.5308
 8993TIP3   OH226942   6.835   0.681   2.699  0.4776  0.0367  0.1578
 8993TIP3    H126943   6.842   0.608   2.760  1.7852  1.0746  1.2960
 8993TIP3    H226944   6.761   0.733   2.731  1.8440  1.1801  1.5809
 8994TIP3   OH226945   1.398   2.940   0.825 -0.1352 -0.0363 -0.6160
 8994TIP3    H126946   1.345   2.870   0.788  0.1032 -0.2479 -0.5609
 8994TIP3    H226947   1.408   3.003   0.753  2.1603 -1.4678 -1.6537
 8995TIP3   OH226948   6.032   0.401   2.579  0.1923 -0.2973  0.2712
 8995TIP3    H126949   6.080   0.477   2.612 -0.4459  0.8139 -1.2524
 8995TIP3    H226950   6.010   0.350   2.658 -0.1039  1.5135  1.4058
 8996TIP3   OH226951   1.743   5.020   1.524 -0.2620  0.0073  0.0559
 8996TIP3    H126952   1.677   5.074   1.565 -0.4878 -0.0983 -0.1649
 8996TIP3    H226953   1.709   4.931   1.529 -0.5438  0.0500 -0.8167
 8997TIP3   OH226954   2.525   6.207   2.794 -0.2491  0.2527 -0.1374
 8997TIP3    H126955   2.525   6.243   2.882 -0.8573  0.1451 -0.0935
 8997TIP3    H226956   2.569   6.274   2.741  2.1684 -0.6328  0.6137
 8998TIP3   OH226957   6.422   5.003   0.637  0.0269 -0.0870  0.3952
 8998TIP3    H126958   6.348   5.017   0.577 -0.1790  3.1765  1.2443
 8998TIP3    H226959   6.381   4.971   0.718 -0.4675  1.3759  0.7473
 8999TIP3   OH226960   1.178   5.163   4.294 -0.0555  0.2813  0.5186
 8999TIP3    H126961   1.161   5.072   4.316 -1.7745 -0.4876 -3.3112
 8999TIP3    H226962   1.245   5.159   4.225 -0.1343  1.9348  0.3056
 9000TIP3   OH226963   2.468   4.293   5.300 -0.3042 -0.4534 -0.3435
 9000TIP3    H126964   2.536   4.230   5.275 -1.3403 -1.2481 -1.2501
 9000TIP3    H226965   2.475   4.363   5.235 -0.2654 -0.4544 -0.3408
 9001TIP3   OH226966   2.875   2.757   0.889 -0.5984  0.1160 -0.2969
 9001TIP3    H126967   2.865   2.663   0.873  0.9079 -0.1154 -0.0041
 9001TIP3    H226968   2.818   2.798   0.824 -1.6528 -1.0047 -0.1048
 9002TIP3   OH226969   7.010   0.922   0.382 -0.2754  0.4466 -0.6218
 9002TIP3    H126970   7.036   0.859   0.450  0.5267  1.7051  0.2814
 9002TIP3    H226971   6.968   0.868   0.315 -3.1986 -0.6738  1.8188
 9003TIP3   OH226972   4.908   3.052   4.050 -0.4513  0.1951 -0.4014
 9003TIP3    H126973   5.002   3.055   4.068 -0.6071  0.7399  0.4203
 9003TIP3    H226974   4.870   3.112   4.115 -1.3994 -0.3069 -0.4782
 9004TIP3   OH226975   6.500   5.079   3.089  0.0213  0.2667  0.2270
 9004TIP3    H126976   6.476   5.083   2.997 -2.5755  0.6780  0.8335
 9004TIP3    H226977   6.574   5.019   3.092 -1.2297 -1.5540 -1.8952
 9005TIP3   OH226978   2.903   1.987   1.121 -0.1081 -0.3098  0.6446
 9005TIP3    H126979   2.827   2.045   1.110 -0.8869 -1.2488  0.8600
 9005TIP3    H226980   2.883   1.911   1.065  0.9293 -0.3306  0.2957
 9006TIP3   OH226981   6.653   2.532   4.069 -0.0668 -0.0675 -0.1296
 9006TIP3    H126982   6.584   2.597   4.081  0.1692  0.3092 -0.7524
 9006TIP3    H226983   6.734   2.580   4.081  0.1046 -0.3420 -0.1658
 9007TIP3   OH226984   1.743   6.517   2.910 -0.0772  0.2270  0.3520
 9007TIP3    H126985   1.748   6.611   2.924  0.6693  0.5322 -1.7038
 9007TIP3    H226986   1.825   6.494   2.868  0.5272 -1.6960  2.3833
 9008TIP3   OH226987   6.121   5.472   2.326 -0.4725 -0.4793 -0.5892
 9008TIP3    H126988   6.062   5.539   2.291 -0.4988 -0.8736 -1.3205
 9008TIP3    H226989   6.068   5.424   2.389 -1.4122 -1.7220 -2.2262
 9009TIP3   OH226990   5.027   0.953   3.177  0.1821  0.3207 -0.1017
 9009TIP3    H126991   5.019   0.906   3.260  0.6406  0.7085  0.1676
 9009TIP3    H226992   5.071   0.891   3.118  1.5794  0.6966  0.5062
 9010TIP3   OH226993   6.385   2.946   0.709  0.1528 -0.2318 -0.0779
 9010TIP3    H126994   6.344   2.883   0.768 -0.3552 -0.8226 -1.0369
 9010TIP3    H226995   6.474   2.956   0.742 -0.3278 -0.0217  1.1859
 9011TIP3   OH226996   1.204   5.898   3.117 -0.4334  0.2886 -0.4778
 9011TIP3    H126997   1.225   5.986   3.148  2.3358  0.1690 -1.6600
 9011TIP3    H226998   1.214   5.842   3.195  1.4436  0.6035 -0.4516
 9012TIP3   OH226999   1.576   4.227   3.704  0.7298 -0.3922  0.0178
 9012TIP3    H127000   1.570   4.151   3.645  2.7791  1.3870 -2.7183
 9012TIP3    H227001   1.568   4.303   3.647  0.4308  1.5275  2.4260
 9013TIP3   OH227002   3.342   4.040   3.705 -0.0783 -0.3304  0.5950
 9013TIP3    H127003   3.261   4.058   3.657  0.5925  0.9398 -0.1200
 9013TIP3    H227004   3.363   4.122   3.749  1.2337 -0.3665  0.1069
 9014TIP3   OH227005   0.994   1.289   3.119  0.3014  0.2057  0.2232
 9014TIP3    H127006   0.983   1.371   3.166  0.7400  0.7818 -0.6511
 9014TIP3    H227007   0.909   1.272   3.079  0.3597  0.5248 -0.0415
 9015TIP3   OH227008   1.109   3.019   0.446  0.2712  0.1021 -0.5539
 9015TIP3    H127009   1.170   2.965   0.496  0.1774 -0.1284 -0.6859
 9015TIP3    H227010   1.052   2.956   0.401 -1.7477  0.2704  1.5752
 9016TIP3   OH227011   2.435   1.500   4.758 -0.2474 -0.3863 -0.0256
 9016TIP3    H127012   2.445   1.580   4.706 -0.3905 -0.1057  0.3758
 9016TIP3    H227013   2.357   1.458   4.722  0.6608 -1.1240 -1.2450
 9017TIP3   OH227014   5.962   6.212   3.191  0.1235 -0.6280 -0.1949
 9017TIP3    H127015   5.976   6.165   3.109  0.7100 -0.1781 -0.3659
 9017TIP3    H227016   6.022   6.287   3.186 -2.7708  1.8111 -1.2180
 9018TIP3   OH227017   5.204   3.546   1.001  0.4562  0.3182 -0.0800
 9018TIP3    H127018   5.251   3.517   0.923 -0.3335  2.2106 -1.3230
 9018TIP3    H227019   5.241   3.632   1.021 -0.9410  0.8622  0.2573
 9019TIP3   OH227020   4.436   2.538   2.574  0.2367 -0.0923  0.1083
 9019TIP3    H127021   4.426   2.444   2.560  0.2786 -0.0191 -0.4702
 9019TIP3    H227022   4.521   2.559   2.534  1.8132 -0.3441  3.0761
 9020TIP3   OH227023   0.238   4.724   0.313  0.1708 -0.4119  0.2141
 9020TIP3    H127024   0.226   4.791   0.246  0.9000  0.0231  0.5139
 9020TIP3    H227025   0.300   4.662   0.274 -1.6118 -1.7391 -0.6535
 9021TIP3   OH227026   5.646   5.702   3.852  0.1139 -0.7531  0.1675
 9021TIP3    H127027   5.739   5.722   3.842  0.1833 -1.5725 -1.0269
 9021TIP3    H227028   5.634   5.688   3.946  1.4472 -1.7448  0.2179
 9022TIP3   OH227029   1.446   3.407   1.258  0.2825  0.4668 -0.3262
 9022TIP3    H127030   1.511   3.421   1.189 -0.2934 -0.6607 -1.1263
 9022TIP3    H227031   1.364   3.395   1.211 -0.2317  0.3175  0.5932
 9023TIP3   OH227032   1.305   1.291   4.291  0.3314  0.3697 -0.0087
 9023TIP3    H127033   1.313   1.377   4.250  0.3299  0.3222 -0.1081
 9023TIP3    H227034   1.278   1.233   4.220 -1.2804  0.5903  0.4024
 9024TIP3   OH227035   2.864   5.108   0.084 -0.3611  0.7994 -0.7144
 9024TIP3    H127036   2.779   5.148   0.102  0.4022  2.6187 -0.8751
 9024TIP3    H227037   2.856   5.076  -0.006 -0.7844  1.2677 -0.8551
 9025TIP3   OH227038   6.424   0.907   0.156  0.1236  0.3613  0.3545
 9025TIP3    H127039   6.398   0.980   0.100  0.4632  0.8024  0.7630
 9025TIP3    H227040   6.504   0.873   0.116  1.3417  1.7593  1.4821
 9026TIP3   OH227041   7.201   1.117   0.338 -0.3831 -0.9795  0.3381
 9026TIP3    H127042   7.131   1.052   0.350 -1.4884 -0.2300 -1.6510
 9026TIP3    H227043   7.267   1.071   0.287 -1.1916 -0.5773 -1.1212
 9027TIP3   OH227044   7.045   3.909   3.347 -0.5257 -0.2807 -0.2533
 9027TIP3    H127045   7.075   3.846   3.412  0.6047 -0.3218 -0.7939
 9027TIP3    H227046   7.115   3.974   3.341 -2.1692  1.7632  1.1695
 9028TIP3   OH227047   2.931   2.949   5.483  0.4945  0.0913  0.1472
 9028TIP3    H127048   2.872   2.952   5.408  0.0347 -2.1026  0.3458
 9028TIP3    H227049   2.873   2.945   5.559  0.8538 -1.2333  0.3873
 9029TIP3   OH227050   5.045   5.321   0.919  0.3425 -0.4394 -0.3256
 9029TIP3    H127051   5.031   5.260   0.992 -1.3009  1.1597  0.7710
 9029TIP3    H227052   4.960   5.326   0.876  0.2264  1.5353  0.0242
 9030TIP3   OH227053   1.238   1.198   4.035 -0.5295  0.3393  0.1142
 9030TIP3    H127054   1.278   1.156   3.959 -1.1997 -1.0255  0.4885
 9030TIP3    H227055   1.194   1.127   4.082 -0.6437  1.2527  1.4541
 9031TIP3   OH227056   0.246   1.862   1.503  0.3073 -0.2695 -0.1604
 9031TIP3    H127057   0.313   1.890   1.565 -0.4120  0.8941  0.1258
 9031TIP3    H227058   0.259   1.918   1.427  1.3958 -1.9091 -1.2554
 9032TIP3   OH227059   5.343   1.912   2.861 -0.5203 -0.1439 -0.1862
 9032TIP3    H127060   5.308   1.997   2.885  0.4193  0.4433 -0.8636
 9032TIP3    H227061   5.300   1.851   2.921 -0.1824  0.9625  1.2262
 9033TIP3   OH227062   3.852   6.064   1.728  0.0041  0.6532 -0.3623
 9033TIP3    H127063   3.812   6.018   1.802  2.5968 -0.7793  0.2943
 9033TIP3    H227064   3.789   6.131   1.704 -1.4797  0.3697  2.3537
 9034TIP3   OH227065   1.333   5.195   3.427 -0.4047 -0.3063 -0.2331
 9034TIP3    H127066   1.403   5.130   3.436  1.8081  2.1188  1.2290
 9034TIP3    H227067   1.344   5.231   3.339  0.8395  0.7018  0.3113
 9035TIP3   OH227068   6.612   0.111   1.074 -0.5313  0.4477  0.3725
 9035TIP3    H127069   6.654   0.172   1.014  3.0160 -0.7383  1.3791
 9035TIP3    H227070   6.623   0.151   1.160 -0.4592 -0.4075  0.7751
 9036TIP3   OH227071   2.376   4.609   1.718  0.2818 -0.2301  0.7141
 9036TIP3    H127072   2.435   4.581   1.788  1.0389  1.3661  0.7646
 9036TIP3    H227073   2.427   4.671   1.667 -1.1805  0.8203  0.4459
 9037TIP3   OH227074   4.251   3.538   4.212  0.4756  0.1624 -0.1179
 9037TIP3    H127075   4.210   3.573   4.132 -0.7617 -0.3391  0.2630
 9037TIP3    H227076   4.322   3.482   4.181  0.2785  0.3121 -0.8504
 9038TIP3   OH227077   2.453   6.420   4.426 -0.0847 -0.4834 -0.4888
 9038TIP3    H127078   2.461   6.440   4.519  2.0207 -1.1114 -0.4705
 9038TIP3    H227079   2.509   6.343   4.414  1.6840  1.0155 -2.6858
 9039TIP3   OH227080   1.153   4.153   4.949  0.3804  0.5942  0.3637
 9039TIP3    H127081   1.178   4.246   4.957  0.8102  0.5553 -0.4199
 9039TIP3    H227082   1.095   4.151   4.873  1.6828 -0.0078 -0.6582
 9040TIP3   OH227083   4.783   6.519   2.777 -0.1318 -0.2922 -0.1814
 9040TIP3    H127084   4.698   6.515   2.733 -0.3804  1.5905  0.0378
 9040TIP3    H227085   4.827   6.594   2.737  1.3692 -1.1229 -0.1565
 9041TIP3   OH227086   1.626   3.150   4.630 -0.4858  0.6844 -0.2314
 9041TIP3    H127087   1.532   3.133   4.623 -0.4455  0.4424 -0.2033
 9041TIP3    H227088   1.664   3.063   4.644 -0.5438  1.0476  2.8312
 9042TIP3   OH227089   5.393   6.639   4.126  0.0319 -0.0100 -0.2720
 9042TIP3    H127090   5.335   6.565   4.143  0.5110 -0.4137 -0.3890
 9042TIP3    H227091   5.461   6.632   4.193  1.6604 -1.3213 -1.9488
 9043TIP3   OH227092   5.048   1.274   2.169  0.2518 -0.5860  0.4167
 9043TIP3    H127093   5.062   1.349   2.111 -0.5795 -1.3004 -0.7469
 9043TIP3    H227094   5.130   1.266   2.218  0.9040  0.1621 -0.5088
 9044TIP3   OH227095   5.201   1.262   0.116  0.6318  0.1518 -0.1365
 9044TIP3    H127096   5.212   1.279   0.209  1.7173  1.1825 -0.4358
 9044TIP3    H227097   5.274   1.306   0.074 -0.2485  0.3434 -1.5542
 9045TIP3   OH227098   3.323   5.607   4.951  0.0911 -0.3019  0.0960
 9045TIP3    H127099   3.376   5.679   4.985 -1.1315  0.2724  0.8679
 9045TIP3    H227100   3.374   5.529   4.970  2.0085  0.3829 -1.8388
 9046TIP3   OH227101   1.485   1.108   4.460 -0.3657 -0.1925  0.4650
 9046TIP3    H127102   1.553   1.066   4.407  1.0159  1.3480  0.9322
 9046TIP3    H227103   1.454   1.181   4.406 -0.6619 -0.0530  0.8205
 9047TIP3   OH227104   2.348   0.062   0.612 -0.0979  0.1425  0.1547
 9047TIP3    H127105   2.339   0.135   0.673 -0.8503  1.0210 -0.9739
 9047TIP3    H227106   2.431   0.078   0.568 -0.5736  0.6900 -0.5561
 9048TIP3   OH227107   6.721   1.550   5.601  0.0386  0.3104 -0.4665
 9048TIP3    H127108   6.640   1.528   5.554 -0.3887 -1.0618  0.8230
 9048TIP3    H227109   6.783   1.574   5.533 -0.9834 -0.1966 -1.6034
 9049TIP3   OH227110   3.260   3.449   3.218 -0.1167 -0.4939 -0.0534
 9049TIP3    H127111   3.354   3.428   3.219 -0.0136 -0.0816 -0.4704
 9049TIP3    H227112   3.256   3.539   3.250 -0.4396 -0.7483  0.6239
 9050TIP3   OH227113   5.503   6.280   1.977  0.3832 -0.0124  0.6772
 9050TIP3    H127114   5.542   6.255   2.061  2.8659  0.4447 -0.2634
 9050TIP3    H227115   5.577   6.283   1.916 -1.4085 -0.9455 -1.7125
 9051TIP3   OH227116   6.770   3.902   4.161  0.4623  0.1352 -0.3047
 9051TIP3    H127117   6.822   3.826   4.134  0.2763  0.0888 -0.5356
 9051TIP3    H227118   6.799   3.920   4.251  0.5442 -0.1761 -0.2673
 9052TIP3   OH227119   2.561   2.244   3.916  0.5838  0.0364  0.2773
 9052TIP3    H127120   2.537   2.336   3.928  0.6559  0.3025 -1.3644
 9052TIP3    H227121   2.548   2.228   3.822  1.3846 -1.3878  0.3826
 9053TIP3   OH227122   6.611   4.222   3.207 -0.0753 -0.5609 -0.3634
 9053TIP3    H127123   6.570   4.144   3.244  0.7697 -0.9346 -0.2008
 9053TIP3    H227124   6.699   4.194   3.183  0.7111  0.6610  0.9255
 9054TIP3   OH227125   3.522   1.821   1.178 -0.4514  0.7985  0.3840
 9054TIP3    H127126   3.553   1.877   1.250  0.9823 -0.6545  0.9716
 9054TIP3    H227127   3.462   1.876   1.129  1.2031  3.0190  0.6774
 9055TIP3   OH227128   0.863   0.371   5.485 -0.1949  0.5118 -0.1606
 9055TIP3    H127129   0.889   0.327   5.565 -2.5498  0.3054  0.5615
 9055TIP3    H227130   0.807   0.308   5.439 -1.5361  1.7706 -0.3497
 9056TIP3   OH227131   6.752   4.524   5.489 -0.2652 -0.5129  0.0223
 9056TIP3    H127132   6.833   4.473   5.494 -1.6762 -2.8335  1.1256
 9056TIP3    H227133   6.736   4.552   5.579 -0.1555  0.9185 -0.3743
 9057TIP3   OH227134   1.833   3.973   2.318 -0.6809 -0.0593  0.5072
 9057TIP3    H127135   1.766   4.021   2.270 -1.7706 -1.4024  0.6333
 9057TIP3    H227136   1.831   3.884   2.282  1.8334  0.1125 -0.2650
 9058TIP3   OH227137   0.185   4.118   4.080 -0.6910  0.3363 -0.1295
 9058TIP3    H127138   0.242   4.193   4.096 -0.1775  0.5543 -2.6105
 9058TIP3    H227139   0.203   4.058   4.152  2.3102  0.6289 -0.5160
 9059TIP3   OH227140   1.550   3.448   0.990  0.1906 -0.2156 -0.4012
 9059TIP3    H127141   1.552   3.359   0.955  0.5329 -0.6450  0.6604
 9059TIP3    H227142   1.638   3.461   1.028 -0.5694 -0.3138  1.5405
 9060TIP3   OH227143   1.218   1.510   0.046 -0.3290  1.3765 -0.1909
 9060TIP3    H127144   1.232   1.418   0.023 -0.3701  1.4766 -0.6103
 9060TIP3    H227145   1.140   1.508   0.103 -0.6994  1.2208 -0.7002
 9061TIP3   OH227146   3.770   6.055   3.239 -0.0106  0.0809  0.0132
 9061TIP3    H127147   3.739   6.142   3.265 -0.3128 -0.0907  0.2408
 9061TIP3    H227148   3.804   6.067   3.151 -1.8057  0.0579 -0.7293
 9062TIP3   OH227149   3.612   6.404   3.789  0.1711  0.2479  0.1722
 9062TIP3    H127150   3.632   6.334   3.852 -0.3272 -0.1684 -0.1238
 9062TIP3    H227151   3.521   6.426   3.806  0.9992  2.7063  2.0592
 9063TIP3   OH227152   3.060   2.045   2.874  0.5955 -0.0887  0.2526
 9063TIP3    H127153   3.107   2.120   2.837 -0.2342  0.6885  0.7318
 9063TIP3    H227154   2.974   2.079   2.895  0.2197 -1.1767  0.5400
 9064TIP3   OH227155   0.139   3.062   2.671  0.3574 -0.7838  0.7220
 9064TIP3    H127156   0.096   3.123   2.731  1.0893  1.6234 -1.0682
 9064TIP3    H227157   0.222   3.040   2.714  0.9179  0.9816  0.6078
 9065TIP3   OH227158   3.501   1.490   4.295  0.1302 -0.3787 -0.0444
 9065TIP3    H127159   3.432   1.427   4.317 -0.3714 -0.0955 -0.7794
 9065TIP3    H227160   3.500   1.495   4.199  0.3288  0.5576 -0.0094
 9066TIP3   OH227161   1.178   0.174   3.080 -0.1503  0.3648  0.3738
 9066TIP3    H127162   1.217   0.155   2.995  2.6457  1.8986  1.1803
 9066TIP3    H227163   1.187   0.093   3.129 -0.4726 -0.0972 -0.3135
 9067TIP3   OH227164   6.406   0.415   0.663  0.4969  0.3219 -0.0487
 9067TIP3    H127165   6.315   0.397   0.637  1.0277 -1.4100 -0.8026
 9067TIP3    H227166   6.421   0.357   0.738  0.7546  1.2075  0.6087
 9068TIP3   OH227167   5.460   4.861   3.676  0.3804 -0.9269  0.5647
 9068TIP3    H127168   5.377   4.884   3.718 -0.1644 -2.1381  0.2188
 9068TIP3    H227169   5.437   4.852   3.583  1.0868 -0.4658  0.3382
 9069TIP3   OH227170   5.469   0.640   3.363 -0.2103  0.6855  0.6183
 9069TIP3    H127171   5.387   0.597   3.383  0.5695 -0.7372  0.8680
 9069TIP3    H227172   5.446   0.708   3.299 -1.1011 -2.0633 -2.2673
 9070TIP3   OH227173   5.124   4.158   1.539 -0.4004 -0.1313  0.1625
 9070TIP3    H127174   5.037   4.133   1.510 -1.6002  1.3947  2.2371
 9070TIP3    H227175   5.148   4.232   1.482 -0.4310 -0.5780 -0.4353
 9071TIP3   OH227176   6.941   3.140   1.435 -0.1339 -0.1910 -0.3145
 9071TIP3    H127177   6.914   3.134   1.527 -0.3592 -0.4805 -0.3962
 9071TIP3    H227178   6.979   3.054   1.416  0.1705 -0.0367 -0.4142
 9072TIP3   OH227179   3.847   4.560   0.477  0.7881  0.3562  0.2162
 9072TIP3    H127180   3.862   4.535   0.386  0.2174  2.5467 -0.5534
 9072TIP3    H227181   3.801   4.485   0.516 -0.9887  0.2252 -1.9360
 9073TIP3   OH227182   2.867   6.204   5.680 -0.0960 -0.0002  0.1821
 9073TIP3    H127183   2.792   6.260   5.660 -0.2996 -0.7022 -1.1654
 9073TIP3    H227184   2.828   6.124   5.716 -0.1966 -1.0684 -2.1014
 9074TIP3   OH227185   3.292   1.429   3.109 -0.5946 -0.2001 -0.0958
 9074TIP3    H127186   3.387   1.440   3.112 -0.4117 -1.7174  0.0885
 9074TIP3    H227187   3.277   1.363   3.042 -1.5774  0.4041 -0.5005
 9075TIP3   OH227188   2.662   1.647   3.054  0.6294  0.4002 -0.1417
 9075TIP3    H127189   2.624   1.590   3.121  1.6076  0.1352  0.2088
 9075TIP3    H227190   2.732   1.594   3.015  0.9023  1.0109 -0.4950
 9076TIP3   OH227191   6.471   5.296   0.653 -0.1567  0.0919  0.5251
 9076TIP3    H127192   6.550   5.305   0.601 -0.1989  1.3961  0.6358
 9076TIP3    H227193   6.444   5.206   0.641 -0.4753  0.4643 -2.1457
 9077TIP3   OH227194   3.042   2.261   0.092  0.3094  0.1994  0.4614
 9077TIP3    H127195   2.982   2.277   0.019  0.3400  0.4786  0.4981
 9077TIP3    H227196   3.123   2.304   0.067  0.5071 -0.1986  0.4014
 9078TIP3   OH227197   0.093   5.218   4.081  0.1886 -0.4123  0.0119
 9078TIP3    H127198   0.135   5.300   4.058 -0.7963  0.0381 -0.2453
 9078TIP3    H227199  -0.000   5.240   4.088 -0.2219 -1.6968 -1.0439
 9079TIP3   OH227200   5.072   5.689   0.589 -0.2428  0.0551  0.1100
 9079TIP3    H127201   5.142   5.631   0.559  0.5770  0.6095  0.9159
 9079TIP3    H227202   5.064   5.754   0.519 -0.2348 -0.2346 -0.1647
 9080TIP3   OH227203   0.623   4.771   5.857  0.2783 -0.5103 -0.1123
 9080TIP3    H127204   0.704   4.746   5.900 -0.0953  0.1011  0.9977
 9080TIP3    H227205   0.631   4.865   5.843 -0.4435 -0.3474  0.4972
 9081TIP3   OH227206   5.167   5.743   0.021  0.3874 -0.3280 -0.2056
 9081TIP3    H127207   5.244   5.760   0.075 -0.1224  0.0103  0.4215
 9081TIP3    H227208   5.192   5.774  -0.066  0.0407  2.3296  0.5499
 9082TIP3   OH227209   1.212   0.685   1.785  0.7083 -0.2168 -0.6773
 9082TIP3    H127210   1.230   0.755   1.721  0.3106 -0.2818 -0.8635
 9082TIP3    H227211   1.233   0.724   1.869  1.2418 -0.1297 -0.8455
 9083TIP3   OH227212   6.960   5.585   5.792 -0.3852 -0.3887  0.2865
 9083TIP3    H127213   6.869   5.555   5.786 -0.6015 -0.0963  1.7241
 9083TIP3    H227214   7.006   5.536   5.723 -1.5611 -0.7778 -0.2448
 9084TIP3   OH227215   7.041   3.012   0.427 -0.1487 -0.1142 -0.3802
 9084TIP3    H127216   7.123   2.995   0.381 -0.4838 -0.3576 -0.8961
 9084TIP3    H227217   7.014   3.099   0.398 -0.5835 -0.4489 -0.9815
 9085TIP3   OH227218   4.397   2.769   5.594  0.8242  0.2611  0.0369
 9085TIP3    H127219   4.429   2.852   5.559  0.1176  1.1014  1.3175
 9085TIP3    H227220   4.363   2.723   5.517  1.2825  1.1101 -0.7068
 9086TIP3   OH227221   2.063   1.393   4.904  0.2586  0.2747 -0.2534
 9086TIP3    H127222   2.030   1.439   4.828  1.0663  0.6747 -0.3721
 9086TIP3    H227223   1.986   1.350   4.942  0.0189 -0.8651 -1.9156
 9087TIP3   OH227224   2.247   2.862   0.861 -0.5921  0.6668  0.5860
 9087TIP3    H127225   2.248   2.877   0.956 -0.0976 -0.2771  0.7505
 9087TIP3    H227226   2.154   2.862   0.838 -0.6612  2.6633  0.7461
 9088TIP3   OH227227   6.035   0.776   2.893 -0.1071  0.8602 -0.3058
 9088TIP3    H127228   6.003   0.686   2.889  2.0167 -0.2696  3.3999
 9088TIP3    H227229   6.077   0.790   2.808 -1.0911 -1.3767 -1.2467
 9089TIP3   OH227230   4.925   4.481   5.551  0.4282 -0.4986 -0.0151
 9089TIP3    H127231   4.975   4.556   5.518 -0.0130 -0.2548 -0.1378
 9089TIP3    H227232   4.970   4.404   5.514  1.2692 -0.3313  0.6304
 9090TIP3   OH227233   5.807   4.279   1.074 -0.0282 -0.5351 -0.1700
 9090TIP3    H127234   5.807   4.313   0.984 -0.1703 -0.7268 -0.2455
 9090TIP3    H227235   5.841   4.350   1.127 -0.3630 -0.2601 -0.3206
 9091TIP3   OH227236   6.055   5.884   0.966 -0.5671  0.3318  0.3990
 9091TIP3    H127237   6.034   5.865   1.058 -0.5220  0.7846  0.5026
 9091TIP3    H227238   6.040   5.978   0.956  3.2154  1.1744  0.9953
 9092TIP3   OH227239   0.302   5.064   2.989 -0.5185 -0.3658 -0.4446
 9092TIP3    H127240   0.273   4.996   3.050 -1.2634 -2.3485 -2.8555
 9092TIP3    H227241   0.376   5.023   2.942 -0.2712  0.9121 -1.2059
 9093TIP3   OH227242   2.994   6.389   5.844  0.6962  0.1842 -0.1872
 9093TIP3    H127243   2.919   6.383   5.784  0.3153 -0.8608  0.3713
 9093TIP3    H227244   3.051   6.454   5.804 -0.8743  1.6342 -0.2212
 9094TIP3   OH227245   7.017   2.317   0.210  0.4049  0.1546  0.5422
 9094TIP3    H127246   6.942   2.355   0.255  0.6012  1.5827 -0.2842
 9094TIP3    H227247   7.092   2.338   0.266  0.4940  0.9057  0.1573
 9095TIP3   OH227248   1.013   4.041   4.506  0.3689  0.1884  0.1687
 9095TIP3    H127249   0.941   4.069   4.450  0.8941  0.5409 -0.3442
 9095TIP3    H227250   1.092   4.064   4.456  0.9332  2.4767  1.9136
 9096TIP3   OH227251   0.935   1.075   4.522  0.0110  0.0418 -0.2542
 9096TIP3    H127252   0.914   1.016   4.594  0.0559  0.3726  0.0369
 9096TIP3    H227253   1.031   1.083   4.523 -0.0301  0.5743  0.0863
 9097TIP3   OH227254   5.674   3.361   1.629 -0.3053 -0.5260 -0.1058
 9097TIP3    H127255   5.680   3.291   1.695 -2.4191 -0.5044  0.1864
 9097TIP3    H227256   5.580   3.372   1.615 -0.0672  2.5473  0.1452
 9098TIP3   OH227257   3.203   4.342   5.650  0.7794 -0.0640  0.0874
 9098TIP3    H127258   3.258   4.272   5.685 -1.4995 -1.4856  1.0514
 9098TIP3    H227259   3.231   4.352   5.559  2.4311 -0.8916  0.4781
 9099TIP3   OH227260   2.004   4.431   2.998  0.0863  0.0991  0.4828
 9099TIP3    H127261   2.067   4.476   2.942 -1.1853 -0.0191 -1.1106
 9099TIP3    H227262   1.935   4.496   3.012 -0.3605 -0.3990  0.5853
 9100TIP3   OH227263   6.489   0.819   3.180  0.0362 -0.0955  0.2947
 9100TIP3    H127264   6.502   0.725   3.193 -0.5141 -0.3778 -1.0505
 9100TIP3    H227265   6.395   0.827   3.161 -0.2311  0.9193  1.8495
 9101TIP3   OH227266   3.530   6.237   2.138  0.0257  0.2317  0.0793
 9101TIP3    H127267   3.491   6.188   2.066 -0.3213  0.3900  0.1606
 9101TIP3    H227268   3.484   6.321   2.137 -0.5462 -0.0641  1.0084
 9102TIP3   OH227269   6.180   4.833   4.324  0.2774  0.4934  0.6170
 9102TIP3    H127270   6.237   4.757   4.314 -0.1932  0.1816  0.2465
 9102TIP3    H227271   6.237   4.909   4.309 -0.2594  0.2173 -5.1193
 9103TIP3   OH227272   6.555   3.227   2.291  0.0446 -0.2403 -0.2980
 9103TIP3    H127273   6.466   3.193   2.301  0.4177 -1.5198 -1.0871
 9103TIP3    H227274   6.608   3.172   2.349  0.4459 -0.0381 -0.4705
 9104TIP3   OH227275   2.057   0.638   2.181  0.2959 -0.0569 -0.8067
 9104TIP3    H127276   1.978   0.587   2.160  1.0961 -1.0505 -1.5123
 9104TIP3    H227277   2.067   0.628   2.276  0.0082 -0.5951 -0.8257
 9105TIP3   OH227278   3.792   1.179   3.877  0.7637  0.2703  0.7534
 9105TIP3    H127279   3.833   1.260   3.907  0.7168  0.1980  1.0167
 9105TIP3    H227280   3.718   1.207   3.823  1.3363  0.4036  0.0227
 9106TIP3   OH227281   3.812   0.579   4.673 -0.3312 -0.2299 -0.3064
 9106TIP3    H127282   3.906   0.565   4.662 -0.2479 -0.5425  0.7478
 9106TIP3    H227283   3.771   0.525   4.605  0.2660  0.6148 -1.3744
 9107TIP3   OH227284   1.829   6.397   1.330 -0.0170 -0.0456  0.4171
 9107TIP3    H127285   1.868   6.464   1.274 -0.5541  0.6339  0.8518
 9107TIP3    H227286   1.784   6.445   1.399 -0.8434 -0.8373  0.4491
 9108TIP3   OH227287   2.026   5.703   3.323  0.2967 -0.7600  0.0871
 9108TIP3    H127288   1.932   5.688   3.328  0.2051 -0.7528 -1.3990
 9108TIP3    H227289   2.056   5.693   3.414 -1.0737 -1.0665  0.5317
 9109TIP3   OH227290   6.280   2.049   0.553 -0.7902 -0.4029 -0.5412
 9109TIP3    H127291   6.330   2.001   0.486 -0.4410  1.1236 -1.4257
 9109TIP3    H227292   6.199   2.073   0.509  0.3440  2.5269 -1.2353
 9110TIP3   OH227293   4.191   2.763   0.392  0.1601 -0.4630  0.0337
 9110TIP3    H127294   4.184   2.717   0.475 -0.4408 -0.1076  0.1811
 9110TIP3    H227295   4.196   2.694   0.326 -2.2368 -0.7846  0.1160
 9111TIP3   OH227296   3.841   5.690   0.327  0.9846 -0.1691 -0.3595
 9111TIP3    H127297   3.790   5.624   0.281  0.5096  0.6614 -1.0584
 9111TIP3    H227298   3.919   5.702   0.272  0.9216  0.0702 -0.3977
 9112TIP3   OH227299   1.771   1.232   4.667  0.6062  0.7621  0.3532
 9112TIP3    H127300   1.848   1.197   4.622 -1.3266 -0.1467 -2.5113
 9112TIP3    H227301   1.738   1.158   4.717  0.5844  0.6028  0.1072
 9113TIP3   OH227302   7.143   3.494   0.550  0.2176 -0.5940  0.1283
 9113TIP3    H127303   7.112   3.565   0.605 -0.6827 -1.6649  1.0606
 9113TIP3    H227304   7.157   3.421   0.610 -1.0102 -1.8689 -1.0573
 9114TIP3   OH227305   2.349   0.661   0.058 -0.1102  0.4619  0.1693
 9114TIP3    H127306   2.389   0.689  -0.025 -0.1078  0.5782  0.2090
 9114TIP3    H227307   2.285   0.595   0.032 -0.8993  1.2960 -0.0465
 9115TIP3   OH227308   7.227   0.851   0.623 -0.1235 -0.0967  0.5050
 9115TIP3    H127309   7.140   0.889   0.640 -0.8820 -1.0119 -1.0777
 9115TIP3    H227310   7.219   0.760   0.651 -0.5243 -0.8670 -1.8504
 9116TIP3   OH227311   0.866   0.588   4.934  0.2593 -0.0613 -0.3639
 9116TIP3    H127312   0.803   0.616   5.001  2.3168 -0.3665  1.8470
 9116TIP3    H227313   0.933   0.657   4.934  0.8533 -0.6214 -1.3237
 9117TIP3   OH227314   2.377   5.143   0.356  0.6354 -0.5916 -0.5821
 9117TIP3    H127315   2.387   5.109   0.445  0.6773 -1.3079 -0.8565
 9117TIP3    H227316   2.282   5.155   0.346  0.6998  0.4944 -0.0858
 9118TIP3   OH227317   6.017   3.082   4.355  0.3857  0.0161 -0.5964
 9118TIP3    H127318   6.058   3.000   4.328  0.9686 -0.4672  1.5120
 9118TIP3    H227319   6.046   3.146   4.290  1.8755 -0.9802 -0.9679
 9119TIP3   OH227320   5.845   0.846   1.751  0.2029  0.5571 -0.0096
 9119TIP3    H127321   5.926   0.804   1.724 -0.9769 -1.8174 -0.0604
 9119TIP3    H227322   5.793   0.853   1.671 -0.4916  0.0233  0.3762
 9120TIP3   OH227323   2.799   6.564   3.985 -0.3696  0.6338 -0.0015
 9120TIP3    H127324   2.776   6.487   3.933  1.0481  0.3471 -0.2541
 9120TIP3    H227325   2.716   6.599   4.016 -1.0470 -0.9249 -0.0040
 9121TIP3   OH227326   6.046   2.076   0.373 -0.2299  0.9452 -0.9121
 9121TIP3    H127327   6.064   2.162   0.336  1.1093  0.4827 -1.3962
 9121TIP3    H227328   5.987   2.035   0.310  3.5467 -0.5895 -3.8138
 9122TIP3   OH227329   4.867   5.168   5.104 -0.1180 -0.7196  0.5541
 9122TIP3    H127330   4.955   5.142   5.129 -0.4028 -1.6280  0.6458
 9122TIP3    H227331   4.862   5.152   5.010  0.6584  1.8466  0.0009
 9123TIP3   OH227332   0.454   3.825   4.675  1.0535  0.3100  0.1880
 9123TIP3    H127333   0.538   3.807   4.715  1.3586  1.0273 -0.1091
 9123TIP3    H227334   0.391   3.771   4.723  1.6796 -0.2302  0.4050
 9124TIP3   OH227335   3.370   0.326   4.325  0.2799 -1.0058 -0.1309
 9124TIP3    H127336   3.451   0.277   4.328  0.5958 -0.4668  0.3052
 9124TIP3    H227337   3.397   0.418   4.321 -0.2931 -0.7178  1.6851
 9125TIP3   OH227338   2.962   3.833   2.038 -0.1259  1.1115  0.4236
 9125TIP3    H127339   2.983   3.898   1.971 -0.1872  0.0585 -0.6645
 9125TIP3    H227340   3.035   3.771   2.034 -0.1773  0.9776  1.2886
 9126TIP3   OH227341   2.548   2.870   0.994 -0.1067 -0.2442 -0.0460
 9126TIP3    H127342   2.561   2.965   0.997  0.9250 -0.3903  0.4876
 9126TIP3    H227343   2.555   2.848   0.901 -3.3503  0.5615 -0.5892
 9127TIP3   OH227344   3.648   2.078   0.300 -0.2382  0.2530 -0.1044
 9127TIP3    H127345   3.678   2.161   0.263  1.0014 -0.1094  0.0514
 9127TIP3    H227346   3.623   2.101   0.390 -0.4006  0.5549 -0.2232
 9128TIP3   OH227347   3.560   3.519   2.403  0.3440  0.4881  0.1118
 9128TIP3    H127348   3.469   3.527   2.374 -0.5102  1.0039  2.6934
 9128TIP3    H227349   3.577   3.425   2.402 -0.4590  0.3344  0.2867
 9129TIP3   OH227350   3.888   6.443   3.415 -0.1624  0.2129 -0.6141
 9129TIP3    H127351   3.920   6.507   3.480  1.7844  1.3635 -2.5560
 9129TIP3    H227352   3.796   6.467   3.402  0.2492  2.0231 -0.5569
 9130TIP3   OH227353   3.724   4.967   5.249  0.0354 -0.1619  0.5114
 9130TIP3    H127354   3.712   4.877   5.279 -0.4263 -0.4608 -0.5236
 9130TIP3    H227355   3.759   4.959   5.161 -2.0170  0.6270 -0.4366
 9131TIP3   OH227356   4.791   1.701   0.616 -0.0720 -0.3723  0.0526
 9131TIP3    H127357   4.731   1.670   0.547 -0.1263 -1.5966  0.6224
 9131TIP3    H227358   4.866   1.642   0.611 -0.1903 -0.6461  1.1924
 9132TIP3   OH227359   6.474   3.911   5.398 -0.1694 -0.2428 -0.3094
 9132TIP3    H127360   6.542   3.844   5.397  0.7020  0.6190 -0.9718
 9132TIP3    H227361   6.425   3.896   5.479  0.1874 -1.4826 -0.3081
 9133TIP3   OH227362   2.607   2.045   3.711  0.6109  0.1979 -0.1659
 9133TIP3    H127363   2.662   2.097   3.653  0.7036 -0.5206 -0.7486
 9133TIP3    H227364   2.650   1.959   3.714  0.4307  0.1301  0.7153
 9134TIP3   OH227365   4.736   3.326   3.620  0.4523 -0.1484 -0.6606
 9134TIP3    H127366   4.767   3.281   3.541 -0.2996 -0.9483 -0.5056
 9134TIP3    H227367   4.760   3.268   3.692 -0.6554 -0.3835 -0.4722
 9135TIP3   OH227368   1.971   3.080   0.699 -0.2514  0.1415 -0.1995
 9135TIP3    H127369   1.967   2.999   0.751 -2.1922  0.0291 -0.4423
 9135TIP3    H227370   1.978   3.150   0.763 -1.0367 -0.0953  0.1625
 9136TIP3   OH227371   4.179   3.728   5.325 -0.4798 -0.0114 -0.5336
 9136TIP3    H127372   4.216   3.725   5.237 -0.7131  0.2776 -0.6416
 9136TIP3    H227373   4.222   3.656   5.371 -0.3070 -0.1213 -0.8627
 9137TIP3   OH227374   6.273   6.632   1.602  0.7133 -0.4861  0.2471
 9137TIP3    H127375   6.194   6.685   1.590  1.5811  1.0144  0.8821
 9137TIP3    H227376   6.278   6.617   1.696  0.5653 -1.6077  0.0930
 9138TIP3   OH227377   3.463   0.853   2.171 -0.2989  0.2336 -0.3780
 9138TIP3    H127378   3.397   0.913   2.136 -3.2723 -1.7377  1.3952
 9138TIP3    H227379   3.505   0.902   2.242 -0.8163  1.0824 -0.6466
 9139TIP3   OH227380   2.913   6.225   0.621 -0.0305  0.2479  0.3196
 9139TIP3    H127381   2.984   6.187   0.673  0.1330 -0.0902 -0.1463
 9139TIP3    H227382   2.951   6.240   0.535 -0.8157 -0.9969 -0.2775
 9140TIP3   OH227383   3.556   1.139   3.275 -0.0812  0.1826 -0.0457
 9140TIP3    H127384   3.555   1.187   3.358  1.1264  1.3434 -0.6626
 9140TIP3    H227385   3.465   1.140   3.245 -0.5031 -0.1049  1.1543
 9141TIP3   OH227386   3.255   4.746   0.771  0.2133 -0.0736  0.2515
 9141TIP3    H127387   3.227   4.788   0.689  0.2650 -0.7815 -0.1347
 9141TIP3    H227388   3.192   4.676   0.785  1.9172 -1.9230 -0.8288
 9142TIP3   OH227389   2.821   3.370   2.608  0.1890 -0.1675 -0.2006
 9142TIP3    H127390   2.729   3.346   2.596 -0.8444  1.8130  2.6566
 9142TIP3    H227391   2.820   3.465   2.619  2.7170 -0.0072 -0.7694
 9143TIP3   OH227392   4.939   3.385   2.802 -0.3194  0.3069 -1.0676
 9143TIP3    H127393   4.950   3.474   2.770  0.7647  0.0278 -1.5051
 9143TIP3    H227394   4.908   3.395   2.892  1.4028  1.1685 -0.5273
 9144TIP3   OH227395   1.462   1.147   5.517 -0.0341 -0.1101  0.1471
 9144TIP3    H127396   1.411   1.221   5.484  1.0476 -0.2591 -2.0237
 9144TIP3    H227397   1.407   1.109   5.586 -1.5962  1.3596 -0.2132
 9145TIP3   OH227398   1.826   4.266   2.917  0.4043  0.1580 -0.6171
 9145TIP3    H127399   1.794   4.239   3.004  1.8713  0.2867 -0.0184
 9145TIP3    H227400   1.908   4.312   2.935  0.5027  0.5788 -2.0537
 9146TIP3   OH227401   3.164   2.516   5.194  0.0974  0.0169  0.2406
 9146TIP3    H127402   3.126   2.495   5.108  1.2111 -0.2604 -0.1990
 9146TIP3    H227403   3.093   2.500   5.256 -0.4900 -0.5471 -0.5531
 9147TIP3   OH227404   0.144   5.983   3.079  0.3793  0.0409 -0.5229
 9147TIP3    H127405   0.196   5.944   3.009  0.8076 -0.8652  0.2650
 9147TIP3    H227406   0.192   6.062   3.104  1.7427 -1.0586  0.5562
 9148TIP3   OH227407   2.215   0.716   2.852 -0.2778  0.4024  0.1136
 9148TIP3    H127408   2.187   0.803   2.879 -0.2384  0.3690  0.2630
 9148TIP3    H227409   2.239   0.727   2.760  1.4867  0.9881  0.5920
 9149TIP3   OH227410   4.401   2.526   2.967 -0.3813 -0.2933  0.0503
 9149TIP3    H127411   4.451   2.463   2.916  0.4547  0.3367  0.0704
 9149TIP3    H227412   4.349   2.473   3.027  0.6330 -0.9548  0.3621
 9150TIP3   OH227413   3.991   0.406   4.450  0.8006 -0.2190 -0.0612
 9150TIP3    H127414   4.046   0.479   4.422 -1.2047  2.0173  1.4250
 9150TIP3    H227415   4.053   0.337   4.475  2.7452  0.0308 -3.5464
 9151TIP3   OH227416   6.974   5.212   5.577 -0.1084 -0.3920  0.0517
 9151TIP3    H127417   7.012   5.300   5.582 -0.3187 -0.3561  1.1941
 9151TIP3    H227418   7.050   5.153   5.581 -0.1063 -0.3056  1.7168
 9152TIP3   OH227419   1.053   0.339   1.380 -0.2935 -0.6983  0.3940
 9152TIP3    H127420   1.075   0.431   1.390 -0.0490 -0.7192  0.0757
 9152TIP3    H227421   0.996   0.319   1.454  0.6197 -0.5893  1.1422
 9153TIP3   OH227422   6.560   3.538   5.689  0.0169 -0.4633  0.0028
 9153TIP3    H127423   6.538   3.568   5.777 -0.2238  0.8552 -0.4914
 9153TIP3    H227424   6.654   3.554   5.680  1.5125 -5.8464  2.0151
 9154TIP3   OH227425   1.153   5.215   0.980 -0.5484  0.2590  0.0652
 9154TIP3    H127426   1.094   5.266   1.034 -1.9966 -0.7629 -0.4813
 9154TIP3    H227427   1.100   5.189   0.905  0.4856 -1.0007 -0.2640
 9155TIP3   OH227428   4.050   5.751   4.812  0.1786 -0.1413  0.5274
 9155TIP3    H127429   4.008   5.827   4.850 -0.8440 -1.0892  1.3506
 9155TIP3    H227430   3.988   5.679   4.825  0.9614 -1.0551 -0.5225
 9156TIP3   OH227431   6.838   3.833   2.066 -0.5487  0.0663 -0.3395
 9156TIP3    H127432   6.747   3.804   2.073 -1.0652  1.8175  0.6614
 9156TIP3    H227433   6.835   3.928   2.075  1.3935  0.1711 -0.2196
 9157TIP3   OH227434   0.330   2.802   0.696  0.5729 -0.1046  0.1097
 9157TIP3    H127435   0.356   2.843   0.613 -1.3450  0.6472 -0.1598
 9157TIP3    H227436   0.369   2.859   0.763 -0.5190  1.1297 -0.2789
 9158TIP3   OH227437   6.183   2.880   1.710 -0.1191 -0.1492 -0.1763
 9158TIP3    H127438   6.218   2.833   1.634  2.2531  0.8669  0.1954
 9158TIP3    H227439   6.093   2.901   1.686  0.1806 -0.9445 -2.1864
 9159TIP3   OH227440   5.311   3.106   5.143 -0.4370  0.4792 -0.1393
 9159TIP3    H127441   5.218   3.096   5.123 -0.7484  2.8489 -0.2202
 9159TIP3    H227442   5.355   3.100   5.058 -0.7648  1.3068 -0.3812
 9160TIP3   OH227443   1.574   1.644   3.034 -0.1085 -0.5481  0.0119
 9160TIP3    H127444   1.524   1.713   2.990 -1.0043 -0.6583  0.8350
 9160TIP3    H227445   1.600   1.585   2.964 -2.4045 -1.2830 -0.2989
 9161TIP3   OH227446   6.965   2.485   1.473 -0.4779  0.2264  0.7025
 9161TIP3    H127447   6.965   2.458   1.565  0.0720  0.3721  0.7539
 9161TIP3    H227448   6.909   2.422   1.429  0.5344 -0.8252  0.8704
 9162TIP3   OH227449   1.970   6.531   2.296 -0.4470 -0.7135  0.1209
 9162TIP3    H127450   1.954   6.569   2.382 -1.5781 -0.3669 -0.2376
 9162TIP3    H227451   1.906   6.460   2.289 -1.2488  0.0945 -0.9511
 9163TIP3   OH227452   4.774   0.747   4.614  0.8876  0.5399  0.0410
 9163TIP3    H127453   4.692   0.748   4.663  0.2442 -0.4877 -0.9745
 9163TIP3    H227454   4.749   0.767   4.524  1.6586 -0.3500 -0.3941
 9164TIP3   OH227455   0.854   0.804   2.444 -0.1605  0.2424 -0.4713
 9164TIP3    H127456   0.886   0.890   2.416 -0.3943  0.5300  0.1386
 9164TIP3    H227457   0.884   0.795   2.534  1.6387 -1.1976 -1.1273
 9165TIP3   OH227458   6.475   0.304   1.499  0.2239 -0.3299 -0.0118
 9165TIP3    H127459   6.442   0.268   1.581 -0.7196  1.0190  0.2335
 9165TIP3    H227460   6.462   0.399   1.507  0.8523 -0.1054 -1.3899
 9166TIP3   OH227461   4.354   6.552   3.421  0.0518  0.2025  0.3636
 9166TIP3    H127462   4.356   6.456   3.426 -0.5138 -0.0612 -2.8224
 9166TIP3    H227463   4.445   6.577   3.402  0.0578  0.2646  0.4687
 9167TIP3   OH227464   5.134   0.086   3.473 -0.1628  0.0647 -0.8343
 9167TIP3    H127465   5.059   0.077   3.532 -0.8661  0.6253 -1.6228
 9167TIP3    H227466   5.132   0.007   3.418 -1.5976  1.1255 -2.4143
 9168TIP3   OH227467   1.306   6.636   2.079 -0.2053  0.4403  0.0180
 9168TIP3    H127468   1.305   6.693   2.002 -3.0718  0.5047  0.0014
 9168TIP3    H227469   1.329   6.550   2.045  1.3500  0.9893 -0.4084
 9169TIP3   OH227470   0.422   2.201   3.894  0.0575  0.2283 -0.2739
 9169TIP3    H127471   0.464   2.116   3.911  3.2794  2.0663  2.2742
 9169TIP3    H227472   0.387   2.227   3.979 -3.5494  0.3400 -1.6237
 9170TIP3   OH227473   3.015   6.618   1.263  0.0745  0.1509  0.0401
 9170TIP3    H127474   2.922   6.630   1.284  0.2479  0.9960  0.3820
 9170TIP3    H227475   3.041   6.542   1.314 -0.4202 -0.0642 -0.0187
 9171TIP3   OH227476   0.381   2.714   2.238 -0.2862  0.3641 -0.4139
 9171TIP3    H127477   0.419   2.649   2.179  2.2348  1.1905  0.2092
 9171TIP3    H227478   0.408   2.798   2.202 -0.7706  0.9654  0.5783
 9172TIP3   OH227479   3.083   4.296   2.478 -0.0752  0.2807 -0.6357
 9172TIP3    H127480   3.105   4.212   2.517  1.2743  0.8694 -0.0604
 9172TIP3    H227481   3.043   4.346   2.549  0.4783  0.6225 -0.5546
 9173TIP3   OH227482   0.548   1.575   5.750  0.3270 -0.7154  0.1916
 9173TIP3    H127483   0.627   1.613   5.710 -0.4467 -0.0346 -0.7410
 9173TIP3    H227484   0.501   1.536   5.676 -0.3593 -0.8513  0.6947
 9174TIP3   OH227485   5.798   6.554   2.026 -0.6024  0.6165  0.2574
 9174TIP3    H127486   5.879   6.536   2.074 -1.0642  1.7275  1.5179
 9174TIP3    H227487   5.776   6.471   1.984  1.2389  0.3182 -0.2096
 9175TIP3   OH227488   0.535   6.091   3.156 -0.3917 -0.0959  0.3098
 9175TIP3    H127489   0.494   6.027   3.099  0.9415  0.5340 -1.4381
 9175TIP3    H227490   0.550   6.167   3.100  0.5786  0.7198  1.6135
 9176TIP3   OH227491   5.028   5.920   0.414 -0.2871  0.1674 -0.5378
 9176TIP3    H127492   4.999   5.987   0.476  0.9547 -0.0107  0.2683
 9176TIP3    H227493   5.103   5.960   0.370  0.2447 -0.5715 -0.2976
 9177TIP3   OH227494   3.361   6.012   2.979  0.0100 -0.1481 -0.0825
 9177TIP3    H127495   3.311   6.017   3.060 -0.6809  0.2912 -0.5272
 9177TIP3    H227496   3.335   6.090   2.929  1.9962  0.7451  0.1544
 9178TIP3   OH227497   0.378   4.296   5.111  0.0768  0.0113 -0.0425
 9178TIP3    H127498   0.338   4.233   5.050 -0.2424  0.0831  0.0917
 9178TIP3    H227499   0.345   4.381   5.083 -0.8854 -0.0466  0.8523
 9179TIP3   OH227500   5.658   2.079   1.987  0.1782 -0.0939  0.1033
 9179TIP3    H127501   5.566   2.105   1.982  0.2097  0.2080  0.9311
 9179TIP3    H227502   5.660   2.010   2.053  0.3922 -0.8576 -0.6920
 9180TIP3   OH227503   4.532   4.118   3.251 -0.0905  0.5707  0.0586
 9180TIP3    H127504   4.561   4.093   3.164  0.2661  1.7756 -0.1936
 9180TIP3    H227505   4.438   4.100   3.251 -0.2346  1.2672 -0.8465
 9181TIP3   OH227506   4.332   1.136   5.834 -0.0277  0.5223 -0.0768
 9181TIP3    H127507   4.397   1.087   5.885 -2.2140 -1.0283  1.4099
 9181TIP3    H227508   4.291   1.194   5.897 -0.4231  1.1344 -0.8816
 9182TIP3   OH227509   3.119   3.072   2.650 -0.2281 -0.1423  0.4631
 9182TIP3    H127510   3.107   3.152   2.702 -1.6933  0.6876 -1.0449
 9182TIP3    H227511   3.034   3.058   2.609  0.1002 -2.3302  0.4446
 9183TIP3   OH227512   4.210   6.020   0.467 -0.3083  0.3467  0.4444
 9183TIP3    H127513   4.244   6.105   0.441 -1.6686  0.8649  0.2933
 9183TIP3    H227514   4.254   6.001   0.550  1.6442  0.1501 -0.5718
 9184TIP3   OH227515   5.827   4.418   5.234 -0.5405 -0.3537 -0.7457
 9184TIP3    H127516   5.760   4.421   5.166 -0.6682  1.8611 -0.5857
 9184TIP3    H227517   5.905   4.387   5.189 -1.0127 -0.4173 -1.5431
 9185TIP3   OH227518   1.883   5.927   0.473 -0.3254 -0.2241 -0.0999
 9185TIP3    H127519   1.803   5.881   0.446  1.1611 -1.5524 -2.6331
 9185TIP3    H227520   1.895   5.901   0.565 -2.4473 -0.4876  0.1510
 9186TIP3   OH227521   0.256   3.779   4.861 -0.5585 -0.3504  0.3142
 9186TIP3    H127522   0.279   3.697   4.903  1.5579  0.0696  0.0966
 9186TIP3    H227523   0.314   3.844   4.901  0.2902  0.3869 -1.9549
 9187TIP3   OH227524   0.439   4.257   2.391  0.2062  0.9276 -0.0577
 9187TIP3    H127525   0.361   4.306   2.363  0.7496  1.1487 -1.2351
 9187TIP3    H227526   0.405   4.174   2.423 -0.6286  1.5697  0.7685
 9188TIP3   OH227527   4.046   5.205   0.700 -0.2294 -0.0010  0.1766
 9188TIP3    H127528   4.006   5.292   0.702  1.5073  0.8193  0.6906
 9188TIP3    H227529   4.037   5.173   0.790  0.2201  0.1722  0.2855
 9189TIP3   OH227530   1.996   3.168   4.979  0.4120 -0.3349  0.3129
 9189TIP3    H127531   2.070   3.207   5.025  1.1416  0.2450 -1.3032
 9189TIP3    H227532   1.919   3.199   5.028  1.1653 -0.2268  1.4809
 9190TIP3   OH227533   3.757   4.967   3.730  0.7781  0.1019 -0.5888
 9190TIP3    H127534   3.749   4.914   3.651 -0.0137 -0.4563 -0.1358
 9190TIP3    H227535   3.781   4.905   3.799 -1.1679  0.1279  0.1632
 9191TIP3   OH227536   6.172   2.244   5.873  0.4876 -0.1986  0.4481
 9191TIP3    H127537   6.225   2.321   5.851  0.2292  0.6428  2.5799
 9191TIP3    H227538   6.100   2.278   5.925  0.4977 -1.9041  1.6660
 9192TIP3   OH227539   1.448   0.932   0.906  0.4693  0.1882  0.3059
 9192TIP3    H127540   1.404   0.874   0.843  1.1055 -0.0390  0.0653
 9192TIP3    H227541   1.468   1.011   0.855 -0.7708  0.8165  0.7374
 9193TIP3   OH227542   1.481   3.464   2.288 -0.3870 -0.2594  0.4162
 9193TIP3    H127543   1.475   3.534   2.223 -0.0496 -1.5341 -1.0415
 9193TIP3    H227544   1.391   3.450   2.317 -0.5598  0.2173  0.1178
 9194TIP3   OH227545   3.680   0.150   5.628 -0.0326  0.8614  0.2271
 9194TIP3    H127546   3.723   0.089   5.688  0.7711  2.3934  1.3133
 9194TIP3    H227547   3.752   0.186   5.575 -0.3963  1.2631 -0.0028
 9195TIP3   OH227548   6.280   4.537   2.480 -0.1465 -0.0855  0.1070
 9195TIP3    H127549   6.351   4.506   2.535 -1.0412 -1.1342  0.7216
 9195TIP3    H227550   6.201   4.521   2.532 -0.7835  2.1549 -0.0411
 9196TIP3   OH227551   5.035   0.035   3.733  0.5394 -0.0636 -0.0453
 9196TIP3    H127552   5.045  -0.061   3.733 -1.5859 -0.3468 -0.6124
 9196TIP3    H227553   5.116   0.068   3.772  2.0678 -2.0017 -1.3431
 9197TIP3   OH227554   1.095   6.718   0.599 -0.0885 -0.0562 -0.1254
 9197TIP3    H127555   1.111   6.797   0.548 -0.1664  0.3971  0.5459
 9197TIP3    H227556   1.105   6.646   0.536 -0.2011  0.4944 -0.7796
 9198TIP3   OH227557   2.912   1.053   1.040 -0.1559 -0.5224  0.2955
 9198TIP3    H127558   2.887   0.994   0.970 -0.1198 -0.3639  0.1482
 9198TIP3    H227559   2.905   1.141   1.001  3.3828 -0.5286 -0.6577
 9199TIP3   OH227560   0.450   0.286   4.498 -0.1429 -0.3135  0.0161
 9199TIP3    H127561   0.499   0.326   4.569 -1.6641  0.6161  0.5812
 9199TIP3    H227562   0.386   0.230   4.541 -1.0900  0.2674 -0.5985
 9200TIP3   OH227563   0.311   5.387   3.428 -0.6002 -0.0674  0.4749
 9200TIP3    H127564   0.279   5.474   3.450 -1.6032 -0.0076 -1.0676
 9200TIP3    H227565   0.299   5.380   3.333 -0.0116 -1.6765  0.4816
 9201TIP3   OH227566   5.143   1.912   4.209  0.2512  0.4174  0.2457
 9201TIP3    H127567   5.207   1.881   4.144  0.2989 -0.2249  0.5925
 9201TIP3    H227568   5.106   1.832   4.246 -1.3684  0.7732 -0.5312
 9202TIP3   OH227569   0.835   1.050   0.891 -0.0502 -0.2649  0.2071
 9202TIP3    H127570   0.911   1.069   0.947 -0.9174  0.5966  1.1408
 9202TIP3    H227571   0.865   1.070   0.803  0.3255  1.7300  0.7326
 9203TIP3   OH227572   4.257   6.269   4.453  0.3439 -0.1424 -0.2631
 9203TIP3    H127573   4.279   6.177   4.467 -1.5176 -0.4149  1.3307
 9203TIP3    H227574   4.326   6.302   4.395  1.5482 -2.2943 -0.1562
 9204TIP3   OH227575   6.068   4.964   0.007 -0.0211  0.0906 -0.6306
 9204TIP3    H127576   5.985   5.001  -0.025 -0.4065 -0.4826 -0.3254
 9204TIP3    H227577   6.101   5.031   0.067  0.1420  0.6728 -1.3555
 9205TIP3   OH227578   5.345   5.239   4.511 -0.5484 -0.3004 -0.0478
 9205TIP3    H127579   5.404   5.269   4.580 -1.9313  0.4411  0.8562
 9205TIP3    H227580   5.401   5.227   4.435  1.2880 -2.5245  1.5281
 9206TIP3   OH227581   5.768   1.743   5.560 -0.4272  0.1636 -0.0774
 9206TIP3    H127582   5.798   1.702   5.641 -0.7163 -0.5460 -0.3215
 9206TIP3    H227583   5.835   1.808   5.539 -0.3581  0.3603  0.7352
 9207TIP3   OH227584   5.927   1.402   2.648  0.7922  0.4098  0.5881
 9207TIP3    H127585   5.861   1.427   2.712  1.5907  1.1779  1.1231
 9207TIP3    H227586   5.966   1.322   2.683 -1.7289 -1.7305 -1.1005
 9208TIP3   OH227587   4.316   6.189   5.351  0.2861  0.1753 -0.2635
 9208TIP3    H127588   4.272   6.261   5.305 -0.2171  0.6681  0.9471
 9208TIP3    H227589   4.404   6.186   5.312 -0.0725  0.6737 -1.1362
 9209TIP3   OH227590   2.533   2.439   4.927  0.3433 -0.2803 -0.3963
 9209TIP3    H127591   2.614   2.440   4.875  0.1589  0.4636 -0.6839
 9209TIP3    H227592   2.464   2.422   4.864  0.0239  1.4351 -0.5724
 9210TIP3   OH227593   3.697   5.326   2.204  0.2184  0.4347 -0.0532
 9210TIP3    H127594   3.627   5.293   2.261  0.3459  1.0300  0.4542
 9210TIP3    H227595   3.768   5.350   2.264  0.1518  1.5859 -0.4085
 9211TIP3   OH227596   1.747   2.205   0.775 -0.0431 -0.0119  0.1767
 9211TIP3    H127597   1.759   2.114   0.749  0.3912 -0.1923  1.0128
 9211TIP3    H227598   1.652   2.216   0.776 -0.0922 -0.2406 -0.6228
 9212TIP3   OH227599   2.114   1.816   2.316  0.1768 -0.2077  0.6776
 9212TIP3    H127600   2.026   1.795   2.346  0.1512  1.5881  2.0215
 9212TIP3    H227601   2.103   1.892   2.260  0.8211 -0.2299  0.5139
 9213TIP3   OH227602   0.155   2.587   3.561 -0.2066  0.1006 -0.4692
 9213TIP3    H127603   0.113   2.673   3.551 -0.4110  0.1495  0.7101
 9213TIP3    H227604   0.086   2.524   3.540 -0.4353  0.2093 -0.0537
 9214TIP3   OH227605   3.152   2.658   0.904  0.4129  0.2292 -0.1190
 9214TIP3    H127606   3.078   2.708   0.937 -1.2887 -1.7499 -0.6404
 9214TIP3    H227607   3.221   2.669   0.969 -1.3903 -0.2495  1.9992
 9215TIP3   OH227608   4.762   0.328   3.147  0.2965 -0.3576 -0.4432
 9215TIP3    H127609   4.765   0.424   3.145  0.5660 -0.3216 -3.1507
 9215TIP3    H227610   4.839   0.302   3.197 -0.9806  0.7638  2.3342
 9216TIP3   OH227611   5.548   4.117   4.813 -0.4372  0.0030  0.2579
 9216TIP3    H127612   5.578   4.207   4.804  0.7694 -0.5109 -1.4759
 9216TIP3    H227613   5.618   4.064   4.775 -2.5198 -1.4180 -1.9686
 9217TIP3   OH227614   6.250   4.569   5.554 -0.4804 -0.7499 -0.1631
 9217TIP3    H127615   6.299   4.488   5.569 -0.0419 -0.6188 -0.8341
 9217TIP3    H227616   6.278   4.598   5.467  1.0669  1.2925  0.9365
 9218TIP3   OH227617   0.130   3.639   3.187 -0.6307 -0.3983  0.3639
 9218TIP3    H127618   0.089   3.707   3.134  1.0092 -0.7308 -1.4345
 9218TIP3    H227619   0.056   3.594   3.229 -1.8603  1.1286 -0.0596
 9219TIP3   OH227620   0.866   4.334   0.827 -0.5425  0.0238 -0.2947
 9219TIP3    H127621   0.803   4.377   0.769  0.0981  1.9384  0.3548
 9219TIP3    H227622   0.947   4.383   0.815 -0.9610  2.1757  3.9018
 9220TIP3   OH227623   0.363   5.502   4.304 -0.0751  0.3945  0.2726
 9220TIP3    H127624   0.359   5.562   4.229  0.1867  0.8637  0.6231
 9220TIP3    H227625   0.445   5.526   4.348  0.3168 -0.6070  0.1014
 9221TIP3   OH227626   1.406   3.760   5.670 -0.1775  0.2182  0.2352
 9221TIP3    H127627   1.484   3.802   5.634 -0.3985 -0.2173 -0.7819
 9221TIP3    H227628   1.402   3.791   5.760  0.7461  0.8412  0.0789
 9222TIP3   OH227629   6.631   3.691   1.271  0.0035  0.4619  0.5741
 9222TIP3    H127630   6.639   3.610   1.222  0.6277  0.8239  0.0581
 9222TIP3    H227631   6.539   3.717   1.260  0.3252  1.0061 -1.1987
 9223TIP3   OH227632   3.478   6.589   3.090 -0.2966  0.1434  0.4783
 9223TIP3    H127633   3.425   6.530   3.037  0.1062 -0.9586  1.2793
 9223TIP3    H227634   3.566   6.551   3.090 -0.1474  0.4517  1.4303
 9224TIP3   OH227635   6.376   2.115   0.065  0.4436 -0.2424 -0.5518
 9224TIP3    H127636   6.399   2.165  -0.013 -2.1269  0.4728 -0.9360
 9224TIP3    H227637   6.353   2.029   0.032 -1.9468  0.4454 -0.8322
 9225TIP3   OH227638   4.764   1.105   3.617 -0.3533 -1.3421 -0.2857
 9225TIP3    H127639   4.741   1.160   3.691  0.0430 -1.5335 -0.0166
 9225TIP3    H227640   4.689   1.047   3.604 -0.9807 -0.4170 -0.8806
 9226TIP3   OH227641   3.056   5.998   0.017  0.4729  0.2416 -0.0474
 9226TIP3    H127642   3.133   6.046   0.048  0.0729  0.8799 -0.0175
 9226TIP3    H227643   3.001   5.989   0.094  0.2683  0.2740 -0.1895
 9227TIP3   OH227644   1.287   3.478   3.679  0.0303 -0.6205  0.2304
 9227TIP3    H127645   1.365   3.423   3.683  0.8750  0.5567  0.4959
 9227TIP3    H227646   1.262   3.491   3.771  0.0243 -0.2944  0.1823
 9228TIP3   OH227647   3.890   2.862   5.459  0.8247 -0.2931 -0.3084
 9228TIP3    H127648   3.926   2.949   5.477 -0.8617 -0.0735  2.5779
 9228TIP3    H227649   3.922   2.808   5.530 -2.0819 -0.7513  0.7886
 9229TIP3   OH227650   2.506   3.756   0.153 -0.2195  0.1688  0.7458
 9229TIP3    H127651   2.432   3.742   0.212 -0.2117 -1.3254  0.4435
 9229TIP3    H227652   2.468   3.797   0.075 -0.7270 -0.5000  0.6353
 9230TIP3   OH227653   0.502   0.440   5.608 -0.3786 -0.1659  0.1454
 9230TIP3    H127654   0.422   0.436   5.662  0.4423  0.3881  1.4504
 9230TIP3    H227655   0.571   0.407   5.665  0.3989 -0.3153 -0.8560
 9231TIP3   OH227656   3.373   0.789   4.803 -0.4394 -0.3537  0.5048
 9231TIP3    H127657   3.366   0.820   4.893 -2.2831  1.0140 -0.0602
 9231TIP3    H227658   3.322   0.851   4.752  1.7490 -0.2402 -1.7240
 9232TIP3   OH227659   0.407   3.911   3.284  0.2428 -0.0900 -0.4423
 9232TIP3    H127660   0.421   3.988   3.228  0.3974  0.8804  0.8875
 9232TIP3    H227661   0.494   3.876   3.299  0.2992  0.1926 -0.0853
 9233TIP3   OH227662   0.798   4.252   5.362 -0.4471  0.4230 -0.3747
 9233TIP3    H127663   0.722   4.304   5.336 -1.1593  0.7367  2.0891
 9233TIP3    H227664   0.766   4.162   5.364  0.1363  0.1155 -2.2670
 9234TIP3   OH227665   3.137   3.689   0.826 -0.2673 -0.0704 -0.6800
 9234TIP3    H127666   3.082   3.716   0.753 -0.4713  0.2228 -0.4165
 9234TIP3    H227667   3.192   3.619   0.790 -1.9516 -1.5368 -0.5205
 9235TIP3   OH227668   4.782   6.675   1.859  0.1898 -0.0536 -0.2914
 9235TIP3    H127669   4.849   6.740   1.835 -1.2010  1.0592 -1.3777
 9235TIP3    H227670   4.706   6.728   1.883  0.1515 -1.2401  2.5925
 9236TIP3   OH227671   3.435   3.702   3.118  1.2569 -0.1730  0.1642
 9236TIP3    H127672   3.404   3.706   3.209  2.2148  1.3298  0.4731
 9236TIP3    H227673   3.519   3.749   3.120  2.1297 -1.5909 -1.1753
 9237TIP3   OH227674   1.002   4.415   0.243 -0.1303  0.2019  0.0683
 9237TIP3    H127675   1.013   4.322   0.261  0.1715  0.3520  0.6976
 9237TIP3    H227676   1.065   4.435   0.175 -1.5967 -0.4795 -1.5734
 9238TIP3   OH227677   6.958   6.130   4.624 -0.8612  0.4275 -0.1652
 9238TIP3    H127678   6.963   6.160   4.715  1.7079 -0.0883 -0.0582
 9238TIP3    H227679   6.876   6.082   4.619 -0.9982  0.3445  1.9431
 9239TIP3   OH227680   3.022   0.230   0.934  0.0368 -0.0500 -0.1078
 9239TIP3    H127681   3.091   0.191   0.880 -0.3596 -0.0702 -0.6013
 9239TIP3    H227682   2.952   0.252   0.873  0.4393  1.9219  0.0518
 9240TIP3   OH227683   5.192   0.474   4.949  0.8705 -0.0485 -0.2193
 9240TIP3    H127684   5.122   0.512   5.001 -1.1719 -1.4699 -1.7711
 9240TIP3    H227685   5.262   0.456   5.012 -1.0359 -0.6534  1.8272
 9241TIP3   OH227686   2.204   4.752   4.495  0.4633 -0.1275 -0.4515
 9241TIP3    H127687   2.126   4.801   4.525 -0.1096 -0.6418 -1.0843
 9241TIP3    H227688   2.266   4.761   4.568 -0.4803 -0.3781  0.4161
 9242TIP3   OH227689   3.307   5.199   1.523 -0.7387  0.3584  0.4338
 9242TIP3    H127690   3.401   5.215   1.535 -0.7580 -0.3204  1.6037
 9242TIP3    H227691   3.295   5.201   1.428  0.1751  1.9749  0.3157
 9243TIP3   OH227692   0.459   6.386   2.103  0.1756 -0.2286  0.3480
 9243TIP3    H127693   0.401   6.455   2.070 -0.8170 -1.3052 -0.2177
 9243TIP3    H227694   0.509   6.428   2.173 -0.9147  0.8697  0.4989
 9244TIP3   OH227695   4.659   4.376   5.768  0.0681 -0.2322  0.1015
 9244TIP3    H127696   4.574   4.339   5.747 -0.1171 -0.8162  1.7222
 9244TIP3    H227697   4.687   4.329   5.847  2.0739 -0.3225 -0.6110
 9245TIP3   OH227698   2.666   4.057   2.708 -0.7832  0.6016 -0.1048
 9245TIP3    H127699   2.757   4.031   2.723 -0.3589  2.2111  0.3093
 9245TIP3    H227700   2.617   4.011   2.775 -0.6860 -2.2541 -1.8266
 9246TIP3   OH227701   6.237   5.152   2.492  0.3556  0.3407 -0.6733
 9246TIP3    H127702   6.156   5.202   2.490  0.4247  0.4338 -1.1085
 9246TIP3    H227703   6.213   5.066   2.456  0.0431 -0.2417  0.8106
 9247TIP3   OH227704   4.097   2.794   2.450 -0.4741  0.1814 -0.0120
 9247TIP3    H127705   4.001   2.787   2.447 -0.6365  2.1261 -0.4558
 9247TIP3    H227706   4.119   2.772   2.540 -1.1655 -1.7788 -0.2692
 9248TIP3   OH227707   3.183   5.326   3.220 -0.1244 -0.4800  0.2979
 9248TIP3    H127708   3.124   5.344   3.293 -1.6140  0.2801 -1.0405
 9248TIP3    H227709   3.249   5.395   3.224 -1.0478  0.4446  0.0890
 9249TIP3   OH227710   6.969   6.192   4.884 -0.2722 -0.5108  0.1665
 9249TIP3    H127711   6.920   6.240   4.951  0.3062  0.2509  0.0552
 9249TIP3    H227712   7.017   6.124   4.933  1.6604  1.2313  0.8291
 9250TIP3   OH227713   6.741   2.624   0.007 -0.0660 -0.1457  0.5121
 9250TIP3    H127714   6.817   2.628  -0.052 -0.4305 -2.0126 -0.1328
 9250TIP3    H227715   6.778   2.640   0.094  0.1462  5.3303 -0.2267
 9251TIP3   OH227716   5.882   4.480   3.346 -0.5075 -0.1056  0.0247
 9251TIP3    H127717   5.873   4.405   3.287 -3.1637 -0.5188  0.8092
 9251TIP3    H227718   5.942   4.539   3.301 -1.0446 -1.1849 -2.2452
 9252TIP3   OH227719   6.482   2.946   4.561 -0.0660  0.9818  0.3644
 9252TIP3    H127720   6.442   3.032   4.579 -0.9439  0.4270  1.1894
 9252TIP3    H227721   6.576   2.963   4.557 -0.3345  2.3259 -1.5779
 9253TIP3   OH227722   3.645   1.402   3.722  0.5600 -0.0703 -0.3709
 9253TIP3    H127723   3.640   1.399   3.818 -0.3760 -2.6678 -0.4303
 9253TIP3    H227724   3.564   1.444   3.695 -0.1743 -1.2268 -0.0398
 9254TIP3   OH227725   1.177   0.575   1.260  0.2067 -0.1018  0.5713
 9254TIP3    H127726   1.113   0.635   1.299 -0.8858 -1.2469  0.6181
 9254TIP3    H227727   1.229   0.630   1.201 -0.3422  1.0010  1.0806
 9255TIP3   OH227728   0.885   6.535   3.469  0.0048  0.3134  0.3709
 9255TIP3    H127729   0.866   6.599   3.400  1.0171  1.4015  1.0606
 9255TIP3    H227730   0.852   6.452   3.435 -1.5112  1.2272 -0.4785
 9256TIP3   OH227731   1.393   0.259   4.503 -0.1274 -0.1832 -0.1001
 9256TIP3    H127732   1.464   0.209   4.462  0.5672  1.0642 -0.5015
 9256TIP3    H227733   1.409   0.251   4.597 -1.5715 -2.8412  0.0097
 9257TIP3   OH227734   4.456   3.802   1.252 -0.0533 -0.4279  0.3803
 9257TIP3    H127735   4.511   3.839   1.321 -0.5503 -2.2264  1.8234
 9257TIP3    H227736   4.494   3.716   1.235 -0.9053 -0.6516 -0.4539
 9258TIP3   OH227737   0.347   6.421   5.286 -0.3133 -0.2110  0.5448
 9258TIP3    H127738   0.299   6.496   5.251 -0.6692 -1.3976 -1.6932
 9258TIP3    H227739   0.433   6.426   5.245  0.0452 -0.4289  1.2560
 9259TIP3   OH227740   4.657   1.999   1.446  0.5238  0.1277  0.4652
 9259TIP3    H127741   4.599   2.051   1.390  0.1768 -0.6586  0.0787
 9259TIP3    H227742   4.664   2.050   1.527 -0.5497  0.3273  0.4476
 9260TIP3   OH227743   4.586   6.655   3.374  0.0176  0.1207  0.3451
 9260TIP3    H127744   4.582   6.748   3.394  0.8730  0.5353 -1.2511
 9260TIP3    H227745   4.675   6.640   3.343 -0.0933 -1.2433  0.5947
 9261TIP3   OH227746   0.236   1.810   0.360 -0.3657 -0.0741  0.0561
 9261TIP3    H127747   0.236   1.731   0.305 -1.2644  0.1748 -0.3131
 9261TIP3    H227748   0.150   1.849   0.346 -0.6545 -0.0459  1.7207
 9262TIP3   OH227749   6.519   0.279   0.262 -0.7626 -0.9478 -0.8163
 9262TIP3    H127750   6.538   0.272   0.169  0.5509  0.8418 -0.7266
 9262TIP3    H227751   6.514   0.373   0.279 -0.5222 -1.2315  1.0066
 9263TIP3   OH227752   5.048   2.608   1.255  0.3001 -0.5010  0.4277
 9263TIP3    H127753   4.972   2.560   1.289 -1.6310  1.3121 -1.0330
 9263TIP3    H227754   5.066   2.569   1.170 -0.4662  0.4365 -0.1981
 9264TIP3   OH227755   4.179   1.915   4.256 -0.1971 -0.1292  0.5933
 9264TIP3    H127756   4.084   1.911   4.267 -0.3921 -2.9213 -0.9898
 9264TIP3    H227757   4.213   1.925   4.344 -1.9235 -4.5324  2.0559
 9265TIP3   OH227758   6.026   5.733   1.812 -0.4009  0.3616  0.2128
 9265TIP3    H127759   5.962   5.804   1.815 -1.6861 -0.7007 -1.0364
 9265TIP3    H227760   6.078   5.751   1.733 -1.6451 -0.8031 -0.9108
 9266TIP3   OH227761   6.895   3.427   4.979  0.2501  0.4483  0.7427
 9266TIP3    H127762   6.838   3.503   4.987 -3.2000 -1.8989  0.6144
 9266TIP3    H227763   6.895   3.388   5.066 -0.6298 -1.0438  0.1124
 9267TIP3   OH227764   5.749   4.799   1.944  0.7048  0.4330 -0.2769
 9267TIP3    H127765   5.709   4.874   1.989 -0.9955 -0.7290  0.2297
 9267TIP3    H227766   5.706   4.797   1.858 -1.5561 -1.6977  0.8024
 9268TIP3   OH227767  -0.005   3.754   0.245 -0.1518 -0.4139  0.0231
 9268TIP3    H127768  -0.061   3.816   0.199  0.8012 -1.5917 -2.9971
 9268TIP3    H227769   0.070   3.807   0.274 -0.8765  0.4062  0.4503
 9269TIP3   OH227770   3.782   0.181   0.771  0.0756 -0.0224 -0.0171
 9269TIP3    H127771   3.847   0.161   0.704  0.7341  0.0761  0.5769
 9269TIP3    H227772   3.698   0.160   0.730  0.0522  3.5121 -2.2889
 9270TIP3   OH227773   4.572   3.521   5.332 -0.6328 -0.1439  0.1147
 9270TIP3    H127774   4.578   3.500   5.239  0.0790  0.0414  0.1181
 9270TIP3    H227775   4.638   3.467   5.374  2.7466  3.3633 -0.1136
 9271TIP3   OH227776   3.768   3.245   2.835  0.5411  0.5245  0.1427
 9271TIP3    H127777   3.827   3.236   2.760 -0.0499  2.0043 -0.5490
 9271TIP3    H227778   3.753   3.156   2.865  1.9660  0.0159 -0.5732
 9272TIP3   OH227779   5.356   6.164   3.902  0.0568 -0.2785  0.5907
 9272TIP3    H127780   5.347   6.074   3.874  1.8274 -0.5520  0.7873
 9272TIP3    H227781   5.429   6.199   3.851 -0.2896  0.8890  0.8556
 9273TIP3   OH227782   1.637   1.123   1.573  0.2475 -0.0044 -0.1122
 9273TIP3    H127783   1.662   1.213   1.593 -0.5829  0.2088 -0.0008
 9273TIP3    H227784   1.583   1.095   1.647 -0.7668 -0.0636 -0.8502
 9274TIP3   OH227785   6.319   2.247   2.759 -0.3315 -0.0527 -0.1366
 9274TIP3    H127786   6.265   2.249   2.838 -1.1018 -0.8085 -0.6174
 9274TIP3    H227787   6.278   2.311   2.701  0.1510  0.4027  0.0223
 9275TIP3   OH227788   6.067   5.699   5.041 -0.2631  0.1575  0.1998
 9275TIP3    H127789   6.004   5.750   4.990 -2.2451 -0.3719  1.9887
 9275TIP3    H227790   6.085   5.752   5.118 -1.4946 -1.2673  1.5352
 9276TIP3   OH227791   0.669   4.797   0.846  0.2017  0.1337 -0.4161
 9276TIP3    H127792   0.706   4.806   0.759  1.3423  1.5198  0.1834
 9276TIP3    H227793   0.693   4.877   0.892 -1.2335 -0.1125  0.8746
 9277TIP3   OH227794   4.863   6.483   2.338  0.1344 -0.1643  0.3716
 9277TIP3    H127795   4.833   6.442   2.257  1.0191 -0.2633  0.0864
 9277TIP3    H227796   4.805   6.558   2.350 -1.7056 -1.6174  1.0497
 9278TIP3   OH227797   3.626   5.942   4.050  0.1044 -0.0311  0.2733
 9278TIP3    H127798   3.621   5.984   4.136 -0.6879 -0.1905  0.3063
 9278TIP3    H227799   3.542   5.899   4.039 -0.0951  0.6445 -0.9296
 9279TIP3   OH227800   4.675   5.069   5.277  0.5496  0.0782  0.0557
 9279TIP3    H127801   4.647   4.988   5.234  0.6666  0.3565 -0.5389
 9279TIP3    H227802   4.729   5.113   5.213  2.4218 -0.4668  1.1935
 9280TIP3   OH227803   5.405   4.568   0.588  0.4146  0.2458 -0.3417
 9280TIP3    H127804   5.364   4.652   0.612  0.2537  0.2929 -0.7830
 9280TIP3    H227805   5.456   4.544   0.666 -0.3759  0.2282  0.1868
 9281TIP3   OH227806   6.393   3.339   1.759  0.0069 -0.1596  0.0984
 9281TIP3    H127807   6.466   3.360   1.700  1.8038 -3.4577  0.9220
 9281TIP3    H227808   6.420   3.373   1.844 -0.7104  0.9767 -0.1061
 9282TIP3   OH227809   2.317   2.030   1.503 -0.1859 -0.2779  0.1115
 9282TIP3    H127810   2.306   1.945   1.461 -1.2499 -0.3722  0.5584
 9282TIP3    H227811   2.234   2.075   1.489  0.6472  1.0148 -0.8163
 9283TIP3   OH227812   3.177   0.956   3.479 -0.3814 -0.4749  0.4489
 9283TIP3    H127813   3.201   0.870   3.513  0.5980 -0.3937 -0.0172
 9283TIP3    H227814   3.134   0.937   3.395  1.6937 -0.4280 -0.6699
 9284TIP3   OH227815   4.822   0.265   4.237  0.0288 -0.6366  0.5520
 9284TIP3    H127816   4.810   0.171   4.219 -0.2210 -0.8289  1.6857
 9284TIP3    H227817   4.890   0.268   4.304  0.7928  0.0643 -0.2340
 9285TIP3   OH227818   4.479   4.538   0.468  0.7040  0.2336  0.1278
 9285TIP3    H127819   4.512   4.626   0.450  1.4907 -0.1469 -0.3129
 9285TIP3    H227820   4.523   4.482   0.405  0.7272 -0.5792  0.8439
 9286TIP3   OH227821   0.903   2.145   5.559  0.6928 -0.2772  0.1057
 9286TIP3    H127822   0.903   2.091   5.638 -1.6260 -2.0993 -1.0106
 9286TIP3    H227823   0.851   2.222   5.583  1.7378  0.2078  0.9092
 9287TIP3   OH227824   2.342   2.831   0.101 -0.4781  0.4696 -0.1526
 9287TIP3    H127825   2.273   2.786   0.151 -0.2890 -0.6585 -0.8747
 9287TIP3    H227826   2.304   2.845   0.015  0.3666 -0.7036 -0.7514
 9288TIP3   OH227827   6.803   5.601   3.330  0.1104  0.2317 -0.2844
 9288TIP3    H127828   6.708   5.600   3.346 -0.0066 -0.4869 -0.9494
 9288TIP3    H227829   6.838   5.655   3.400 -0.5450 -1.4191  1.4177
 9289TIP3   OH227830   4.699   4.855   1.506  0.3021  0.5333 -0.2000
 9289TIP3    H127831   4.615   4.823   1.472  1.1634 -1.1226 -0.8721
 9289TIP3    H227832   4.722   4.793   1.575  1.2608  0.6174 -0.4338
 9290TIP3   OH227833   0.741   0.885   3.659 -0.3186  0.0376 -0.1457
 9290TIP3    H127834   0.718   0.920   3.745  2.3842 -1.4059  1.3225
 9290TIP3    H227835   0.693   0.802   3.654 -0.2374 -0.0317  0.1531
 9291TIP3   OH227836   5.533   5.173   1.925  0.2947  0.6421  0.3932
 9291TIP3    H127837   5.450   5.140   1.892  0.6730 -1.2360  1.1786
 9291TIP3    H227838   5.593   5.099   1.918  1.4121  1.3861  1.5613
 9292TIP3   OH227839   5.928   4.644   2.797  0.3865 -0.1526  0.0694
 9292TIP3    H127840   5.963   4.618   2.882  0.7929  0.4101  0.0807
 9292TIP3    H227841   5.969   4.729   2.779  1.4611 -0.9497 -1.3823
 9293TIP3   OH227842   5.822   4.332   0.824 -0.8840  0.3562  0.0875
 9293TIP3    H127843   5.875   4.259   0.790 -1.4766 -0.1775  0.2896
 9293TIP3    H227844   5.874   4.410   0.804  0.1624 -0.1795  0.6018
 9294TIP3   OH227845   0.682   0.455   0.202 -0.0952  0.2234  0.1911
 9294TIP3    H127846   0.668   0.546   0.177 -1.4732 -0.2878 -1.0625
 9294TIP3    H227847   0.717   0.414   0.123  2.6213  0.0793  1.3860
 9295TIP3   OH227848   1.414   5.548   2.499 -0.2555  0.2692  0.1975
 9295TIP3    H127849   1.361   5.492   2.442  1.7740 -1.4074 -0.1811
 9295TIP3    H227850   1.352   5.583   2.563 -1.7418 -2.0017  0.1108
 9296TIP3   OH227851   2.163   4.527   0.291  0.3852  0.6677  0.2015
 9296TIP3    H127852   2.136   4.497   0.204  1.2439  0.6307 -0.0646
 9296TIP3    H227853   2.258   4.514   0.292  0.5279  1.6640  0.7592
 9297TIP3   OH227854   5.338   3.119   0.954  0.3235  0.6436  0.7828
 9297TIP3    H127855   5.382   3.203   0.944 -1.9128  1.6827 -1.2796
 9297TIP3    H227856   5.315   3.115   1.047  0.2973  2.3901  0.8849
 9298TIP3   OH227857   3.965   3.745   0.161  1.1114 -0.5225 -0.0411
 9298TIP3    H127858   4.051   3.759   0.123  0.1344 -0.2282 -2.2868
 9298TIP3    H227859   3.915   3.824   0.138 -0.2145 -1.3839 -0.2290
 9299TIP3   OH227860   3.399   4.580   5.594  0.1287  0.2505 -0.1201
 9299TIP3    H127861   3.362   4.658   5.553 -0.1583  0.8312  1.1787
 9299TIP3    H227862   3.349   4.507   5.557  1.2971  0.5105 -2.3571
 9300TIP3   OH227863   0.333   2.708   5.562  0.1563  0.2258 -0.2071
 9300TIP3    H127864   0.320   2.691   5.655 -0.9199 -1.0957 -0.5722
 9300TIP3    H227865   0.396   2.780   5.560  0.2185  0.2705  1.5330
 9301TIP3   OH227866   2.212   5.818   5.847  0.0846 -0.1035 -0.2487
 9301TIP3    H127867   2.185   5.758   5.916  0.0362  0.7005  0.4473
 9301TIP3    H227868   2.258   5.889   5.893 -0.1096  0.5343 -1.0117
 9302TIP3   OH227869   4.931   3.310   5.559 -0.4757 -0.5195 -0.3356
 9302TIP3    H127870   4.890   3.342   5.478 -0.9168 -1.3763 -0.4739
 9302TIP3    H227871   4.938   3.387   5.615 -0.4164  0.0343 -1.0888
 9303TIP3   OH227872   5.444   1.228   5.728  0.5363  0.1987  0.4179
 9303TIP3    H127873   5.432   1.321   5.711  0.7735 -0.0542 -1.3470
 9303TIP3    H227874   5.358   1.189   5.711  0.6419  0.0015  0.3264
 9304TIP3   OH227875   6.489   5.485   4.615  0.1978  0.3343  0.1258
 9304TIP3    H127876   6.560   5.535   4.575  0.5562 -1.4052 -1.5678
 9304TIP3    H227877   6.532   5.407   4.651 -0.6267  0.0626  0.5450
 9305TIP3   OH227878   4.767   4.732   3.955 -0.0831 -0.5105  0.5202
 9305TIP3    H127879   4.678   4.767   3.953  0.6119  1.4151 -0.6685
 9305TIP3    H227880   4.789   4.727   4.047 -1.4921 -1.2490  0.8439
 9306TIP3   OH227881   2.508   4.105   2.482  0.0688 -0.2524 -0.0559
 9306TIP3    H127882   2.558   4.084   2.561 -1.5596 -2.7943  0.4134
 9306TIP3    H227883   2.420   4.125   2.513 -0.5162 -0.9703 -1.1658
 9307TIP3   OH227884   4.786   2.343   4.226 -0.0045 -0.1000  0.1765
 9307TIP3    H127885   4.693   2.349   4.202  0.1958 -1.4060 -1.0446
 9307TIP3    H227886   4.830   2.403   4.166  0.0629 -0.3315 -0.0053
 9308TIP3   OH227887   1.299   6.266   5.532  0.3024 -0.1494  0.1832
 9308TIP3    H127888   1.275   6.178   5.504 -1.2148  0.3549 -0.1881
 9308TIP3    H227889   1.216   6.306   5.559  0.9676  1.1551  0.3673
 9309TIP3   OH227890   1.582   6.593   1.801 -0.2843  0.7949 -0.5394
 9309TIP3    H127891   1.627   6.672   1.830 -0.3371  0.7077 -0.2125
 9309TIP3    H227892   1.493   6.623   1.779 -1.0253  0.4806  1.7291
 9310TIP3   OH227893   6.780   4.868   1.139 -0.2544  0.1718 -0.8114
 9310TIP3    H127894   6.738   4.865   1.225 -0.0247  0.2185 -0.7000
 9310TIP3    H227895   6.819   4.955   1.134  0.9571 -0.3401 -0.3925
 9311TIP3   OH227896   1.329   2.923   0.223  0.5367 -0.4582  0.1873
 9311TIP3    H127897   1.290   2.860   0.283  1.5344  0.3463  1.7518
 9311TIP3    H227898   1.421   2.926   0.249  0.8318  0.4664 -0.9059
 9312TIP3   OH227899   3.707   1.504   2.518 -0.6443  0.6806 -0.2579
 9312TIP3    H127900   3.694   1.569   2.586  1.0767  0.2305  0.5563
 9312TIP3    H227901   3.737   1.554   2.442  0.3812  0.8933  0.2705
 9313TIP3   OH227902   4.159   3.117   5.762 -0.2395  0.0694 -0.4704
 9313TIP3    H127903   4.190   3.108   5.671 -1.2728  2.6205 -1.1545
 9313TIP3    H227904   4.110   3.036   5.778  1.4918 -1.2534 -1.5097
 9314TIP3   OH227905   6.646   3.039   2.464 -0.2858  0.4141  0.0849
 9314TIP3    H127906   6.646   2.956   2.416  1.3220  0.0014  0.7325
 9314TIP3    H227907   6.566   3.035   2.518  0.1982 -1.1282  0.7505
 9315TIP3   OH227908   5.989   3.870   2.362 -0.1240  0.1251 -0.4377
 9315TIP3    H127909   5.946   3.864   2.448 -0.4534 -3.5125 -0.6758
 9315TIP3    H227910   5.947   3.944   2.319 -1.9088  0.3725  1.5295
 9316TIP3   OH227911   1.130   0.892   5.402  0.5857  0.4596 -0.8587
 9316TIP3    H127912   1.107   0.819   5.344  1.3952  0.3496 -1.0447
 9316TIP3    H227913   1.064   0.889   5.471 -0.2151  0.4099 -1.6101
 9317TIP3   OH227914   0.484   0.864   0.745 -0.0673 -0.3510  0.1402
 9317TIP3    H127915   0.405   0.904   0.781  0.0582 -0.4188  0.4911
 9317TIP3    H227916   0.503   0.916   0.666  0.0414  0.2281  0.5395
 9318TIP3   OH227917   4.962   0.398   1.055  0.3781  0.2005 -0.7044
 9318TIP3    H127918   4.992   0.476   1.009  1.1555  0.4010  0.1066
 9318TIP3    H227919   4.877   0.423   1.092  0.1904  0.3449 -1.2290
 9319TIP3   OH227920   2.296   2.409   0.862  0.1740 -0.0115  0.5897
 9319TIP3    H127921   2.241   2.338   0.895 -2.3291  0.7399 -1.5762
 9319TIP3    H227922   2.348   2.370   0.792  1.8535 -0.5145  2.0407
 9320TIP3   OH227923   6.048   1.144   0.547 -0.3918 -0.0954 -0.0410
 9320TIP3    H127924   6.086   1.127   0.461 -0.2180  0.0010  0.0159
 9320TIP3    H227925   6.106   1.099   0.609 -1.6637 -1.9142 -0.1182
 9321TIP3   OH227926   6.895   2.170   4.949 -0.3812  0.2134  0.0165
 9321TIP3    H127927   6.857   2.177   5.036 -0.1039  1.1274  0.0725
 9321TIP3    H227928   6.972   2.227   4.952  0.1611 -0.4653 -0.5422
 9322TIP3   OH227929   0.290   2.358   0.832 -0.7996 -0.2559  0.5208
 9322TIP3    H127930   0.263   2.437   0.786  0.5338 -1.4548 -2.6826
 9322TIP3    H227931   0.227   2.291   0.804  0.6597 -1.2584 -0.5127
 9323TIP3   OH227932   5.289   5.094   0.847 -0.3024  0.0181 -0.2962
 9323TIP3    H127933   5.338   5.129   0.772 -0.1099  0.6509  0.1190
 9323TIP3    H227934   5.318   5.147   0.921 -1.0129 -0.1377  0.0977
 9324TIP3   OH227935   2.727   1.742   4.499  0.2290 -0.1756 -0.0089
 9324TIP3    H127936   2.647   1.768   4.545 -0.2658 -2.7162  0.7167
 9324TIP3    H227937   2.797   1.794   4.540 -0.6337 -0.1260  1.4415
 9325TIP3   OH227938   6.875   4.313   1.799  0.0804 -1.0493  0.0878
 9325TIP3    H127939   6.853   4.329   1.891 -1.2090 -3.6221  0.3158
 9325TIP3    H227940   6.849   4.394   1.754  1.0239  0.3782  1.9816
 9326TIP3   OH227941   3.591   6.576   0.302 -0.3924  0.1101  0.7137
 9326TIP3    H127942   3.501   6.595   0.330  0.0786  0.7191  1.9016
 9326TIP3    H227943   3.635   6.550   0.383  0.5932  0.1381  0.1949
 9327TIP3   OH227944   4.986   3.703   3.078 -0.4902  0.0786  0.1802
 9327TIP3    H127945   5.081   3.695   3.085 -0.5917 -0.5070  0.8596
 9327TIP3    H227946   4.955   3.718   3.167 -1.0927 -0.2819  0.0409
 9328TIP3   OH227947   5.616   2.394   4.088 -0.1732  0.7525 -0.1346
 9328TIP3    H127948   5.608   2.299   4.084  1.0132  0.6706 -1.5211
 9328TIP3    H227949   5.683   2.410   4.155  0.7720  0.5093 -1.0054
 9329TIP3   OH227950   4.876   4.463   1.959  0.2895 -0.3976  0.6016
 9329TIP3    H127951   4.893   4.442   1.867  1.4068 -0.9918  0.9165
 9329TIP3    H227952   4.948   4.521   1.983  0.2875 -0.6494  1.2251
 9330TIP3   OH227953   6.374   6.494   2.145 -0.1659 -0.0486 -0.4526
 9330TIP3    H127954   6.372   6.561   2.214  0.7378 -1.6849  1.2201
 9330TIP3    H227955   6.452   6.515   2.094  1.2386 -0.9225  1.2537
 9331TIP3   OH227956   0.515   5.618   2.767 -0.4183 -0.1106 -0.3499
 9331TIP3    H127957   0.549   5.708   2.772 -0.1139 -0.2851  1.2549
 9331TIP3    H227958   0.584   5.565   2.806 -0.8305 -0.9961 -0.8067
 9332TIP3   OH227959   0.362   1.219   4.851  0.0879 -0.2595  0.0532
 9332TIP3    H127960   0.439   1.239   4.797  0.8097  1.5312  1.6104
 9332TIP3    H227961   0.314   1.153   4.801  3.0280 -2.0796 -0.6089
 9333TIP3   OH227962   6.134   3.251   3.564  0.2320  0.0060  0.3165
 9333TIP3    H127963   6.155   3.176   3.619  1.6767  1.4561  1.8694
 9333TIP3    H227964   6.042   3.269   3.583  0.0041 -1.0669  0.2933
 9334TIP3   OH227965   4.612   6.131   5.678 -0.1025 -0.4743  0.1328
 9334TIP3    H127966   4.528   6.171   5.657 -0.2730 -1.6125 -1.6494
 9334TIP3    H227967   4.590   6.046   5.716  0.1816 -1.2825 -1.4126
 9335TIP3   OH227968   6.326   4.266   0.251  0.1561  0.0591  0.0836
 9335TIP3    H127969   6.283   4.312   0.324  1.1299  0.0479  0.6893
 9335TIP3    H227970   6.278   4.294   0.173 -0.6854  0.3490  0.6907
 9336TIP3   OH227971   0.883   0.147   0.610 -0.6555 -0.6972  0.4277
 9336TIP3    H127972   0.856   0.161   0.701 -0.7561 -0.4740  0.3648
 9336TIP3    H227973   0.806   0.172   0.558  0.0350  1.0988  0.1875
 9337TIP3   OH227974   3.121   4.602   5.748  0.5210  0.0585 -0.8714
 9337TIP3    H127975   3.142   4.516   5.712 -1.5603 -0.2486 -1.5055
 9337TIP3    H227976   3.205   4.639   5.774  1.4801 -2.1330 -0.6487
 9338TIP3   OH227977   4.215   3.760   2.338 -0.7268 -0.0705  1.3144
 9338TIP3    H127978   4.139   3.737   2.286  1.3808 -1.0210 -1.6177
 9338TIP3    H227979   4.244   3.844   2.302 -0.2486  0.1738  2.2322
 9339TIP3   OH227980   0.754   4.578   3.153  0.5272  0.1732 -0.5870
 9339TIP3    H127981   0.796   4.664   3.166  0.5773  0.2822 -1.3942
 9339TIP3    H227982   0.826   4.516   3.158  0.6473  0.2744 -1.0235
 9340TIP3   OH227983   3.355   0.033   1.288  0.0936  0.1405  0.2873
 9340TIP3    H127984   3.306   0.113   1.307  0.9194  1.2324 -1.7606
 9340TIP3    H227985   3.293  -0.038   1.305 -1.0564  1.2739  1.0351
 9341TIP3   OH227986   4.478   3.690   2.423 -0.0338 -0.3800 -0.4238
 9341TIP3    H127987   4.395   3.685   2.377 -0.6845 -2.1015  0.8396
 9341TIP3    H227988   4.460   3.745   2.499  0.6337  1.1605 -1.3253
 9342TIP3   OH227989   0.569   0.401   5.139  0.0268 -0.3956 -0.6835
 9342TIP3    H127990   0.663   0.384   5.137  0.0777 -0.1012 -1.1612
 9342TIP3    H227991   0.553   0.442   5.224  0.1765 -1.2719 -0.2277
 9343TIP3   OH227992   3.007   4.331   1.645  0.2384 -0.2593 -0.3157
 9343TIP3    H127993   2.973   4.377   1.721  0.9207  2.2930 -1.4634
 9343TIP3    H227994   3.027   4.400   1.582  1.6842 -2.1195 -2.0149
 9344TIP3   OH227995   3.891   5.022   4.362  0.5017  0.0065  0.1059
 9344TIP3    H127996   3.813   5.063   4.399  0.5565 -0.4676  0.7606
 9344TIP3    H227997   3.897   5.058   4.273  0.4765  1.3124  0.6121
 9345TIP3   OH227998   5.838   2.115   5.708  0.4319 -0.2326  0.2118
 9345TIP3    H127999   5.908   2.148   5.652  0.2862  0.4957  0.4492
 9345TIP3    H228000   5.784   2.191   5.726 -0.3414 -0.7564  0.1597
 9346TIP3   OH228001   5.563   5.216   4.350  0.4884 -1.0497  0.0855
 9346TIP3    H128002   5.614   5.289   4.316  2.8104 -1.8924  1.4896
 9346TIP3    H228003   5.562   5.152   4.279  0.5410 -0.6297 -0.2955
 9347TIP3   OH228004   2.737   0.844   4.567 -0.3651  0.5405  0.2801
 9347TIP3    H128005   2.720   0.764   4.517 -1.1873  0.8180  0.1066
 9347TIP3    H228006   2.831   0.859   4.558 -0.1340 -0.6143  0.6293
 9348TIP3   OH228007   5.739   5.461   5.309 -0.3862  0.1823 -0.0676
 9348TIP3    H128008   5.751   5.427   5.398  1.8344  0.7679 -0.1013
 9348TIP3    H228009   5.708   5.385   5.259 -1.2539 -0.2590  1.0808
 9349TIP3   OH228010   0.710   5.001   3.022 -0.9189 -0.4728  0.5272
 9349TIP3    H128011   0.722   4.927   2.963 -0.4229 -0.0671  0.1063
 9349TIP3    H228012   0.647   4.970   3.087 -1.8903 -0.7435 -0.5166
 9350TIP3   OH228013   4.754   5.501   5.455 -0.0037  0.3019 -0.4445
 9350TIP3    H128014   4.765   5.538   5.367  0.5383 -2.0866 -1.4743
 9350TIP3    H228015   4.682   5.439   5.446 -0.1854  0.2951  0.9036
 9351TIP3   OH228016   0.268   5.330   4.833  0.1753  0.5590 -0.4515
 9351TIP3    H128017   0.353   5.362   4.863  0.2240  0.6457 -0.6847
 9351TIP3    H228018   0.285   5.239   4.809 -0.1157  0.1276  0.8833
 9352TIP3   OH228019   4.901   4.852   3.688 -0.5873 -0.1620 -0.4593
 9352TIP3    H128020   4.929   4.928   3.738 -1.1544  1.0478 -1.9015
 9352TIP3    H228021   4.976   4.832   3.631 -0.0493 -1.3597  0.6095
 9353TIP3   OH228022   1.189   5.792   2.866 -0.5562  0.1936  0.2140
 9353TIP3    H128023   1.185   5.844   2.946 -0.0754 -1.9385  1.7350
 9353TIP3    H228024   1.282   5.770   2.857 -0.2525  2.0440 -2.1438
 9354TIP3   OH228025   1.542   3.989   1.504 -0.3965  0.2529 -0.2814
 9354TIP3    H128026   1.609   3.937   1.459 -0.8219  0.3448 -1.0308
 9354TIP3    H228027   1.575   3.999   1.593  0.2554 -0.2958 -0.4566
 9355TIP3   OH228028   6.628   2.567   3.765  0.5511  0.0019 -0.6482
 9355TIP3    H128029   6.709   2.604   3.732 -0.0936  2.1341  0.0171
 9355TIP3    H228030   6.638   2.570   3.861  0.5272 -1.7348 -0.5612
 9356TIP3   OH228031   4.914   6.273   3.499 -0.5919  0.2463  0.3252
 9356TIP3    H128032   4.967   6.201   3.466 -2.5350 -1.3578  0.5079
 9356TIP3    H228033   4.885   6.320   3.421  0.0862  0.4011  0.1613
 9357TIP3   OH228034   2.584   2.409   5.472 -0.1064  0.1081  0.5048
 9357TIP3    H128035   2.655   2.354   5.502 -0.5967 -0.5408  0.5019
 9357TIP3    H228036   2.624   2.470   5.410  0.6156  0.4101  1.2514
 9358TIP3   OH228037   5.353   3.619   4.146  0.4302 -0.5691  0.6458
 9358TIP3    H128038   5.347   3.707   4.108 -2.2569 -1.1556 -0.5584
 9358TIP3    H228039   5.366   3.561   4.071 -0.1210 -1.3652  1.1398
 9359TIP3   OH228040   5.245   1.596   0.162  0.0291 -0.2780 -0.6496
 9359TIP3    H128041   5.235   1.555   0.249 -1.3147 -0.5109 -0.8975
 9359TIP3    H228042   5.337   1.580   0.139 -0.5236 -3.8035 -1.0147
 9360TIP3   OH228043   0.089   6.282   5.872 -0.1818  0.4510  0.4119
 9360TIP3    H128044   0.008   6.257   5.828 -0.8630  0.4440  1.6265
 9360TIP3    H228045   0.067   6.280   5.965  1.3158  0.1232  0.7808
 9361TIP3   OH228046   3.583   0.945   1.425  0.3405 -0.5908  0.3818
 9361TIP3    H128047   3.575   0.862   1.471  0.2917 -0.8427 -0.0764
 9361TIP3    H228048   3.517   0.941   1.356  1.3217 -0.7839 -0.5674
 9362TIP3   OH228049   5.262   2.205   1.281 -0.2550 -0.3809  0.0396
 9362TIP3    H128050   5.192   2.253   1.326 -0.8844  0.0085 -1.2955
 9362TIP3    H228051   5.284   2.260   1.206 -1.5014 -2.4491 -1.9608
 9363TIP3   OH228052   3.262   2.671   0.663  0.0845  0.2179  0.4193
 9363TIP3    H128053   3.204   2.657   0.738  0.7468 -0.6797  0.7660
 9363TIP3    H228054   3.205   2.657   0.587  0.1456 -2.1629  0.7399
 9364TIP3   OH228055   6.587   6.378   4.447 -0.3061 -0.3833  0.4122
 9364TIP3    H128056   6.600   6.308   4.383  0.2371  2.2779 -2.7026
 9364TIP3    H228057   6.676   6.410   4.466 -0.6441  1.0246 -0.2341
 9365TIP3   OH228058   3.020   1.023   3.705  0.0482  0.3988  0.1844
 9365TIP3    H128059   2.952   0.963   3.675 -0.9132  2.3029 -1.6855
 9365TIP3    H228060   3.091   1.012   3.642  0.6278 -0.0634  0.9044
 9366TIP3   OH228061   1.841   2.759   4.005  0.3609  0.5415  0.6034
 9366TIP3    H128062   1.905   2.815   3.962  0.2605 -1.0730 -1.8200
 9366TIP3    H228063   1.767   2.755   3.944 -0.0848 -1.3301  1.1908
 9367TIP3   OH228064   3.955   2.450   4.775 -0.0199 -0.1772 -0.4359
 9367TIP3    H128065   3.941   2.380   4.838  1.0430 -1.0665 -1.1497
 9367TIP3    H228066   3.868   2.469   4.739 -0.4157 -0.6240  0.2681
 9368TIP3   OH228067   5.820   2.104   1.771  0.2098 -0.3725  0.2371
 9368TIP3    H128068   5.874   2.174   1.809 -3.0600  2.4095  0.3071
 9368TIP3    H228069   5.758   2.082   1.841 -0.1182 -1.9082 -0.5015
 9369TIP3   OH228070   3.981   3.669   1.788 -0.1489  0.4099 -0.6225
 9369TIP3    H128071   3.976   3.618   1.869  0.0045  1.9727  0.4086
 9369TIP3    H228072   3.893   3.663   1.751  0.3721 -2.2576 -1.6323
 9370TIP3   OH228073   5.718   1.005   1.093  0.2089  0.2970  0.4388
 9370TIP3    H128074   5.686   1.062   1.163  0.7181  1.3123 -0.1347
 9370TIP3    H228075   5.638   0.969   1.054 -0.0928  0.0735  1.2529
 9371TIP3   OH228076   6.715   2.120   2.068 -0.2953 -0.2418 -0.2989
 9371TIP3    H128077   6.803   2.122   2.105 -0.0981  0.8798 -0.7966
 9371TIP3    H228078   6.677   2.204   2.092 -1.4719 -0.9497  0.4445
 9372TIP3   OH228079   4.593   3.567   1.129 -0.1077  0.1863  0.1382
 9372TIP3    H128080   4.544   3.489   1.156  0.2877 -0.3357 -0.6027
 9372TIP3    H228081   4.684   3.547   1.150  0.1854 -0.1531 -1.3110
 9373TIP3   OH228082   1.680   6.267   4.511  0.0389  0.5599 -0.1131
 9373TIP3    H128083   1.639   6.268   4.598  1.4038  1.2661  0.5637
 9373TIP3    H228084   1.752   6.204   4.520  1.0633  1.6626 -0.2791
 9374TIP3   OH228085   7.001   5.863   1.768 -0.1111  0.2239  0.7583
 9374TIP3    H128086   7.045   5.916   1.834 -0.4205  0.5239  0.7238
 9374TIP3    H228087   6.994   5.776   1.809  1.2015 -0.0523  0.4683
 9375TIP3   OH228088   4.172   2.033   4.968  0.1255 -0.4892  0.2535
 9375TIP3    H128089   4.213   1.967   4.911 -2.4498 -1.5831 -0.4770
 9375TIP3    H228090   4.184   2.115   4.921 -1.6188 -1.3198 -1.8397
 9376TIP3   OH228091   1.370   4.235   2.557  0.2187 -0.1910  0.2026
 9376TIP3    H128092   1.367   4.291   2.479 -0.0947 -0.6806 -0.1433
 9376TIP3    H228093   1.433   4.167   2.535  0.2713 -0.2212  0.4501
 9377TIP3   OH228094   0.639   5.578   1.920  0.2139  0.1037  0.2177
 9377TIP3    H128095   0.587   5.505   1.954  0.7223 -0.8082 -0.9032
 9377TIP3    H228096   0.628   5.647   1.985 -3.3104  0.3757 -0.4622
 9378TIP3   OH228097   0.673   1.702   0.983 -0.2657 -0.6477 -1.0352
 9378TIP3    H128098   0.737   1.770   1.002  0.3145 -1.7226  1.2098
 9378TIP3    H228099   0.725   1.627   0.955 -0.6654 -0.9879 -0.8836
 9379TIP3   OH228100   6.778   3.962   3.422 -0.2699  0.2009 -0.1800
 9379TIP3    H128101   6.778   3.939   3.515  2.1220  0.4270 -0.0743
 9379TIP3    H228102   6.866   3.943   3.392 -0.4632  1.8036 -1.9802
 9380TIP3   OH228103   3.574   3.098   3.137 -0.4972 -0.7197 -0.3358
 9380TIP3    H128104   3.660   3.093   3.095 -0.6824 -2.1064 -0.5793
 9380TIP3    H228105   3.591   3.084   3.230 -0.0155  2.8922  0.2905
 9381TIP3   OH228106   1.058   4.274   1.480 -0.5316  0.0330  0.2456
 9381TIP3    H128107   1.005   4.342   1.439 -0.3163 -0.3618 -0.7191
 9381TIP3    H228108   1.016   4.192   1.455 -0.3842 -0.2185  0.8093
 9382TIP3   OH228109   2.844   0.777   1.321  0.1402  0.2186  0.0383
 9382TIP3    H128110   2.825   0.716   1.393  2.1646 -0.8249 -0.2492
 9382TIP3    H228111   2.883   0.853   1.365  0.1380  0.1464  0.1670
 9383TIP3   OH228112   2.628   2.217   2.376  0.7259 -0.1436 -0.2293
 9383TIP3    H128113   2.554   2.272   2.352  0.4684  0.5149  1.8655
 9383TIP3    H228114   2.610   2.132   2.334 -0.7755  0.2533 -0.4476
 9384TIP3   OH228115   2.782   4.015   1.102 -0.1833  0.8870 -0.4592
 9384TIP3    H128116   2.865   4.049   1.137  0.5869  0.3889 -1.7220
 9384TIP3    H228117   2.746   4.088   1.052 -1.0851  1.4661  0.9674
 9385TIP3   OH228118   5.923   2.907   1.930  0.4838 -0.1412  0.4617
 9385TIP3    H128119   6.011   2.883   1.960  0.3222 -0.6700  0.5113
 9385TIP3    H228120   5.925   3.003   1.927  0.5822 -0.0797  1.9012
 9386TIP3   OH228121   3.768   1.842   2.698 -0.3148  0.1328 -0.1105
 9386TIP3    H128122   3.770   1.904   2.771 -1.5326  0.0127  0.0361
 9386TIP3    H228123   3.822   1.884   2.630  2.2347 -0.5020  1.3991
 9387TIP3   OH228124   2.791   3.591   5.451 -0.6310 -0.0031 -0.2303
 9387TIP3    H128125   2.734   3.660   5.486 -0.2154  0.1975  0.0643
 9387TIP3    H228126   2.738   3.548   5.383 -1.4092 -0.3094  0.5467
 9388TIP3   OH228127   0.628   2.529   3.016 -0.7390 -0.1562  0.6451
 9388TIP3    H128128   0.552   2.572   2.976  0.0771  1.4196  0.7324
 9388TIP3    H228129   0.683   2.503   2.942 -1.3977 -1.4577  0.5719
 9389TIP3   OH228130   1.614   0.904   2.752  0.7323  0.4643  0.6084
 9389TIP3    H128131   1.685   0.943   2.701  1.2092 -0.1944  0.7500
 9389TIP3    H228132   1.647   0.818   2.778 -0.9195 -0.7788 -1.1276
 9390TIP3   OH228133   3.522   4.267   2.989  0.1791  0.3070 -0.5960
 9390TIP3    H128134   3.488   4.238   3.074  0.3356 -0.4275 -0.7762
 9390TIP3    H228135   3.604   4.311   3.009  0.1873  0.1844 -0.3565
 9391TIP3   OH228136   1.458   4.169   4.499 -0.6269 -0.3309  0.3287
 9391TIP3    H128137   1.395   4.238   4.476  0.7196  0.7428 -0.2868
 9391TIP3    H228138   1.475   4.182   4.592 -1.0352 -0.3933  0.4151
 9392TIP3   OH228139   5.500   0.652   0.440 -0.7053  0.5544 -0.0291
 9392TIP3    H128140   5.550   0.611   0.369  0.6832  1.5186  0.3528
 9392TIP3    H228141   5.560   0.652   0.515 -2.0480 -0.1734  1.0874
 9393TIP3   OH228142   3.356   6.644   3.524 -0.7572 -0.0194  0.1784
 9393TIP3    H128143   3.295   6.671   3.593 -0.6329  0.7516  0.0030
 9393TIP3    H228144   3.341   6.550   3.514 -3.1645  0.4076 -1.0395
 9394TIP3   OH228145   3.742   0.125   0.302 -0.6723  0.0562 -0.8551
 9394TIP3    H128146   3.828   0.136   0.343 -0.2931 -4.0680 -0.0848
 9394TIP3    H228147   3.743   0.185   0.227  2.3796  0.9952 -0.1950
 9395TIP3   OH228148   1.553   6.650   5.642 -0.2018  0.1900  0.3911
 9395TIP3    H128149   1.616   6.588   5.679  0.6600  0.5869 -0.3640
 9395TIP3    H228150   1.489   6.596   5.597  0.4118 -0.1785 -0.0657
 9396TIP3   OH228151   4.523   5.338   2.528  1.1111  0.7741  0.2335
 9396TIP3    H128152   4.541   5.292   2.446 -1.1207  1.2038 -0.5561
 9396TIP3    H228153   4.594   5.402   2.535  1.3892  0.6670 -1.3084
 9397TIP3   OH228154   2.982   3.089   3.849  1.0191 -0.6422 -0.0979
 9397TIP3    H128155   2.949   3.074   3.937 -1.7577  4.3594  0.1245
 9397TIP3    H228156   2.914   3.055   3.791  1.6913 -1.7649 -0.2451
 9398TIP3   OH228157   0.387   5.730   5.147 -0.5329  0.4973 -0.0035
 9398TIP3    H128158   0.396   5.710   5.054 -1.1729 -0.8246  0.1973
 9398TIP3    H228159   0.389   5.644   5.190  0.7293  1.1450  1.2913
 9399TIP3   OH228160   6.415   3.075   0.024  0.3239 -0.8804  0.3394
 9399TIP3    H128161   6.375   3.021   0.093 -0.0695 -1.6204 -0.4458
 9399TIP3    H228162   6.386   3.034  -0.057 -0.7269  1.0608 -0.3253
 9400TIP3   OH228163   1.426   0.351   1.246  0.2698  0.1478  0.3161
 9400TIP3    H128164   1.441   0.368   1.153 -0.8214  0.6566  0.2181
 9400TIP3    H228165   1.389   0.432   1.280 -0.1620 -0.3215  1.0044
 9401TIP3   OH228166   0.624   5.772   4.466  0.8035  0.1779 -0.1917
 9401TIP3    H128167   0.659   5.713   4.399  0.5306  0.4185 -0.5448
 9401TIP3    H228168   0.601   5.714   4.539 -0.1471 -0.2501 -0.8152
 9402TIP3   OH228169   3.407   6.521   2.241  0.1791  0.2442 -0.8085
 9402TIP3    H128170   3.473   6.583   2.272  2.0732 -0.2670 -3.4849
 9402TIP3    H228171   3.325   6.569   2.247  1.0339  1.6423  0.7032
 9403TIP3   OH228172   7.182   1.560   0.034  0.4657  0.2258  0.3044
 9403TIP3    H128173   7.200   1.649   0.066 -0.5560  0.9752 -1.0976
 9403TIP3    H228174   7.089   1.562   0.010  1.0530 -0.3470 -2.3190
 9404TIP3   OH228175   6.469   0.951   4.884 -0.3981 -0.0146 -0.2465
 9404TIP3    H128176   6.561   0.927   4.873 -1.2347 -2.6148 -2.8692
 9404TIP3    H228177   6.456   1.022   4.821 -0.4147 -0.3691 -0.6460
 9405TIP3   OH228178   1.019   4.389   3.933 -0.8008  0.0083 -0.2671
 9405TIP3    H128179   1.044   4.337   3.856  0.0079 -1.2942  0.8442
 9405TIP3    H228180   0.947   4.340   3.973 -1.3405  0.7800 -0.2744
 9406TIP3   OH228181   5.326   5.733   2.086  0.2513  0.3783 -0.2568
 9406TIP3    H128182   5.416   5.724   2.056  0.3437  0.3459  0.0349
 9406TIP3    H228183   5.290   5.644   2.080  1.6167 -0.7134  4.1079
 9407TIP3   OH228184   2.977   0.498   0.071  0.1395 -0.3936 -0.2671
 9407TIP3    H128185   2.899   0.481   0.123  0.4682 -1.4858 -0.1107
 9407TIP3    H228186   2.964   0.586   0.035  0.7284  1.2984  3.2146
 9408TIP3   OH228187   3.495   6.215   5.289  0.5674 -0.4111  0.0720
 9408TIP3    H128188   3.582   6.198   5.325  0.6413  0.3225  0.2521
 9408TIP3    H228189   3.440   6.233   5.365  0.8687  1.8138 -0.1606
 9409TIP3   OH228190   4.625   5.470   0.104 -0.1025  0.2928  0.7470
 9409TIP3    H128191   4.615   5.467   0.199  0.6954  0.2800  0.8369
 9409TIP3    H228192   4.693   5.405   0.085  0.1918  0.7431  0.2343
 9410TIP3   OH228193   4.410   0.878   2.876  0.5617  0.3631  0.2641
 9410TIP3    H128194   4.411   0.973   2.869  1.3058  0.6008  2.7018
 9410TIP3    H228195   4.455   0.847   2.797 -0.9296  1.9199 -1.2685
 9411TIP3   OH228196   0.855   2.705   4.305  0.1691 -0.1233 -0.5335
 9411TIP3    H128197   0.764   2.722   4.278  1.6434  3.7388 -4.3797
 9411TIP3    H228198   0.885   2.789   4.341  2.4469 -0.9636 -0.3125
 9412TIP3   OH228199   6.360   1.632   3.646  0.1823 -0.4723  0.0971
 9412TIP3    H128200   6.352   1.717   3.690 -1.0177  0.8823 -2.5104
 9412TIP3    H228201   6.286   1.581   3.679 -0.0139  0.0689  0.5150
 9413TIP3   OH228202   2.201   6.698   5.595 -0.4373 -0.3645 -0.0627
 9413TIP3    H128203   2.125   6.754   5.610 -1.1774 -1.1616 -0.7028
 9413TIP3    H228204   2.172   6.611   5.620  0.5874 -0.5262  0.5876
 9414TIP3   OH228205   3.162   2.678   4.164 -0.1783  0.2626 -0.3642
 9414TIP3    H128206   3.217   2.733   4.108 -1.5962  0.9871 -1.1045
 9414TIP3    H228207   3.077   2.722   4.166 -1.1121 -1.4302 -0.2507
 9415TIP3   OH228208   0.474   3.073   3.571  0.2877 -0.1482  0.0230
 9415TIP3    H128209   0.563   3.102   3.591 -0.0079  0.6110  0.2692
 9415TIP3    H228210   0.477   2.978   3.584  0.7171  0.0293  1.3824
 9416TIP3   OH228211   3.750   1.246   2.579  0.5680  0.1082 -0.5441
 9416TIP3    H128212   3.784   1.218   2.494 -1.3660 -0.3621 -1.2223
 9416TIP3    H228213   3.728   1.338   2.566  0.3925  0.0707 -0.5079
 9417TIP3   OH228214   5.410   0.418   0.175 -0.2481  0.0565  0.2157
 9417TIP3    H128215   5.433   0.329   0.200 -0.3343  0.1535  0.6541
 9417TIP3    H228216   5.486   0.470   0.199  0.4745 -0.1167 -1.5242
 9418TIP3   OH228217   6.301   4.742   4.578  0.0938  0.3467  0.0219
 9418TIP3    H128218   6.248   4.820   4.562  0.2204  0.3497 -0.3925
 9418TIP3    H228219   6.293   4.691   4.497  0.9965  0.5038 -0.1798
 9419TIP3   OH228220   2.795   4.111   4.512 -0.2001  0.4111 -0.3682
 9419TIP3    H128221   2.717   4.162   4.490  0.3868  1.6683  0.3691
 9419TIP3    H228222   2.863   4.144   4.452  0.3438  0.9765  0.5308
 9420TIP3   OH228223   0.173   5.566   3.964  0.6875  1.3351 -0.0322
 9420TIP3    H128224   0.082   5.581   3.990  0.8171  1.0609  0.6062
 9420TIP3    H228225   0.166   5.519   3.881  0.2119  0.0778  0.6911
 9421TIP3   OH228226   0.358   6.270   1.736 -0.3717 -0.6850 -0.1331
 9421TIP3    H128227   0.340   6.342   1.797 -1.1086 -0.2556 -0.8364
 9421TIP3    H228228   0.449   6.246   1.753 -0.2512  0.1153  0.4092
 9422TIP3   OH228229   1.575   4.610   0.443  0.0768 -0.0945  0.2114
 9422TIP3    H128230   1.637   4.587   0.512 -1.9568  1.3246  2.6858
 9422TIP3    H228231   1.525   4.684   0.479 -1.7393  0.1161 -2.4319
 9423TIP3   OH228232   2.826   0.406   2.819  0.4623  0.2147 -0.0656
 9423TIP3    H128233   2.767   0.345   2.774 -0.3084  1.2924 -0.5547
 9423TIP3    H228234   2.866   0.354   2.888  0.8653 -1.2112 -1.3291
 9424TIP3   OH228235   5.279   3.230   3.500 -0.0442  0.0308  0.2455
 9424TIP3    H128236   5.299   3.213   3.408  1.3573 -0.5514  0.6158
 9424TIP3    H228237   5.342   3.297   3.526  0.1450 -0.4075  0.9743
 9425TIP3   OH228238   0.477   0.623   4.626  0.6021 -0.0695 -0.4599
 9425TIP3    H128239   0.496   0.548   4.684  0.9665 -0.7422 -1.4164
 9425TIP3    H228240   0.388   0.608   4.596  0.7616 -0.2660 -0.8475
 9426TIP3   OH228241   2.219   4.385   1.319  0.0474 -0.0961  0.0799
 9426TIP3    H128242   2.128   4.381   1.347 -0.2096  0.2780 -0.6783
 9426TIP3    H228243   2.259   4.307   1.358 -0.9650 -1.1101 -0.8415
 9427TIP3   OH228244   1.120   4.025   3.954 -0.1749  0.0014 -0.1103
 9427TIP3    H128245   1.179   3.961   3.914 -0.2080  0.5587 -1.0920
 9427TIP3    H228246   1.058   3.973   4.004  0.1900 -0.6928 -0.3628
 9428TIP3   OH228247   0.065   4.345   3.600  0.5705 -0.6775  0.5504
 9428TIP3    H128248   0.044   4.383   3.686 -1.4673 -0.9738  0.2234
 9428TIP3    H228249   0.109   4.416   3.553  2.9355 -0.9116  2.2338
 9429TIP3   OH228250   4.309   5.843   0.301 -0.2595 -0.6487  0.4322
 9429TIP3    H128251   4.264   5.922   0.331 -2.0862 -0.7673 -1.6910
 9429TIP3    H228252   4.400   5.854   0.329 -0.4373  2.2737  0.1208
 9430TIP3   OH228253   6.013   3.316   5.301 -0.7032 -0.1451 -0.3264
 9430TIP3    H128254   6.086   3.377   5.307 -0.0642 -0.8030 -1.1886
 9430TIP3    H228255   5.986   3.318   5.209 -0.7128 -1.0863 -0.3606
 9431TIP3   OH228256   3.871   4.194   0.755 -0.0191  0.2828 -0.7180
 9431TIP3    H128257   3.855   4.118   0.811 -1.8831 -0.0012 -1.5337
 9431TIP3    H228258   3.961   4.183   0.724  0.2374 -0.8069  0.3343
 9432TIP3   OH228259   4.414   2.383   3.953  0.1591  0.1831 -0.1597
 9432TIP3    H128260   4.467   2.460   3.976 -1.4738  1.0977  0.6838
 9432TIP3    H228261   4.417   2.328   4.031  3.0924 -1.7673 -1.4591
 9433TIP3   OH228262   5.908   1.430   5.121 -0.4147  0.2189 -0.1800
 9433TIP3    H128263   5.949   1.352   5.082  0.7895  1.1572 -0.8909
 9433TIP3    H228264   5.864   1.473   5.048  0.5982  1.2185 -0.2260
 9434TIP3   OH228265   0.555   6.074   5.688  0.1048 -0.1757  0.9892
 9434TIP3    H128266   0.618   6.013   5.725  0.4781 -0.3255  0.1306
 9434TIP3    H228267   0.494   6.092   5.759  0.6336 -0.6813  1.5795
 9435TIP3   OH228268   6.899   1.223   4.423  0.0752  0.8287 -0.1237
 9435TIP3    H128269   6.969   1.210   4.360  0.4565 -0.0658  0.4603
 9435TIP3    H228270   6.938   1.276   4.493  0.1446  0.4200  0.1513
 9436TIP3   OH228271   4.559   2.627   0.105 -0.1667 -0.0697 -0.3418
 9436TIP3    H128272   4.620   2.623   0.031  1.0215 -3.1700  0.6020
 9436TIP3    H228273   4.478   2.588   0.072 -0.9322  1.9666 -0.9691
 9437TIP3   OH228274   2.026   3.321   0.834  0.3863 -0.0822  0.0522
 9437TIP3    H128275   1.989   3.363   0.912  2.0044  0.9468  0.3117
 9437TIP3    H228276   2.120   3.336   0.841  0.5806 -0.0065 -2.0908
 9438TIP3   OH228277   0.868   1.768   3.608  0.1935  0.2757 -0.3167
 9438TIP3    H128278   0.831   1.681   3.622  0.1430  0.2586 -0.5534
 9438TIP3    H228279   0.792   1.824   3.590  0.0647  0.6835  1.3173
 9439TIP3   OH228280   1.324   6.513   3.555  0.0378 -0.2136  0.7351
 9439TIP3    H128281   1.311   6.580   3.488 -1.0168  0.6484  1.7542
 9439TIP3    H228282   1.329   6.430   3.506 -3.1611  0.0838 -0.3084
 9440TIP3   OH228283   6.630   2.057   4.066 -0.1568 -0.3467 -0.3935
 9440TIP3    H128284   6.600   2.147   4.054  0.0348 -0.3594 -0.9739
 9440TIP3    H228285   6.554   2.003   4.046  0.0129 -0.3493 -1.0303
 9441TIP3   OH228286   4.630   6.363   1.217 -0.6130  0.3701 -0.0734
 9441TIP3    H128287   4.605   6.434   1.276  0.9068  0.1904  0.8233
 9441TIP3    H228288   4.635   6.285   1.273  3.3542  0.6622  0.1956
 9442TIP3   OH228289   5.081   1.214   3.091 -0.1458 -0.1071 -0.1265
 9442TIP3    H128290   5.051   1.125   3.111 -1.4813  0.2734 -0.3782
 9442TIP3    H228291   5.165   1.201   3.048 -0.6128 -1.2972 -0.7243
 9443TIP3   OH228292   6.177   2.119   1.647 -0.3019  0.5216 -0.2796
 9443TIP3    H128293   6.182   2.042   1.704 -1.4855  1.5692  1.3310
 9443TIP3    H228294   6.211   2.089   1.563  0.9641 -1.2470  0.8064
 9444TIP3   OH228295   6.103   0.055   1.496  0.2584 -0.0391  0.2048
 9444TIP3    H128296   6.049   0.121   1.540  1.7416  1.3062  0.0907
 9444TIP3    H228297   6.146   0.008   1.568  0.0414 -0.1534  0.2611
 9445TIP3   OH228298   0.421   3.359   5.211 -0.2230  0.2707 -0.1082
 9445TIP3    H128299   0.477   3.356   5.289 -0.1175 -0.5247 -0.2041
 9445TIP3    H228300   0.425   3.270   5.175 -1.7773  0.1097  0.0427
 9446TIP3   OH228301   1.122   0.425   2.806 -0.3192  0.5162 -0.1355
 9446TIP3    H128302   1.128   0.508   2.757  1.1422  0.5269  0.0410
 9446TIP3    H228303   1.097   0.452   2.894  0.8558  0.8462  0.1064
 9447TIP3   OH228304   5.769   1.965   5.133  0.1858  0.4449  1.1292
 9447TIP3    H128305   5.735   1.985   5.046  0.9474 -0.7823  0.5243
 9447TIP3    H228306   5.696   1.921   5.178  0.4282 -0.7500  0.3891
 9448TIP3   OH228307   2.163   4.103   5.758 -0.0915  0.2611  0.4643
 9448TIP3    H128308   2.106   4.034   5.722 -1.3090  1.4149  0.1232
 9448TIP3    H228309   2.213   4.134   5.683 -0.4195  0.5737  0.3738
 9449TIP3   OH228310   4.550   1.491   2.944 -0.1069 -0.2713  0.3508
 9449TIP3    H128311   4.455   1.500   2.954 -0.1511 -0.4399  0.1021
 9449TIP3    H228312   4.583   1.489   3.034 -0.1688  1.4532  0.4579
 9450TIP3   OH228313   5.672   0.589   4.717 -0.2772  0.0335 -0.5540
 9450TIP3    H128314   5.640   0.665   4.766  2.1120  0.4933  0.4546
 9450TIP3    H228315   5.758   0.616   4.685  0.4371 -2.0931 -0.5725
 9451TIP3   OH228316   4.261   0.685   0.847 -0.6729 -0.1359 -0.1739
 9451TIP3    H128317   4.201   0.616   0.819 -1.0664  0.6475 -1.3623
 9451TIP3    H228318   4.223   0.765   0.811  0.3094  0.5686  0.3178
 9452TIP3   OH228319   6.557   1.006   0.582 -0.3232 -0.3801  0.7349
 9452TIP3    H128320   6.514   1.091   0.571 -1.2114 -0.7569  1.1355
 9452TIP3    H228321   6.650   1.026   0.587 -0.6016  0.7373  2.2420
 9453TIP3   OH228322   3.627   1.872   4.922  0.1042  0.4695 -0.4392
 9453TIP3    H128323   3.675   1.938   4.972 -1.1760 -0.1073  1.6763
 9453TIP3    H228324   3.665   1.789   4.950 -1.7812  0.0294  0.9974
 9454TIP3   OH228325   5.253   3.570   2.757 -0.1848  0.2630  0.2727
 9454TIP3    H128326   5.223   3.502   2.817  0.3755 -0.9328 -0.7389
 9454TIP3    H228327   5.207   3.649   2.783 -1.6173 -0.7406  0.8585
 9455TIP3   OH228328   5.237   6.562   4.366  0.3723  0.2856  0.4776
 9455TIP3    H128329   5.189   6.598   4.441  0.4196  1.0183  0.1575
 9455TIP3    H228330   5.324   6.601   4.372  1.1524 -1.4462  1.3639
 9456TIP3   OH228331   0.713   6.601   3.074  0.1354  0.0069  0.0618
 9456TIP3    H128332   0.805   6.622   3.091 -0.2630  1.0737  1.0048
 9456TIP3    H228333   0.669   6.686   3.074 -0.8701 -0.5002 -0.3005
 9457TIP3   OH228334   1.977   3.967   0.930  0.0237  0.2850  0.4753
 9457TIP3    H128335   2.066   3.975   0.898 -0.0762  1.3452  0.4280
 9457TIP3    H228336   1.922   3.985   0.854 -0.2175  2.9683  1.1776
 9458TIP3   OH228337   0.394   5.668   4.084 -0.6492  0.0855 -0.6068
 9458TIP3    H128338   0.314   5.645   4.037 -0.4207  1.5677 -1.7809
 9458TIP3    H228339   0.456   5.599   4.061 -1.2575 -0.4874 -0.5544
 9459TIP3   OH228340   4.144   0.794   2.983 -0.2465 -0.2908 -0.4086
 9459TIP3    H128341   4.223   0.767   2.937 -0.4800 -1.9779  0.1226
 9459TIP3    H228342   4.072   0.767   2.926 -0.5262 -2.1193  0.7025
 9460TIP3   OH228343   2.027   5.600   0.736  0.2667  0.5901 -0.0135
 9460TIP3    H128344   2.040   5.694   0.720  1.5840  0.5513  0.7119
 9460TIP3    H228345   1.936   5.593   0.763 -0.0467  1.5675 -0.7645
 9461TIP3   OH228346   6.886   0.381   1.286 -0.1011  0.0748  0.0210
 9461TIP3    H128347   6.922   0.456   1.332 -0.0236  0.6071 -0.8892
 9461TIP3    H228348   6.947   0.364   1.215  0.0381 -1.0439  0.3885
 9462TIP3   OH228349   4.678   5.560   2.571  0.1626  0.2233  0.1447
 9462TIP3    H128350   4.698   5.579   2.479  0.0179  0.1255  0.0938
 9462TIP3    H228351   4.758   5.584   2.618 -0.4355  2.2704  0.2488
 9463TIP3   OH228352   7.203   1.688   3.845  0.0912 -0.1493 -0.5509
 9463TIP3    H128353   7.138   1.627   3.881 -0.7686  0.5678 -0.8578
 9463TIP3    H228354   7.202   1.762   3.906 -0.0117  0.2453 -1.0288
 9464TIP3   OH228355   4.117   2.984   5.034 -0.4601 -0.2470  0.8806
 9464TIP3    H128356   4.164   2.970   5.116 -0.8501 -0.2508  1.1068
 9464TIP3    H228357   4.035   2.937   5.045  0.1367 -1.5953 -0.1307
 9465TIP3   OH228358   6.167   2.704   0.532  0.1258  0.1409 -0.6084
 9465TIP3    H128359   6.224   2.636   0.567 -0.8116 -1.2503 -1.6792
 9465TIP3    H228360   6.095   2.657   0.492 -0.6907  1.7915 -1.1824
 9466TIP3   OH228361   3.826   6.306   0.289 -0.5421  0.3093 -0.3498
 9466TIP3    H128362   3.786   6.356   0.361 -0.9094 -1.2951  0.6342
 9466TIP3    H228363   3.891   6.251   0.332 -0.2298 -0.1340 -1.3635
 9467TIP3   OH228364   5.139   0.217   0.191 -0.1025  0.1798 -0.0169
 9467TIP3    H128365   5.152   0.128   0.225 -0.9431 -0.2468 -0.7647
 9467TIP3    H228366   5.159   0.274   0.265  0.9469 -0.6120  0.3241
 9468TIP3   OH228367   3.698   5.920   0.845  1.0203  0.1582 -0.1328
 9468TIP3    H128368   3.732   5.951   0.761  2.4220 -1.6406 -0.2812
 9468TIP3    H228369   3.711   5.825   0.842 -1.9734 -0.3702  0.7809
 9469TIP3   OH228370   0.936   3.798   4.066  0.4916 -0.6622 -0.0532
 9469TIP3    H128371   1.006   3.738   4.041  0.6784  0.2226 -1.8795
 9469TIP3    H228372   0.897   3.759   4.144  2.4329 -1.6340  0.4833
 9470TIP3   OH228373   2.795   2.971   3.328  0.8385  0.2220  1.1502
 9470TIP3    H128374   2.738   3.021   3.270  0.1942 -1.6173  0.1160
 9470TIP3    H228375   2.880   3.014   3.321  0.7799  0.0963 -1.1667
 9471TIP3   OH228376   5.998   3.129   0.448  0.4225  0.2631  0.0900
 9471TIP3    H128377   6.067   3.193   0.468  0.7937 -0.0358 -0.2172
 9471TIP3    H228378   5.987   3.079   0.529 -1.0483  1.7726  0.8993
 9472TIP3   OH228379   5.714   5.439   4.267 -0.6860  0.2979  0.2167
 9472TIP3    H128380   5.678   5.525   4.242  0.9332  0.7978 -0.4953
 9472TIP3    H228381   5.753   5.405   4.187 -0.7636 -0.8582  0.6468
 9473TIP3   OH228382   6.489   0.985   0.864  0.3653  0.2257  0.3274
 9473TIP3    H128383   6.526   1.068   0.895  0.6331 -0.1379  0.9995
 9473TIP3    H228384   6.529   0.971   0.778  2.1854 -0.3858  1.2161
 9474TIP3   OH228385   0.808   0.046   1.335 -0.6820 -0.0363 -0.2124
 9474TIP3    H128386   0.759   0.098   1.400 -0.1417  1.9505 -1.2976
 9474TIP3    H228387   0.818  -0.040   1.376 -2.4569  0.3966  1.2991
 9475TIP3   OH228388   7.218   3.146   3.631 -0.0786 -0.5408 -0.2623
 9475TIP3    H128389   7.198   3.236   3.656 -1.3959 -0.3021 -2.0012
 9475TIP3    H228390   7.135   3.099   3.637  0.3735 -1.3913 -0.4159
 9476TIP3   OH228391   1.161   0.846   3.388 -0.0880  0.1209  0.0738
 9476TIP3    H128392   1.136   0.816   3.300  1.7577 -1.0125 -0.1369
 9476TIP3    H228393   1.144   0.771   3.444 -0.5966  0.6015  0.5678
 9477TIP3   OH228394   2.712   6.454   4.994 -0.6596  0.3426  0.6291
 9477TIP3    H128395   2.787   6.509   5.017 -0.7599 -0.0124  1.8784
 9477TIP3    H228396   2.641   6.515   4.978 -0.3089  0.6489  0.2167
 9478TIP3   OH228397   1.381   1.572   5.191  0.3575  0.2914 -0.5958
 9478TIP3    H128398   1.335   1.649   5.225  2.3236  0.9453  0.7477
 9478TIP3    H228399   1.433   1.605   5.118  0.1054 -0.0698 -0.9417
 9479TIP3   OH228400   3.827   6.102   2.969  0.3074  0.0691 -0.4425
 9479TIP3    H128401   3.769   6.029   2.948  1.2115 -0.4493 -1.2495
 9479TIP3    H228402   3.913   6.061   2.982  0.2705  0.6457  2.1317
 9480TIP3   OH228403   1.039   1.171   1.886  0.2496  0.1939  0.3034
 9480TIP3    H128404   1.017   1.217   1.805 -0.0737  1.4650  1.0813
 9480TIP3    H228405   0.989   1.216   1.953  0.8979 -0.5184  1.2922
 9481TIP3   OH228406   1.651   2.446   5.353  0.1635 -0.1725 -0.1943
 9481TIP3    H128407   1.729   2.401   5.322  0.7608  0.0381  0.9685
 9481TIP3    H228408   1.682   2.506   5.421 -0.7055  1.5274 -1.2283
 9482TIP3   OH228409   0.595   5.633   5.814 -0.6914  0.1786 -0.1030
 9482TIP3    H128410   0.639   5.548   5.815 -2.3141 -0.7000 -0.4377
 9482TIP3    H228411   0.548   5.637   5.897  0.3938  1.3373  0.4853
 9483TIP3   OH228412   6.008   3.618   3.058 -0.1757  0.1530 -0.5091
 9483TIP3    H128413   5.951   3.568   3.117  0.7632 -0.2955  0.0554
 9483TIP3    H228414   6.052   3.681   3.116  0.0537  0.3492 -0.8970
 9484TIP3   OH228415   3.750   0.079   3.168  0.0838 -0.3007  0.1438
 9484TIP3    H128416   3.730   0.150   3.107 -0.1635  0.7370  1.3802
 9484TIP3    H228417   3.702   0.003   3.134  0.0557  0.2060 -1.0023
 9485TIP3   OH228418   0.412   4.664   3.561  0.6094 -0.6138  0.4466
 9485TIP3    H128419   0.475   4.640   3.493 -0.8527  0.1439 -1.2581
 9485TIP3    H228420   0.452   4.634   3.643  3.4736  0.4689 -0.4574
 9486TIP3   OH228421   0.848   6.409   0.678 -0.1126 -0.4137  0.2583
 9486TIP3    H128422   0.859   6.489   0.730 -0.4127  0.3226 -0.7661
 9486TIP3    H228423   0.759   6.416   0.643  0.5023 -0.2311 -1.3678
 9487TIP3   OH228424   6.598   2.930   1.616 -0.1454  0.5622 -0.3433
 9487TIP3    H128425   6.649   2.870   1.561  0.8339  2.0286 -1.0877
 9487TIP3    H228426   6.534   2.968   1.556 -1.4749 -0.4746  0.3596
 9488TIP3   OH228427   5.968   1.893   1.913 -0.0931  0.1183 -0.4632
 9488TIP3    H128428   5.902   1.903   1.981 -0.5827 -0.3861 -0.8493
 9488TIP3    H228429   5.919   1.860   1.837  0.5206  0.2099 -0.9100
 9489TIP3   OH228430   4.384   2.757   3.137 -0.2937  0.0515  0.2059
 9489TIP3    H128431   4.396   2.694   3.066 -2.3224  0.0367 -0.1803
 9489TIP3    H228432   4.300   2.734   3.175  0.8755 -0.1527  2.8849
 9490TIP3   OH228433   0.772   6.569   4.414  0.6606  0.3107  0.1992
 9490TIP3    H128434   0.761   6.643   4.473 -0.7702  2.8970 -3.0150
 9490TIP3    H228435   0.791   6.608   4.329  0.0580 -3.0330 -1.6694
 9491TIP3   OH228436   0.144   3.127   5.377  0.2406  0.3343 -0.1682
 9491TIP3    H128437   0.236   3.150   5.364  1.5884 -2.6698  2.6763
 9491TIP3    H228438   0.117   3.178   5.453  0.5432 -0.9210  0.8120
 9492TIP3   OH228439   5.625   1.903   2.903 -0.4148  0.3101 -0.5326
 9492TIP3    H128440   5.618   1.859   2.988 -0.0563 -1.2668 -1.2752
 9492TIP3    H228441   5.534   1.922   2.879 -0.4776  1.5462  0.5518
 9493TIP3   OH228442   2.256   4.039   1.948 -0.1365  0.7978 -0.4132
 9493TIP3    H128443   2.336   4.025   2.000  0.5408  2.2099 -1.0312
 9493TIP3    H228444   2.185   4.037   2.012  0.3367 -0.6831  0.1239
 9494TIP3   OH228445   5.900   1.019   4.930  0.4491 -0.1480 -0.3573
 9494TIP3    H128446   5.875   1.086   4.993  0.6221 -0.0221 -0.4217
 9494TIP3    H228447   5.895   1.062   4.844 -1.2291 -0.7243 -0.5847
 9495TIP3   OH228448   5.216   4.235   4.139  0.6207 -0.3710  0.4630
 9495TIP3    H128449   5.144   4.177   4.161  0.9192 -0.7481  0.4618
 9495TIP3    H228450   5.190   4.320   4.173  0.7897 -0.7931  1.7074
 9496TIP3   OH228451   2.120   2.121   2.481 -0.1839 -0.2775  0.1459
 9496TIP3    H128452   2.027   2.099   2.472  0.2041 -1.9825 -0.1236
 9496TIP3    H228453   2.134   2.125   2.576 -0.4790 -0.2517  0.1913
 9497TIP3   OH228454   1.111   3.528   5.825  0.8658 -0.5211 -0.0787
 9497TIP3    H128455   1.058   3.454   5.797  0.5767  0.0428 -1.0678
 9497TIP3    H228456   1.159   3.496   5.902 -1.1000 -0.9525  1.0278
 9498TIP3   OH228457   0.822   5.544   3.150 -0.5232  0.5409 -0.5295
 9498TIP3    H128458   0.779   5.533   3.065  1.2713  0.9133 -1.5321
 9498TIP3    H228459   0.771   5.489   3.210  0.3334 -2.8225 -2.5877
 9499TIP3   OH228460   1.293   3.457   5.207  0.4754 -0.7080 -0.7323
 9499TIP3    H128461   1.201   3.472   5.185  0.7538  0.3684 -1.2120
 9499TIP3    H228462   1.291   3.424   5.297 -0.2802  0.7700 -0.1816
 9500TIP3   OH228463   4.552   5.435   3.846 -0.2222  0.1963  0.2348
 9500TIP3    H128464   4.487   5.480   3.792 -0.6469 -0.1393  0.4581
 9500TIP3    H228465   4.535   5.342   3.832 -0.2010  0.1035  0.7850
 9501TIP3   OH228466   5.259   3.485   0.503  0.0489  0.3771 -0.1934
 9501TIP3    H128467   5.175   3.499   0.460 -1.3635  1.3123  2.6140
 9501TIP3    H228468   5.248   3.402   0.550  0.6279  0.5938  0.3375
 9502TIP3   OH228469   4.403   0.056   3.274  0.1564 -0.4243 -0.2435
 9502TIP3    H128470   4.440   0.138   3.241  1.4203  0.4262  2.9317
 9502TIP3    H228471   4.314   0.079   3.302  0.9264  0.2783  1.7967
 9503TIP3   OH228472   2.659   2.115   0.437 -1.0602  0.2183 -0.3381
 9503TIP3    H128473   2.711   2.073   0.506  0.0353 -0.5666 -1.5830
 9503TIP3    H228474   2.710   2.192   0.414 -1.6105  0.6771 -0.0320
 9504TIP3   OH228475   2.230   0.421   5.279  0.0508  0.6695  0.1262
 9504TIP3    H128476   2.284   0.418   5.358 -2.2128 -1.6835  1.7465
 9504TIP3    H228477   2.263   0.350   5.225  0.4529  1.1546 -0.2827
 9505TIP3   OH228478   1.616   5.546   2.751  0.1319  0.3062  0.4127
 9505TIP3    H128479   1.559   5.498   2.811 -0.8449  1.5134  0.5126
 9505TIP3    H228480   1.556   5.580   2.684  0.9009  0.7035 -0.0933
 9506TIP3   OH228481   5.027   3.267   0.798  0.4528 -0.1841 -0.1024
 9506TIP3    H128482   4.962   3.257   0.728  0.1617 -0.1097  0.1581
 9506TIP3    H228483   5.037   3.179   0.834  0.5168 -0.1998 -0.1570
 9507TIP3   OH228484   3.614   2.195   4.740 -0.1188  0.0650  0.1401
 9507TIP3    H128485   3.672   2.161   4.809 -0.3615  0.2640  0.4453
 9507TIP3    H228486   3.658   2.273   4.707  0.5288 -0.6321 -0.6857
 9508TIP3   OH228487   3.279   0.589   0.425 -0.3122 -0.2653  0.3510
 9508TIP3    H128488   3.189   0.586   0.456 -0.5048 -0.6575 -0.2264
 9508TIP3    H228489   3.277   0.646   0.349 -0.0927 -0.3761  0.2602
 9509TIP3   OH228490   0.694   1.647   2.232  0.0560 -0.0314 -0.3000
 9509TIP3    H128491   0.642   1.568   2.217  1.6376 -0.9924 -1.0521
 9509TIP3    H228492   0.631   1.713   2.261 -1.6019 -1.0404 -1.4625
 9510TIP3   OH228493   4.722   3.241   0.617  0.0552 -0.6006 -0.5776
 9510TIP3    H128494   4.654   3.200   0.562  0.0587  0.0737 -1.0897
 9510TIP3    H228495   4.682   3.322   0.648  0.6126 -0.2329 -0.8265
 9511TIP3   OH228496   1.505   2.555   4.569 -0.2953  0.4690  0.3504
 9511TIP3    H128497   1.430   2.539   4.512 -0.0438 -0.9860  0.4043
 9511TIP3    H228498   1.475   2.530   4.656  0.6891 -1.6192  0.1416
 9512TIP3   OH228499   5.623   1.230   2.184 -0.5804  0.3346  0.1724
 9512TIP3    H128500   5.636   1.253   2.277  2.4747 -2.8075  0.7039
 9512TIP3    H228501   5.705   1.254   2.142 -1.5164  0.6646 -1.5585
 9513TIP3   OH228502   6.206   1.127   3.194 -0.1178 -0.6715 -0.0570
 9513TIP3    H128503   6.272   1.194   3.182  0.1551 -1.0580 -0.7762
 9513TIP3    H228504   6.123   1.170   3.172  0.0267 -0.4958 -0.2571
 9514TIP3   OH228505   5.586   2.377   3.286 -0.4112 -0.5676 -0.2623
 9514TIP3    H128506   5.543   2.402   3.204  0.8792 -1.4312 -1.2572
 9514TIP3    H228507   5.579   2.281   3.288  1.1264 -0.7069 -0.2995
 9515TIP3   OH228508   2.326   6.481   4.063 -0.5417  0.8557 -0.0431
 9515TIP3    H128509   2.336   6.569   4.027 -0.6244  0.4459 -1.0967
 9515TIP3    H228510   2.405   6.434   4.034 -1.0723  0.2436 -0.5093
 9516TIP3   OH228511   6.128   0.907   3.920 -0.1154 -0.2784 -0.2110
 9516TIP3    H128512   6.035   0.908   3.941 -0.0609  2.0390  0.1028
 9516TIP3    H228513   6.170   0.867   3.997 -0.8019 -1.0942 -0.2505
 9517TIP3   OH228514   0.290   5.317   3.699  0.3331  0.5166 -0.0223
 9517TIP3    H128515   0.327   5.338   3.613  1.7890 -3.9529 -0.7782
 9517TIP3    H228516   0.196   5.324   3.686  0.5848  2.1243 -1.2820
 9518TIP3   OH228517   0.112   1.848   4.505  0.0758  0.0339  0.1284
 9518TIP3    H128518   0.119   1.875   4.414 -1.3939  1.3366  0.3584
 9518TIP3    H228519   0.202   1.832   4.533  0.6762  1.0682 -1.1232
 9519TIP3   OH228520   1.204   3.722   3.279  0.1439  0.0738 -0.1013
 9519TIP3    H128521   1.272   3.702   3.215 -1.3662  0.7213 -2.0060
 9519TIP3    H228522   1.148   3.786   3.236 -1.0255  0.4462  1.8434
 9520TIP3   OH228523   4.798   3.610   4.561  0.7148  0.2812  0.2058
 9520TIP3    H128524   4.757   3.526   4.580  2.2981 -0.4268  0.6664
 9520TIP3    H228525   4.795   3.617   4.466 -1.9242  1.0725  0.2437
 9521TIP3   OH228526   3.885   4.959   4.994  0.3965  0.1906 -0.6163
 9521TIP3    H128527   3.851   5.000   4.914 -0.0432 -2.4843 -1.9229
 9521TIP3    H228528   3.975   4.936   4.973  0.4720  0.0086 -0.1069
 9522TIP3   OH228529   2.084   3.361   1.533 -0.2496  0.4755  0.1595
 9522TIP3    H128530   2.080   3.455   1.551  0.6656  0.8054 -1.2118
 9522TIP3    H228531   2.048   3.320   1.612  0.2691  1.9293  1.1915
 9523TIP3   OH228532   2.544   3.641   3.932  0.6393 -0.4238  0.2062
 9523TIP3    H128533   2.614   3.658   3.995  1.3200  0.6311 -0.7964
 9523TIP3    H228534   2.465   3.635   3.985  1.2136  0.3243  1.1716
 9524TIP3   OH228535   3.844   5.593   4.870 -0.3229 -0.1073  0.4887
 9524TIP3    H128536   3.852   5.498   4.866  1.0992  0.0329 -0.6345
 9524TIP3    H228537   3.756   5.611   4.836 -0.7039 -1.0253  0.9563
 9525TIP3   OH228538   4.111   1.147   2.074 -0.0316  0.0595  0.2429
 9525TIP3    H128539   4.168   1.221   2.052  0.5454 -0.6300 -0.6680
 9525TIP3    H228540   4.023   1.178   2.054  0.4205 -0.3931 -2.8817
 9526TIP3   OH228541   0.972   5.898   0.663  0.5120  0.0602 -0.3345
 9526TIP3    H128542   1.065   5.913   0.646  0.2286  1.0970 -1.1041
 9526TIP3    H228543   0.929   5.976   0.629 -0.6041 -0.1769  0.4668
 9527TIP3   OH228544   2.177   6.680   5.046  0.4430  0.1114  0.2947
 9527TIP3    H128545   2.099   6.735   5.036 -0.1118 -0.6462  0.3697
 9527TIP3    H228546   2.179   6.658   5.139 -0.0624 -1.0124  0.0616
 9528TIP3   OH228547   4.594   0.412   4.358 -0.8959  0.4866  0.0198
 9528TIP3    H128548   4.687   0.392   4.366 -0.3217  2.8828  0.2228
 9528TIP3    H228549   4.565   0.365   4.280  1.0419  1.4015 -1.3292
 9529TIP3   OH228550   7.097   5.866   3.429 -0.0868  0.1505 -0.3587
 9529TIP3    H128551   7.192   5.872   3.443 -0.1036 -0.0010 -0.1767
 9529TIP3    H228552   7.058   5.921   3.497 -0.0536  2.2747 -1.9532
 9530TIP3   OH228553   4.102   3.721   5.848 -0.2685  0.3228 -0.1476
 9530TIP3    H128554   4.055   3.702   5.929 -2.0147  2.2512 -0.6208
 9530TIP3    H228555   4.063   3.663   5.783  0.6890 -0.7649  0.2133
 9531TIP3   OH228556   6.226   4.020   2.024 -0.1276 -0.2605 -0.6100
 9531TIP3    H128557   6.300   3.999   1.967  0.7976 -0.9043  0.7656
 9531TIP3    H228558   6.227   3.952   2.091 -1.0144  0.5975  0.3140
 9532TIP3   OH228559   0.765   0.219   5.277  0.6065 -0.5212 -0.1747
 9532TIP3    H128560   0.791   0.143   5.224  0.8308 -0.8029  0.3301
 9532TIP3    H228561   0.673   0.205   5.296  1.1411 -1.8153  1.7488
 9533TIP3   OH228562   2.297   3.570   0.942  0.4516  0.0528 -0.2649
 9533TIP3    H128563   2.331   3.481   0.945 -2.1477 -1.0826 -1.5119
 9533TIP3    H228564   2.237   3.575   1.017 -1.4118 -0.2211 -1.6662
 9534TIP3   OH228565   4.275   2.343   3.499 -0.6554  0.4133 -0.1567
 9534TIP3    H128566   4.362   2.343   3.540 -0.5074 -0.2929 -0.4627
 9534TIP3    H228567   4.227   2.273   3.542 -1.1599  0.9515  0.1706
 9535TIP3   OH228568   1.135   2.016   5.247  0.3733  0.5631 -0.1317
 9535TIP3    H128569   1.057   2.028   5.300  0.9989  2.2456  0.4902
 9535TIP3    H228570   1.175   2.103   5.244  2.3414 -0.2901 -0.2090
 9536TIP3   OH228571   2.784   2.502   3.048  0.2926 -0.2738  0.2382
 9536TIP3    H128572   2.757   2.518   3.139  0.9650 -2.4625  0.8965
 9536TIP3    H228573   2.775   2.586   3.005 -2.1168  0.3662  1.7974
 9537TIP3   OH228574   1.203   4.282   0.421 -0.2228  0.2957  0.5638
 9537TIP3    H128575   1.211   4.316   0.510 -0.6733  1.1381  0.2923
 9537TIP3    H228576   1.268   4.332   0.371  1.2641 -1.3714  0.7310
 9538TIP3   OH228577   3.930   6.713   4.053  0.3789  0.4576 -0.0056
 9538TIP3    H128578   3.902   6.778   3.988  0.8514 -0.6216 -1.3382
 9538TIP3    H228579   3.857   6.651   4.059  0.4280  0.4302  0.3292
 9539TIP3   OH228580   6.707   3.674   2.620  0.2820  0.5112  1.1237
 9539TIP3    H128581   6.725   3.652   2.711  2.0048  0.6734  0.8567
 9539TIP3    H228582   6.793   3.679   2.579 -0.3396  2.4515 -0.0581
 9540TIP3   OH228583   2.086   2.360   4.221 -0.6145 -0.0438  0.4375
 9540TIP3    H128584   1.993   2.377   4.208 -1.1089 -1.2397  1.9651
 9540TIP3    H228585   2.090   2.265   4.235  0.6697  0.1260  1.4106
 9541TIP3   OH228586   5.515   4.127   3.121 -0.4501  0.1713  0.2384
 9541TIP3    H128587   5.610   4.130   3.112 -0.4775 -1.3981 -0.9831
 9541TIP3    H228588   5.495   4.194   3.186  1.6087 -0.4039  1.5448
 9542TIP3   OH228589   0.895   5.653   2.254  0.1466  1.0348  0.7159
 9542TIP3    H128590   0.946   5.624   2.179  0.5066  0.4037  1.1931
 9542TIP3    H228591   0.862   5.573   2.294 -0.0001  1.3543  1.2568
 9543TIP3   OH228592   3.695   6.302   1.592  0.3085  0.1933 -0.2476
 9543TIP3    H128593   3.722   6.380   1.544 -1.8735  0.1607 -1.6448
 9543TIP3    H228594   3.636   6.336   1.660 -0.2746 -0.1798 -0.5621
 9544TIP3   OH228595   4.246   4.016   5.325 -0.0031  0.1396  0.1813
 9544TIP3    H128596   4.221   3.924   5.319 -0.1096  0.2568 -1.7734
 9544TIP3    H228597   4.309   4.028   5.254 -0.0144  1.5733  0.3930
 9545TIP3   OH228598   1.400   1.931   5.057  0.0866  0.7305 -0.1454
 9545TIP3    H128599   1.307   1.913   5.071  0.6290 -0.8706  2.0311
 9545TIP3    H228600   1.407   1.956   4.964 -2.1565 -1.7918 -1.1220
 9546TIP3   OH228601   3.092   2.237   1.063 -0.2561  0.0161  0.5038
 9546TIP3    H128602   3.060   2.160   1.110 -0.8525 -0.0042  0.0819
 9546TIP3    H228603   3.065   2.311   1.117 -2.0548  0.0707 -0.3641
 9547TIP3   OH228604   3.887   4.109   4.727 -0.0722  0.4423 -0.2130
 9547TIP3    H128605   3.807   4.083   4.681  0.1837  0.9968 -1.0003
 9547TIP3    H228606   3.881   4.205   4.732 -0.5496  0.3518  1.7837
 9548TIP3   OH228607   5.391   1.119   3.169  0.4664  0.5289  0.4860
 9548TIP3    H128608   5.393   1.110   3.074  0.4786  2.3117  0.2795
 9548TIP3    H228609   5.482   1.105   3.196  0.3873 -0.4191  0.3079
 9549TIP3   OH228610   2.628   5.152   1.956 -0.1794  0.4818  0.8619
 9549TIP3    H128611   2.540   5.130   1.986 -1.1597 -0.6037 -2.3013
 9549TIP3    H228612   2.661   5.215   2.020 -3.4879  1.4138  1.8501
 9550TIP3   OH228613   2.325   5.584   1.965 -0.2698 -0.3432 -0.2484
 9550TIP3    H128614   2.258   5.516   1.957 -0.5126 -0.0394 -0.8329
 9550TIP3    H228615   2.336   5.596   2.060  0.6161 -2.0033 -0.1100
 9551TIP3   OH228616   1.392   2.195   0.387 -0.5173  0.0562 -0.2776
 9551TIP3    H128617   1.472   2.238   0.356 -0.4061 -0.0153 -0.0886
 9551TIP3    H228618   1.338   2.267   0.419 -0.1521  0.0148  0.4418
 9552TIP3   OH228619   3.887   4.994   5.621  0.0650 -0.2986 -0.3153
 9552TIP3    H128620   3.980   5.010   5.609  0.1022  0.2746  0.6378
 9552TIP3    H228621   3.844   5.053   5.559  0.2585  2.2007  1.7536
 9553TIP3   OH228622   6.393   1.044   1.918  0.5970 -0.6065  0.4718
 9553TIP3    H128623   6.470   1.000   1.881  0.9228 -1.1013  1.6892
 9553TIP3    H228624   6.429   1.118   1.968  0.1926 -0.1701  0.1260
 9554TIP3   OH228625   2.276   1.192   3.400 -0.0528 -0.0841 -0.4380
 9554TIP3    H128626   2.233   1.107   3.400  1.8048 -1.1209  0.8846
 9554TIP3    H228627   2.246   1.235   3.321 -2.5390 -1.1760 -0.1688
 9555TIP3   OH228628   6.080   3.411   0.008 -0.0913 -0.1770  0.1613
 9555TIP3    H128629   5.991   3.425  -0.022 -0.8463 -0.3106  2.1785
 9555TIP3    H228630   6.072   3.399   0.103  1.9716 -1.0580  0.2856
 9556TIP3   OH228631   2.918   5.329   2.519 -0.1910 -0.6864  0.2421
 9556TIP3    H128632   2.834   5.359   2.554 -0.7142 -0.8372 -0.8159
 9556TIP3    H228633   2.976   5.405   2.529 -1.0895  0.2349 -1.0422
 9557TIP3   OH228634   6.057   4.873   2.476 -0.6864 -0.1125 -0.2382
 9557TIP3    H128635   5.988   4.937   2.458 -0.8322 -0.1160  0.2880
 9557TIP3    H228636   6.020   4.789   2.449 -0.2149  0.1002 -1.6572
 9558TIP3   OH228637   3.153   6.634   5.787 -0.6615  0.0458 -0.1502
 9558TIP3    H128638   3.120   6.668   5.871 -1.8270  1.9470 -1.3095
 9558TIP3    H228639   3.245   6.613   5.804 -0.7999  0.6496  1.5438
 9559TIP3   OH228640   4.772   5.948   3.100 -0.1054  0.1268 -0.1706
 9559TIP3    H128641   4.707   5.957   3.030 -0.8793 -0.3541  0.4829
 9559TIP3    H228642   4.764   6.029   3.151 -0.7345 -0.2706  0.3650
 9560TIP3   OH228643   0.150   1.069   4.443 -0.0057 -0.0750 -0.6985
 9560TIP3    H128644   0.221   1.013   4.413  0.5854  0.7192 -0.8175
 9560TIP3    H228645   0.081   1.008   4.471  1.7042 -0.9704  1.9594
 9561TIP3   OH228646   2.025   1.181   2.373  0.5474 -0.0671  0.0746
 9561TIP3    H128647   2.057   1.123   2.304 -2.3368 -0.3530 -1.1536
 9561TIP3    H228648   1.931   1.188   2.357 -0.2517  0.0412  3.8602
 9562TIP3   OH228649   0.669   0.846   1.630  0.0204  0.5388  0.1778
 9562TIP3    H128650   0.672   0.805   1.543 -0.5305  1.9305 -0.5455
 9562TIP3    H228651   0.699   0.779   1.690  0.4932 -0.4416 -1.1105
 9563TIP3   OH228652   5.563   0.037   4.846 -0.0624 -0.2880 -0.3931
 9563TIP3    H128653   5.625  -0.034   4.863  1.0536  0.5354 -0.9740
 9563TIP3    H228654   5.523   0.015   4.762  0.3636 -0.1686 -0.6265
 9564TIP3   OH228655   1.412   3.016   2.960  0.1011 -0.0743  0.2556
 9564TIP3    H128656   1.323   3.052   2.957 -0.3846 -1.2085  0.4504
 9564TIP3    H228657   1.469   3.092   2.949 -0.9009  0.4458 -2.0276
 9565TIP3   OH228658   7.215   5.922   0.204 -0.1613  0.1052  0.1628
 9565TIP3    H128659   7.286   5.940   0.266  0.2889 -1.8445  0.2760
 9565TIP3    H228660   7.142   5.893   0.259  0.0963 -1.2104 -0.1601
 9566TIP3   OH228661   0.843   3.257   2.201 -0.2043 -0.4060  0.0689
 9566TIP3    H128662   0.894   3.178   2.188 -0.1572 -0.1209 -1.7068
 9566TIP3    H228663   0.882   3.321   2.141 -1.5537  0.3174 -0.0831
 9567TIP3   OH228664   7.170   0.579   2.923  0.0388 -0.1334  0.3869
 9567TIP3    H128665   7.151   0.487   2.940 -1.7426  0.1063 -0.1516
 9567TIP3    H228666   7.200   0.613   3.008 -0.6942 -0.8705  0.9521
 9568TIP3   OH228667   0.991   0.901   1.818  0.0706 -0.0755  0.2658
 9568TIP3    H128668   1.013   0.990   1.847  1.5939 -0.2722 -0.2049
 9568TIP3    H228669   1.011   0.901   1.724 -0.4988 -0.7557  0.1376
 9569TIP3   OH228670   0.287   3.048   2.421 -0.0367 -0.6876  0.4199
 9569TIP3    H128671   0.250   2.995   2.492 -0.1922  0.9746  1.6313
 9569TIP3    H228672   0.382   3.034   2.429 -0.0700 -0.7347  0.7759
 9570TIP3   OH228673   1.480   4.714   4.195 -0.4372 -0.0996 -0.0564
 9570TIP3    H128674   1.522   4.631   4.177  0.2405 -0.0288  1.0873
 9570TIP3    H228675   1.530   4.751   4.268 -2.5782 -0.1156  1.5131
 9571TIP3   OH228676   6.066   1.531   0.307 -0.0713  0.0555  0.3287
 9571TIP3    H128677   6.051   1.620   0.341  3.2648  1.5432 -1.6173
 9571TIP3    H228678   6.074   1.543   0.212  1.0784 -2.2508  0.0761
 9572TIP3   OH228679   4.473   1.112   0.656  0.3392  0.1260  0.2847
 9572TIP3    H128680   4.417   1.061   0.715 -0.7846  1.5045  0.4672
 9572TIP3    H228681   4.558   1.067   0.659 -0.2770 -1.0403  1.3253
 9573TIP3   OH228682   0.977   6.299   1.829 -0.5262  0.6234  0.6167
 9573TIP3    H128683   1.046   6.291   1.763 -1.5487  1.5451 -0.6256
 9573TIP3    H228684   0.926   6.218   1.821 -2.6630  2.0473 -2.2202
 9574TIP3   OH228685   3.598   4.884   1.066  0.5216  0.4727  0.2585
 9574TIP3    H128686   3.581   4.903   1.158  2.5351 -0.6162  0.9037
 9574TIP3    H228687   3.515   4.848   1.034 -0.6055  2.0272  1.2619
 9575TIP3   OH228688   6.745   6.587   3.169  0.0015  0.0517  0.0356
 9575TIP3    H128689   6.764   6.494   3.184 -0.4023 -0.2418 -1.2132
 9575TIP3    H228690   6.820   6.633   3.207  0.1330 -0.7736  0.7927
 9576TIP3   OH228691   1.961   1.450   3.638 -0.0127 -0.1788 -0.3434
 9576TIP3    H128692   1.914   1.491   3.711  1.9797  0.4128  0.6898
 9576TIP3    H228693   2.025   1.393   3.681 -0.3866 -1.7160 -1.7074
 9577TIP3   OH228694   4.291   1.802   4.867  0.1289 -0.1730  0.5203
 9577TIP3    H128695   4.361   1.740   4.884 -0.5853 -1.4158 -0.9001
 9577TIP3    H228696   4.216   1.748   4.841 -1.5087  1.0614  2.2993
 9578TIP3   OH228697   1.715   2.025   3.314 -0.4152 -0.5121 -0.3932
 9578TIP3    H128698   1.780   2.043   3.382  0.0092  0.6305 -1.0879
 9578TIP3    H228699   1.739   2.081   3.241 -1.2291 -1.2757 -1.2797
 9579TIP3   OH228700   2.385   1.009   0.646 -0.0507 -0.0095 -0.2244
 9579TIP3    H128701   2.317   1.059   0.600 -1.5005 -1.4478  0.3017
 9579TIP3    H228702   2.467   1.036   0.603 -1.1557  0.1034 -2.3950
 9580TIP3   OH228703   4.852   1.297   4.812  0.1184 -0.0516  0.5410
 9580TIP3    H128704   4.905   1.346   4.749  0.8171 -1.7930 -0.3015
 9580TIP3    H228705   4.915   1.251   4.867 -0.4869  1.5063  2.6405
 9581TIP3   OH228706   3.747   2.720   3.787 -0.4020  0.0505 -0.0580
 9581TIP3    H128707   3.812   2.776   3.743 -1.6961 -0.2972 -2.6061
 9581TIP3    H228708   3.738   2.644   3.729  1.4663 -3.1131  3.3549
 9582TIP3   OH228709   6.791   4.131   5.500 -0.6856  0.1630 -0.3864
 9582TIP3    H128710   6.773   4.209   5.552 -3.7354 -0.2580 -0.6415
 9582TIP3    H228711   6.865   4.156   5.444  0.1086  1.9315  1.3185
 9583TIP3   OH228712   4.266   6.451   5.751 -0.0645  0.1859 -0.3419
 9583TIP3    H128713   4.234   6.539   5.771 -0.4038  0.3345 -1.4451
 9583TIP3    H228714   4.305   6.459   5.664 -0.8617 -0.9378 -0.8276
 9584TIP3   OH228715   5.933   5.643   1.127  0.3750  0.0462  0.5856
 9584TIP3    H128716   5.861   5.580   1.140 -1.8015  1.7790 -1.9304
 9584TIP3    H228717   6.009   5.588   1.109 -1.9126 -2.2565 -4.1334
 9585TIP3   OH228718   7.110   0.391   1.133  0.1329 -0.1273  0.2737
 9585TIP3    H128719   7.142   0.315   1.085 -0.6447  0.3603 -1.0759
 9585TIP3    H228720   7.187   0.427   1.176  0.2236 -2.7541  2.5910
 9586TIP3   OH228721   6.933   4.469   2.764  0.2546  0.1940  0.5265
 9586TIP3    H128722   6.994   4.400   2.737 -0.6323 -0.8781  1.1885
 9586TIP3    H228723   6.861   4.464   2.701 -0.2067 -0.0521  1.0658
 9587TIP3   OH228724   6.344   5.084   2.174 -0.0736 -0.7190 -0.2377
 9587TIP3    H128725   6.343   4.993   2.143 -0.3236 -1.3310  1.4179
 9587TIP3    H228726   6.430   5.094   2.216 -0.8942 -0.9813  1.6231
 9588TIP3   OH228727   1.463   2.244   2.852 -0.2967 -0.6726 -0.2103
 9588TIP3    H128728   1.507   2.218   2.771  1.1039  1.1598 -0.1119
 9588TIP3    H228729   1.502   2.329   2.873 -1.9990 -0.2441  1.3791
 9589TIP3   OH228730   2.991   5.028   1.976  1.1614 -0.7610  0.3983
 9589TIP3    H128731   2.939   5.073   2.042  1.4671 -0.6176  0.5454
 9589TIP3    H228732   2.978   5.080   1.896  1.3485 -0.5271  0.5184
 9590TIP3   OH228733   0.527   4.929   3.212  0.0019  0.3598 -0.1267
 9590TIP3    H128734   0.433   4.920   3.197 -0.2162 -0.5872  1.5110
 9590TIP3    H228735   0.534   4.970   3.299  1.1170  1.4488 -0.6952
 9591TIP3   OH228736   3.730   5.836   3.698 -0.3643 -0.2795  0.0179
 9591TIP3    H128737   3.675   5.758   3.697  0.5249 -0.9315 -1.2989
 9591TIP3    H228738   3.820   5.802   3.699  0.1478  0.5739 -3.5338
 9592TIP3   OH228739   2.789   0.643   4.332  0.4315 -0.2125  0.1809
 9592TIP3    H128740   2.845   0.573   4.366  0.5814  0.5530  1.5742
 9592TIP3    H228741   2.700   0.616   4.355  0.5100  0.1632  0.9598
 9593TIP3   OH228742   3.992   0.404   0.955  0.2025  0.2059  0.0418
 9593TIP3    H128743   4.082   0.370   0.962  0.3253  0.7655  1.8412
 9593TIP3    H228744   3.943   0.355   1.021 -0.9348 -0.3766 -1.2017
 9594TIP3   OH228745   2.805   0.594   2.272 -0.4936  0.0208 -0.0109
 9594TIP3    H128746   2.741   0.574   2.340 -1.3138 -0.8294 -1.0040
 9594TIP3    H228747   2.845   0.509   2.251 -0.0532  0.3161 -0.3877
 9595TIP3   OH228748   4.307   6.202   4.767 -0.4315  0.0278  0.1886
 9595TIP3    H128749   4.295   6.153   4.685 -0.5392  1.9324 -1.0134
 9595TIP3    H228750   4.401   6.193   4.786  0.7027  3.2262 -2.7742
 9596TIP3   OH228751   7.015   4.817   4.339  0.3361  0.1051 -0.0439
 9596TIP3    H128752   7.020   4.790   4.248 -0.6371 -0.3411  0.0153
 9596TIP3    H228753   7.104   4.807   4.373  0.9600  1.3939 -1.2319
 9597TIP3   OH228754   5.042   6.593   1.091 -0.1069 -0.5210  0.5143
 9597TIP3    H128755   5.112   6.536   1.123  1.2055 -0.2366 -1.6967
 9597TIP3    H228756   4.988   6.537   1.036  1.0862  0.2386 -1.5216
 9598TIP3   OH228757   0.602   3.134   1.944 -0.3597 -0.2867  0.2567
 9598TIP3    H128758   0.686   3.093   1.926  0.0921  0.8858 -0.3859
 9598TIP3    H228759   0.620   3.227   1.946 -1.7887  0.0544 -0.7703
 9599TIP3   OH228760   5.180   3.476   2.250 -0.1312 -0.1441  0.3259
 9599TIP3    H128761   5.188   3.381   2.262 -3.7279 -0.5611  0.6239
 9599TIP3    H228762   5.165   3.510   2.338  1.1423  0.7488  0.2203
 9600TIP3   OH228763   0.544   5.102   5.578  0.4041  0.3166  0.4116
 9600TIP3    H128764   0.578   5.176   5.527 -1.8155  0.1934 -1.3816
 9600TIP3    H228765   0.588   5.025   5.540 -1.2624  0.2181 -1.4816
 9601TIP3   OH228766   7.145   3.184   3.196  0.2594  0.0468  0.3852
 9601TIP3    H128767   7.070   3.243   3.196 -1.0464 -1.4459 -1.7970
 9601TIP3    H228768   7.108   3.100   3.223  1.5314 -0.3343  0.9734
 9602TIP3   OH228769   4.656   2.088   3.325  0.0519  0.6143 -0.0968
 9602TIP3    H128770   4.716   2.020   3.355  0.1313  0.1311 -1.3106
 9602TIP3    H228771   4.581   2.082   3.385 -0.4612 -1.3344 -0.8552
 9603TIP3   OH228772   2.944   2.871   4.037 -0.7740 -0.5433  0.3280
 9603TIP3    H128773   2.922   2.783   4.006 -0.9475 -0.7334  0.9758
 9603TIP3    H228774   2.881   2.889   4.106  0.7912 -0.9362  1.9410
 9604TIP3   OH228775   2.939   2.665   5.796  0.1508  0.3738  0.1557
 9604TIP3    H128776   2.929   2.654   5.890 -0.1249  1.0832  0.2160
 9604TIP3    H228777   2.874   2.731   5.772  0.0721  0.0481 -0.5686
 9605TIP3   OH228778   4.872   0.832   1.600 -0.0356  0.5788 -0.1544
 9605TIP3    H128779   4.799   0.862   1.545  0.2775  0.6689 -0.5203
 9605TIP3    H228780   4.883   0.740   1.577  0.6837  0.8426 -0.9061
 9606TIP3   OH228781   0.194   3.990   1.267  0.2371 -0.3165 -0.1205
 9606TIP3    H128782   0.280   3.978   1.308 -0.0709  1.1649  1.0649
 9606TIP3    H228783   0.212   3.994   1.174  1.4021 -0.5056  0.0835
 9607TIP3   OH228784   1.363   4.846   1.884 -0.0284 -0.0355 -0.1076
 9607TIP3    H128785   1.326   4.920   1.836  0.0137 -1.1411 -1.9547
 9607TIP3    H228786   1.291   4.815   1.940 -0.4687  0.5752 -0.3252
 9608TIP3   OH228787   4.619   5.847   1.322  0.3953 -0.5652 -0.1009
 9608TIP3    H128788   4.697   5.853   1.267  0.1868 -1.7513 -0.5430
 9608TIP3    H228789   4.610   5.754   1.342 -1.3136 -0.5637 -0.6777
 9609TIP3   OH228790   3.873   5.956   0.066  0.3683  0.4252  0.2260
 9609TIP3    H128791   3.881   5.878   0.011  1.9956  1.1808 -0.6946
 9609TIP3    H228792   3.961   5.992   0.069 -0.4200  2.4857  0.2327
 9610TIP3   OH228793   5.974   4.960   2.809 -0.4009 -0.2270 -0.1217
 9610TIP3    H128794   5.931   4.993   2.888  0.3627 -0.0780  0.2404
 9610TIP3    H228795   6.038   5.028   2.787 -0.5740 -0.2887 -0.8435
 9611TIP3   OH228796   6.509   4.184   4.194 -0.2129  0.1453 -0.0856
 9611TIP3    H128797   6.557   4.228   4.264 -0.6984  0.7326 -0.1180
 9611TIP3    H228798   6.558   4.206   4.115  0.0233 -0.0711 -0.0030
 9612TIP3   OH228799   4.531   4.125   0.899 -0.1578  0.3333 -0.1279
 9612TIP3    H128800   4.597   4.195   0.898 -0.1157  0.2902 -0.5234
 9612TIP3    H228801   4.455   4.163   0.855 -1.0692  1.0162  1.9111
 9613TIP3   OH228802   2.758   1.825   4.920  0.1215 -0.2556 -0.1264
 9613TIP3    H128803   2.819   1.775   4.865 -0.6650 -2.9160  1.1977
 9613TIP3    H228804   2.684   1.844   4.864  0.9643  0.5478 -0.9967
 9614TIP3   OH228805   4.888   0.854   5.036  0.6242  0.7208  0.1692
 9614TIP3    H128806   4.924   0.767   5.019 -0.2261  0.2812  0.6055
 9614TIP3    H228807   4.965   0.912   5.035  1.2198 -0.0542  0.0836
 9615TIP3   OH228808   0.415   0.530   5.360 -0.2325  0.3293 -0.4963
 9615TIP3    H128809   0.459   0.523   5.445 -0.7365  1.5991 -0.0996
 9615TIP3    H228810   0.460   0.601   5.315  0.5651 -0.8704 -1.6647
 9616TIP3   OH228811   0.076   6.109   3.678  0.3289  0.0962  0.0408
 9616TIP3    H128812   0.038   6.063   3.753  0.1824  0.4991  0.2194
 9616TIP3    H228813   0.127   6.043   3.632  0.0104 -0.2739  0.2151
 9617TIP3   OH228814   0.462   1.183   2.728  0.5744  0.2998 -0.0009
 9617TIP3    H128815   0.375   1.171   2.690  0.3335 -0.6262  0.7745
 9617TIP3    H228816   0.447   1.238   2.805  0.3576 -1.3123  1.1574
 9618TIP3   OH228817   0.855   0.872   4.684 -0.2062 -0.2860 -0.3381
 9618TIP3    H128818   0.852   0.792   4.630 -0.1852  0.0839 -0.8919
 9618TIP3    H228819   0.789   0.857   4.751  0.9948 -1.5315  0.6476
 9619TIP3   OH228820   0.171   3.849   2.265  0.0595  0.2948 -0.8372
 9619TIP3    H128821   0.084   3.886   2.251 -1.2824 -1.3648  2.1040
 9619TIP3    H228822   0.189   3.800   2.185 -2.2347 -0.1568 -1.1466
 9620TIP3   OH228823   5.835   3.311   3.904 -0.5388 -0.9043  0.3795
 9620TIP3    H128824   5.812   3.399   3.934 -1.0220 -1.5601  2.0463
 9620TIP3    H228825   5.891   3.325   3.828 -2.4652  0.8174 -0.8180
 9621TIP3   OH228826   5.472   4.221   2.689 -0.1501  0.1537  0.5169
 9621TIP3    H128827   5.561   4.257   2.680  0.1648 -0.6363  0.4140
 9621TIP3    H228828   5.485   4.135   2.729 -0.7868 -0.3411 -0.3035
 9622TIP3   OH228829   6.252   0.433   1.894 -0.4521 -0.1487 -0.1249
 9622TIP3    H128830   6.237   0.445   1.988 -0.9270  0.7372 -0.3031
 9622TIP3    H228831   6.200   0.502   1.852 -1.5491 -1.5170 -1.1224
 9623TIP3   OH228832   6.276   1.723   0.118 -0.4187  0.0626  0.1217
 9623TIP3    H128833   6.307   1.783   0.050  0.4509  0.9233  1.2438
 9623TIP3    H228834   6.184   1.708   0.097 -0.5945  1.6175 -0.3022
 9624TIP3   OH228835   6.339   5.079   1.051 -0.4210  0.2108 -0.0081
 9624TIP3    H128836   6.336   5.003   0.993 -2.0126 -0.2705  0.6601
 9624TIP3    H228837   6.313   5.045   1.136  0.6050  1.1649  0.7151
 9625TIP3   OH228838   3.241   2.646   1.572 -0.7019 -0.2450 -0.5085
 9625TIP3    H128839   3.285   2.570   1.611  3.9430  1.2046 -2.1634
 9625TIP3    H228840   3.284   2.721   1.614 -1.9228  1.3947 -2.0783
 9626TIP3   OH228841   6.266   6.705   2.817  0.5617  0.0563 -0.2916
 9626TIP3    H128842   6.252   6.610   2.819 -1.6467  0.3195 -0.6475
 9626TIP3    H228843   6.360   6.715   2.802  1.0088 -2.0577  0.6455
 9627TIP3   OH228844   4.506   1.225   3.510 -0.5619 -0.9728  0.1407
 9627TIP3    H128845   4.573   1.278   3.553 -0.5646 -1.4991  0.8069
 9627TIP3    H228846   4.431   1.285   3.501  0.5315  0.1729 -2.2216
 9628TIP3   OH228847   2.927   2.863   2.366 -0.3626  0.6973  0.5376
 9628TIP3    H128848   2.960   2.931   2.424 -0.2134 -0.0847  1.3963
 9628TIP3    H228849   2.882   2.802   2.424  1.1362 -0.9291  0.0747
 9629TIP3   OH228850   4.532   1.567   1.368 -0.4164 -0.7192 -0.6710
 9629TIP3    H128851   4.591   1.504   1.410 -0.8332 -0.8119 -0.2159
 9629TIP3    H228852   4.452   1.517   1.350 -0.1981 -0.7202 -1.7189
 9630TIP3   OH228853   1.395   0.818   2.636  0.1742  0.2222  0.5927
 9630TIP3    H128854   1.424   0.771   2.558  1.1822  1.3688  0.2353
 9630TIP3    H228855   1.476   0.842   2.681 -0.2639  1.8629  0.5804
 9631TIP3   OH228856   6.673   1.771   4.444 -0.6373 -0.0950 -0.8734
 9631TIP3    H128857   6.732   1.763   4.369  0.1035 -2.1872 -0.1485
 9631TIP3    H228858   6.624   1.688   4.445 -0.6029 -0.1309  0.9422
 9632TIP3   OH228859   6.130   4.660   1.596  0.1436 -0.3618 -0.0151
 9632TIP3    H128860   6.153   4.568   1.607  1.6174 -0.2583 -1.6688
 9632TIP3    H228861   6.060   4.660   1.531  0.9789 -0.3005 -0.9506
 9633TIP3   OH228862   2.340   2.549   3.862 -0.1109 -0.4028 -0.1319
 9633TIP3    H128863   2.354   2.538   3.956  3.0936 -0.6779 -0.5325
 9633TIP3    H228864   2.314   2.640   3.851 -0.1829 -0.2825  0.9772
 9634TIP3   OH228865   1.268   3.156   2.342 -0.1413 -0.1937  0.0648
 9634TIP3    H128866   1.271   3.252   2.341 -0.9210 -0.1661 -0.8618
 9634TIP3    H228867   1.189   3.135   2.393 -0.4123 -0.3204 -0.3993
 9635TIP3   OH228868   2.715   2.232   2.084  0.2734 -0.0118  0.0462
 9635TIP3    H128869   2.668   2.174   2.024  1.7325 -0.1351 -1.0461
 9635TIP3    H228870   2.765   2.290   2.026  0.8953  0.5836  1.1465
 9636TIP3   OH228871   3.205   5.910   3.241 -0.2609 -0.4313  0.2225
 9636TIP3    H128872   3.177   5.819   3.254 -1.8037  0.0798  0.7374
 9636TIP3    H228873   3.135   5.948   3.187  1.1902  0.0395 -1.3933
 9637TIP3   OH228874   2.704   2.487   2.362 -0.8755 -0.0778  0.0005
 9637TIP3    H128875   2.654   2.506   2.283 -0.5230 -0.0848 -0.2262
 9637TIP3    H228876   2.698   2.393   2.373  0.9601 -0.4062 -1.3125
 9638TIP3   OH228877   0.131   3.377   4.032 -0.6308  0.0193 -0.0531
 9638TIP3    H128878   0.215   3.416   4.055 -0.5772 -0.5880  0.8492
 9638TIP3    H228879   0.112   3.316   4.104 -0.4247 -2.0854 -1.6806
 9639TIP3   OH228880   2.778   6.701   5.310  0.0154 -0.1524  0.1196
 9639TIP3    H128881   2.802   6.669   5.223  0.3712  1.9439 -0.6304
 9639TIP3    H228882   2.845   6.665   5.368 -0.8766 -2.5272 -0.2097
 9640TIP3   OH228883   7.111   3.793   4.998  0.2429 -0.1987  0.2621
 9640TIP3    H128884   7.155   3.762   4.920  0.4733 -0.1210  0.3610
 9640TIP3    H228885   7.019   3.799   4.973  0.6322  2.3373 -0.8169
 9641TIP3   OH228886   1.736   6.398   0.331  0.3509 -0.0581  1.1875
 9641TIP3    H128887   1.774   6.476   0.371  1.9922  0.1624 -0.6337
 9641TIP3    H228888   1.790   6.326   0.364 -0.7972 -0.3880  2.4134
 9642TIP3   OH228889   6.191   0.910   2.302 -0.1417  0.1183 -0.3432
 9642TIP3    H128890   6.285   0.902   2.287  0.0587  1.2042  0.2610
 9642TIP3    H228891   6.159   0.958   2.225 -0.1144  0.1916 -0.3095
 9643TIP3   OH228892   3.589   2.767   2.427 -0.2210 -0.7017 -0.0544
 9643TIP3    H128893   3.553   2.852   2.453 -0.5345 -1.1859  1.1740
 9643TIP3    H228894   3.683   2.782   2.419 -0.2793 -0.2336  0.1315
 9644TIP3   OH228895   2.740   2.733   3.233 -0.5181 -0.3136 -0.4967
 9644TIP3    H128896   2.776   2.800   3.291  1.3158 -2.6399  1.2671
 9644TIP3    H228897   2.646   2.749   3.232 -0.1191  2.4824 -0.5388
 9645TIP3   OH228898   1.357   3.360   3.195  0.3055 -0.6026 -0.8820
 9645TIP3    H128899   1.305   3.349   3.275 -0.8596 -1.2378 -1.7005
 9645TIP3    H228900   1.412   3.281   3.191 -0.8226 -1.3898 -1.5310
 9646TIP3   OH228901   6.226   5.457   4.576  0.2925 -0.5770  0.5492
 9646TIP3    H128902   6.319   5.470   4.594  0.5004 -0.0368 -0.8199
 9646TIP3    H228903   6.211   5.364   4.592  0.5441 -0.2695  2.9390
 9647TIP3   OH228904   3.341   1.246   2.852  0.4908  0.6580 -0.3587
 9647TIP3    H128905   3.324   1.314   2.787  1.1454 -0.5480 -1.8477
 9647TIP3    H228906   3.432   1.220   2.836  0.6310  0.2545  0.9813
 9648TIP3   OH228907   4.790   6.239   1.021  0.1057  0.2685 -0.3320
 9648TIP3    H128908   4.795   6.322   0.973 -0.9713  1.1775  1.0200
 9648TIP3    H228909   4.762   6.265   1.109 -2.1467 -1.6760 -0.3700
 9649TIP3   OH228910   5.208   3.022   3.031 -0.0055 -0.0943 -0.1483
 9649TIP3    H128911   5.143   2.959   2.999  1.0868 -1.0729 -0.5416
 9649TIP3    H228912   5.226   3.077   2.955  1.5995 -1.5675 -0.8994
 9650TIP3   OH228913   4.292   4.504   1.613 -0.6117  0.1276 -0.3607
 9650TIP3    H128914   4.259   4.476   1.528 -2.0167  2.3254 -0.6254
 9650TIP3    H228915   4.226   4.473   1.675  0.5033 -1.6379  0.0377
 9651TIP3   OH228916   1.938   1.631   5.236 -0.3094  0.1252  0.3005
 9651TIP3    H128917   1.931   1.657   5.327 -2.1991  0.3526  0.1308
 9651TIP3    H228918   1.891   1.548   5.230  0.4812 -0.3061 -0.3382
 9652TIP3   OH228919   3.556   0.393   0.324 -0.4534  0.8249 -0.1738
 9652TIP3    H128920   3.637   0.352   0.296 -0.5716 -0.3186  1.0874
 9652TIP3    H228921   3.581   0.449   0.398 -0.9601 -0.5374  1.0815
 9653TIP3   OH228922   3.492   3.645   1.409 -0.4289 -0.3551  0.0666
 9653TIP3    H128923   3.478   3.636   1.503 -1.2361  0.4503  0.0380
 9653TIP3    H228924   3.406   3.628   1.370 -0.1525 -0.4599 -0.5172
 9654TIP3   OH228925   0.960   4.461   4.347 -0.1869  0.4549 -0.3482
 9654TIP3    H128926   0.884   4.508   4.311 -0.2897  1.9041  1.6076
 9654TIP3    H228927   0.987   4.513   4.422  1.9034 -0.8035 -0.1495
 9655TIP3   OH228928   3.628   1.658   3.393 -0.1401  0.0285  0.3425
 9655TIP3    H128929   3.637   1.747   3.361 -0.9228  0.2013  0.5846
 9655TIP3    H228930   3.555   1.662   3.454 -1.8387 -1.2812 -1.4997
 9656TIP3   OH228931   1.422   0.280   5.517 -0.5685 -0.1190  0.4765
 9656TIP3    H128932   1.344   0.300   5.465 -1.0356  0.9222  1.5328
 9656TIP3    H228933   1.479   0.356   5.506  1.1428 -1.6046 -1.6990
 9657TIP3   OH228934   0.012   5.582   5.136  0.2002  0.7025  0.0550
 9657TIP3    H128935   0.076   5.596   5.065  0.6877 -1.1940  0.0679
 9657TIP3    H228936   0.065   5.555   5.211 -0.5921 -1.0834  0.0156
 9658TIP3   OH228937   0.158   1.570   3.399 -0.5306  0.5146  0.3078
 9658TIP3    H128938   0.081   1.568   3.342 -1.8105  0.9323  1.9303
 9658TIP3    H228939   0.175   1.478   3.418 -1.1531  0.4560  0.5994
 9659TIP3   OH228940   5.067   1.445  -0.009 -0.3541  0.3150 -0.6051
 9659TIP3    H128941   5.111   1.505   0.050  0.0284  0.9224 -1.4833
 9659TIP3    H228942   5.092   1.358   0.021  0.1887  0.6258 -0.1478
 9660TIP3   OH228943   3.557   4.955   4.847 -0.4153 -0.0224  0.1422
 9660TIP3    H128944   3.501   4.977   4.921  0.0503 -2.3723  1.2884
 9660TIP3    H228945   3.574   4.861   4.856  0.0772 -0.3172 -2.6759
 9661TIP3   OH228946   5.204   4.882   1.913  0.4904  0.2665  0.1869
 9661TIP3    H128947   5.276   4.867   1.851  0.0279  1.3951 -0.6601
 9661TIP3    H228948   5.143   4.938   1.866 -2.0972 -2.4038  0.0763
 9662TIP3   OH228949   1.465   5.871   1.430 -0.0915  0.0690  0.3054
 9662TIP3    H128950   1.483   5.947   1.375 -1.1783  0.1746  0.0798
 9662TIP3    H228951   1.461   5.907   1.519 -0.9853  0.3620  0.1606
 9663TIP3   OH228952   0.591   3.193   2.284 -0.0424  0.2344  1.0399
 9663TIP3    H128953   0.578   3.276   2.329  1.2563  0.0907  1.7437
 9663TIP3    H228954   0.669   3.207   2.230 -0.8192 -0.0066 -0.1765
 9664TIP3   OH228955   5.807   3.388  -0.005  0.1783  0.0053 -0.0864
 9664TIP3    H128956   5.718   3.378  -0.042  0.8070 -0.8087 -1.4782
 9664TIP3    H228957   5.800   3.352   0.083 -0.9939  0.4093  0.0121
 9665TIP3   OH228958   0.620   0.840   2.303 -0.3047  0.3437  0.3875
 9665TIP3    H128959   0.660   0.848   2.216  1.2673  0.5303  1.0875
 9665TIP3    H228960   0.694   0.850   2.364 -1.3218 -0.0993  1.7365
 9666TIP3   OH228961   0.610   4.515   3.431 -0.2925 -0.3402 -0.5417
 9666TIP3    H128962   0.701   4.503   3.457  0.0630 -0.2120 -1.6554
 9666TIP3    H228963   0.615   4.538   3.338 -1.5169 -1.5940 -0.9569
 9667TIP3   OH228964   0.443   3.101   1.732  0.2365  0.0471  0.2287
 9667TIP3    H128965   0.472   3.176   1.680 -0.3073  0.1894  0.1263
 9667TIP3    H228966   0.495   3.105   1.812 -0.7810  1.3759  0.8571
 9668TIP3   OH228967   0.811   2.516   1.136 -0.0336  0.2340 -0.0549
 9668TIP3    H128968   0.732   2.522   1.083 -0.1708  0.8658  0.2201
 9668TIP3    H228969   0.879   2.556   1.082  0.1731 -0.5608 -0.4099
 9669TIP3   OH228970   2.902   2.204   4.605 -0.3044  0.1232 -0.0148
 9669TIP3    H128971   2.981   2.173   4.649 -0.1400  0.7635  0.1600
 9669TIP3    H228972   2.935   2.241   4.522 -0.7199 -2.0822 -1.2546
 9670TIP3   OH228973   2.782   0.681   1.851 -0.3487 -0.5907 -0.3883
 9670TIP3    H128974   2.775   0.700   1.758 -0.5283 -0.0343 -0.2681
 9670TIP3    H228975   2.754   0.762   1.894  1.9519  0.0033  0.1417
 9671TIP3   OH228976   6.105   1.753   0.507  0.4863  0.4894 -0.0726
 9671TIP3    H128977   6.065   1.838   0.488  0.5933  0.3791 -0.7999
 9671TIP3    H228978   6.089   1.741   0.601  0.1464  1.1404 -0.0338
 9672TIP3   OH228979   4.113   3.597   3.981 -0.4230  0.1130  0.3816
 9672TIP3    H128980   4.110   3.665   3.914 -1.2559 -0.5698 -0.2973
 9672TIP3    H228981   4.034   3.545   3.966  1.9595 -3.3652 -1.6435
 9673TIP3   OH228982   6.788   5.088   0.093  0.7013  0.2710  0.0912
 9673TIP3    H128983   6.728   5.105   0.165 -0.3152  1.3025 -0.9677
 9673TIP3    H228984   6.749   5.015   0.045 -1.0531  2.3690 -1.9277
 9674TIP3   OH228985   4.601   5.886   5.813 -0.3978 -0.5975 -0.0765
 9674TIP3    H128986   4.693   5.871   5.833  0.4098  1.5280 -1.8211
 9674TIP3    H228987   4.576   5.812   5.757  0.4948 -0.7490 -0.2799
 9675TIP3   OH228988   0.464   1.855   4.168 -0.0462 -0.0895 -0.0663
 9675TIP3    H128989   0.495   1.867   4.257 -1.2362  1.0408  0.2244
 9675TIP3    H228990   0.388   1.797   4.176 -0.4273  0.3650 -0.2616
 9676TIP3   OH228991   2.977   5.222   4.529  0.5830  0.2556 -0.4734
 9676TIP3    H128992   3.036   5.154   4.497  2.2440  0.9954  0.8632
 9676TIP3    H228993   3.010   5.303   4.490 -0.3385  0.5405 -0.7031
 9677TIP3   OH228994   6.115   5.891   0.259 -0.4042 -0.1393  0.0768
 9677TIP3    H128995   6.107   5.800   0.289 -0.0423  0.0322  0.7183
 9677TIP3    H228996   6.117   5.885   0.164  0.8389 -0.9050  0.1310
 9678TIP3   OH228997   6.818   5.260   4.577 -0.1223 -0.0415 -0.2933
 9678TIP3    H128998   6.850   5.190   4.520 -0.8311 -1.0553  0.5012
 9678TIP3    H228999   6.756   5.216   4.637  0.8934  0.8717  1.5217
 9679TIP3   OH229000   6.859   1.084   3.100 -0.0000 -0.2014 -0.8092
 9679TIP3    H129001   6.928   1.028   3.066  0.9667 -0.3234  1.2417
 9679TIP3    H229002   6.859   1.068   3.194 -1.9158  0.8204 -0.5880
 9680TIP3   OH229003   6.987   6.306   2.296  0.5955 -0.3037 -0.7033
 9680TIP3    H129004   7.062   6.272   2.247  0.0730 -1.8017 -0.5140
 9680TIP3    H229005   7.025   6.345   2.374  1.1651 -1.4696 -0.3772
 9681TIP3   OH229006   4.391   3.389   2.629  0.2457  0.6670  0.2047
 9681TIP3    H129007   4.400   3.368   2.722  1.8341 -2.1246 -0.4562
 9681TIP3    H229008   4.480   3.410   2.600  0.3759 -1.6121 -1.2641
 9682TIP3   OH229009   6.715   1.941   3.456  0.4725 -0.1373  0.2185
 9682TIP3    H129010   6.713   1.846   3.469 -0.0582 -0.4696 -1.9229
 9682TIP3    H229011   6.653   1.957   3.385  1.6530  1.6312 -0.4890
 9683TIP3   OH229012   0.268   4.162   5.311 -0.3430  0.0072  0.2004
 9683TIP3    H129013   0.303   4.240   5.269  0.0246 -0.3837 -0.2293
 9683TIP3    H229014   0.227   4.112   5.240  0.6798 -0.8733  0.2076
 9684TIP3   OH229015   6.599   3.279   4.788  0.0521 -0.6774  0.0448
 9684TIP3    H129016   6.588   3.283   4.883  1.5057  0.6315  0.2120
 9684TIP3    H229017   6.686   3.240   4.776  0.8017  1.0931 -0.6245
 9685TIP3   OH229018   2.516   0.522   5.751  0.1150 -0.6919  0.7498
 9685TIP3    H129019   2.583   0.588   5.733 -0.6312  0.1948  1.1270
 9685TIP3    H229020   2.559   0.458   5.807  0.6253 -0.0888  1.0571
 9686TIP3   OH229021   0.768   0.339   0.415  0.3528  0.3106  0.1018
 9686TIP3    H129022   0.744   0.414   0.469 -0.2234  1.0712 -1.1585
 9686TIP3    H229023   0.727   0.356   0.330  2.1883 -0.2458 -0.9586
 9687TIP3   OH229024   0.953   2.859   0.286 -0.4747  0.0669  0.2796
 9687TIP3    H129025   0.955   2.765   0.304  0.6781 -0.2233 -1.2049
 9687TIP3    H229026   0.904   2.867   0.204 -1.1847  0.8387  0.7669
 9688TIP3   OH229027   6.221   6.681   3.103  0.3895 -0.3702 -0.4196
 9688TIP3    H129028   6.282   6.713   3.169  1.3465 -0.0309 -1.4284
 9688TIP3    H229029   6.259   6.711   3.020 -2.6632  2.4634 -0.9898
 9689TIP3   OH229030   0.586   3.026   2.698  0.0184  0.0606  0.1966
 9689TIP3    H129031   0.498   3.042   2.731 -0.5075 -1.8217 -0.1465
 9689TIP3    H229032   0.573   3.013   2.604  0.7744  0.4402  0.0346
 9690TIP3   OH229033   3.706   5.124   2.463  0.2191 -0.3894  0.3754
 9690TIP3    H129034   3.700   5.028   2.460  0.3067 -0.3619 -1.5365
 9690TIP3    H229035   3.799   5.141   2.474  0.2023 -0.5020  0.7364
 9691TIP3   OH229036   5.271   1.720   2.313 -0.4548 -0.7661 -0.4020
 9691TIP3    H129037   5.243   1.636   2.349  1.0826 -1.2564 -0.2544
 9691TIP3    H229038   5.297   1.771   2.390 -0.0823 -0.6644 -0.5950
 9692TIP3   OH229039   0.314   3.781   1.983 -0.8797 -0.0087 -0.5555
 9692TIP3    H129040   0.375   3.827   1.927  1.7156 -1.0308  1.2541
 9692TIP3    H229041   0.295   3.699   1.937  1.8563 -1.2062  0.2915
 9693TIP3   OH229042   2.989   6.681   1.812  0.0342 -0.2034 -0.3576
 9693TIP3    H129043   3.016   6.737   1.885 -0.4877 -1.0963  0.5423
 9693TIP3    H229044   3.060   6.618   1.804  0.4857  0.3926 -1.1846
 9694TIP3   OH229045   1.228   6.421   3.941 -0.9863 -0.2255 -0.5697
 9694TIP3    H129046   1.310   6.400   3.894 -0.7350  0.6670 -0.5491
 9694TIP3    H229047   1.162   6.425   3.872 -0.7882  0.1809 -0.7428
 9695TIP3   OH229048   6.310   6.706   4.667  0.5660 -0.1023  0.3746
 9695TIP3    H129049   6.235   6.714   4.607  0.9005  2.2354  0.1744
 9695TIP3    H229050   6.270   6.687   4.752 -0.0121 -1.8434 -0.2274
 9696TIP3   OH229051   2.301   4.876   5.093 -0.4128  0.1281  0.0472
 9696TIP3    H129052   2.361   4.869   5.167 -1.3481 -0.0469  0.8052
 9696TIP3    H229053   2.308   4.968   5.065  1.2211 -0.2129 -0.7750
 9697TIP3   OH229054   0.721   2.489   3.699  0.5824 -0.0302  0.2029
 9697TIP3    H129055   0.638   2.504   3.745  1.7426  2.0437  1.7563
 9697TIP3    H229056   0.742   2.574   3.659  0.8524 -1.1322 -2.1786
 9698TIP3   OH229057   5.938   4.739   0.137  0.2201  0.5016 -0.2859
 9698TIP3    H129058   5.854   4.777   0.162 -0.2094 -1.1953  0.9717
 9698TIP3    H229059   5.982   4.809   0.087 -0.9931  2.1937  0.9231
 9699TIP3   OH229060   2.998   1.443   0.048 -0.2525  0.2004  0.8106
 9699TIP3    H129061   2.972   1.374  -0.013  0.7204 -0.4564  1.1111
 9699TIP3    H229062   2.924   1.503   0.049 -1.1593 -0.8769  0.5896
 9700TIP3   OH229063   5.588   4.579   1.978  0.4864 -0.3793 -0.5850
 9700TIP3    H129064   5.659   4.644   1.973 -0.6132  0.8583 -0.7229
 9700TIP3    H229065   5.516   4.627   2.018 -0.0695 -1.8161  0.1907
 9701TIP3   OH229066   1.451   4.168   4.122  0.3245 -0.0102  0.4712
 9701TIP3    H129067   1.421   4.103   4.059 -0.1709  0.4190  0.2594
 9701TIP3    H229068   1.544   4.149   4.133  0.9378  1.1988 -1.9545
 9702TIP3   OH229069   4.876   0.320   2.393 -0.8679 -0.0521  0.4666
 9702TIP3    H129070   4.908   0.319   2.483  0.9904  0.9076 -0.1538
 9702TIP3    H229071   4.899   0.233   2.359  0.6708  0.4398  0.1902
 9703TIP3   OH229072   6.065   3.560   4.764 -0.1453  0.0106 -0.3556
 9703TIP3    H129073   6.123   3.573   4.689 -1.4807  1.9740 -1.1226
 9703TIP3    H229074   6.005   3.490   4.737 -0.4722  0.5496 -1.0220
 9704TIP3   OH229075   5.399   1.570   2.624 -0.3738  0.4741 -0.2521
 9704TIP3    H129076   5.463   1.640   2.631 -0.6268  0.7448 -0.5993
 9704TIP3    H229077   5.447   1.490   2.646  0.0041  0.7111 -0.2210
 9705TIP3   OH229078   4.363   1.716   2.097  0.0591  0.5706  0.4362
 9705TIP3    H129079   4.421   1.791   2.109  0.8096 -0.2233  2.2228
 9705TIP3    H229080   4.420   1.646   2.066 -0.4820  0.4955 -0.4211
 9706TIP3   OH229081   4.937   5.438   3.213 -0.0883  0.0220  0.2350
 9706TIP3    H129082   4.923   5.444   3.119  2.3556 -0.8094 -0.2397
 9706TIP3    H229083   4.856   5.472   3.251 -0.8800  1.0052 -2.1453
 9707TIP3   OH229084   3.245   5.469   5.846 -0.1820  0.3471 -0.3461
 9707TIP3    H129085   3.287   5.551   5.823  0.0919 -0.0410 -1.2632
 9707TIP3    H229086   3.164   5.495   5.890 -0.5990  1.1190 -1.5428
 9708TIP3   OH229087   4.807   2.927   1.610 -0.4048 -0.2455 -0.1922
 9708TIP3    H129088   4.879   2.868   1.632  0.0439 -1.1325 -3.4970
 9708TIP3    H229089   4.848   3.014   1.608 -0.4684 -0.1147  2.1045
 9709TIP3   OH229090   3.476   5.555   2.819  0.3469 -0.0508  0.1501
 9709TIP3    H129091   3.385   5.541   2.793  0.6681 -0.9297 -0.5829
 9709TIP3    H229092   3.471   5.616   2.893 -1.0219 -1.9742  1.7563
 9710TIP3   OH229093   2.470   2.617   1.589  0.0580  0.0347 -0.2165
 9710TIP3    H129094   2.552   2.594   1.546 -0.3708 -0.4167 -0.8151
 9710TIP3    H229095   2.448   2.703   1.555 -0.4235 -0.4409 -1.1335
 9711TIP3   OH229096   3.152   2.243   5.297 -0.3489 -0.1104  0.1904
 9711TIP3    H129097   3.111   2.166   5.336 -0.4092  0.1173  0.5776
 9711TIP3    H229098   3.113   2.317   5.343 -1.0306  0.2099 -0.8564
 9712TIP3   OH229099   4.402   4.239   5.400 -0.1588  0.2037  0.0947
 9712TIP3    H129100   4.308   4.243   5.382 -0.0593  0.5585 -0.3716
 9712TIP3    H229101   4.441   4.296   5.334  0.4739 -0.6974 -0.3253
 9713TIP3   OH229102   3.639   6.392   3.522  0.3468  0.0297  0.1341
 9713TIP3    H129103   3.675   6.377   3.609 -0.1224 -0.1638  0.2955
 9713TIP3    H229104   3.546   6.374   3.531  0.1756  0.6873 -0.2422
 9714TIP3   OH229105   3.116   1.587   0.425  0.5427 -0.1947  0.4960
 9714TIP3    H129106   3.161   1.502   0.421  0.8011 -0.0179 -0.6038
 9714TIP3    H229107   3.154   1.630   0.502  2.0856 -0.1581 -0.2524
 9715TIP3   OH229108   6.231   6.361   0.423  0.6656  0.4356 -0.2475
 9715TIP3    H129109   6.193   6.405   0.347  0.5755 -0.2751 -0.6222
 9715TIP3    H229110   6.162   6.363   0.489  0.4574  0.3564 -0.4610
 9716TIP3   OH229111   5.679   6.727   5.297 -0.2220 -0.0870  0.0744
 9716TIP3    H129112   5.651   6.651   5.245  1.3515 -0.6230 -0.0460
 9716TIP3    H229113   5.728   6.781   5.236 -3.5491  2.5343 -0.5951
 9717TIP3   OH229114   1.605   3.443   3.790 -0.6431  0.7592 -0.0509
 9717TIP3    H129115   1.641   3.388   3.721 -0.2768  0.2638  0.5202
 9717TIP3    H229116   1.655   3.525   3.784 -0.5118  0.6652 -0.2747
 9718TIP3   OH229117   6.220   4.828   5.655  0.2575  0.1690 -0.6069
 9718TIP3    H129118   6.312   4.850   5.638  0.3733 -0.0753 -0.2853
 9718TIP3    H229119   6.211   4.737   5.627 -0.0718  0.4223 -1.3468
 9719TIP3   OH229120   6.654   4.030   2.771 -0.6153  0.5270  0.1447
 9719TIP3    H129121   6.641   3.984   2.854 -0.2159 -1.4458 -0.8304
 9719TIP3    H229122   6.737   3.995   2.738 -1.3133  0.4477 -1.5983
 9720TIP3   OH229123   6.532   1.782   3.227 -0.9231  0.2515  0.1773
 9720TIP3    H129124   6.534   1.861   3.172 -1.1580  0.5493  0.5883
 9720TIP3    H229125   6.496   1.813   3.310  1.2438  0.2219  1.1688
 9721TIP3   OH229126   2.693   0.679   5.578  0.3613  0.5313  0.8701
 9721TIP3    H129127   2.632   0.660   5.507  0.9573 -0.2420  0.5497
 9721TIP3    H229128   2.765   0.617   5.565  0.7970  0.8358  1.7546
 9722TIP3   OH229129   4.095   2.112   1.696 -0.1489  0.3698 -0.4145
 9722TIP3    H129130   4.078   2.206   1.690 -0.3361  0.3131 -0.7902
 9722TIP3    H229131   4.175   2.100   1.645 -0.5347  0.2145 -0.9864
 9723TIP3   OH229132   4.198   5.873   3.192  0.1378 -0.2768 -0.0462
 9723TIP3    H129133   4.181   5.909   3.105  2.3449  0.9579 -0.0446
 9723TIP3    H229134   4.111   5.866   3.233 -0.8001  0.5457 -1.7900
 9724TIP3   OH229135   6.813   3.287   0.077 -0.4264  0.1901  0.0608
 9724TIP3    H129136   6.847   3.364   0.031  0.8329  0.6749  1.7169
 9724TIP3    H229137   6.745   3.322   0.135 -1.2947 -0.2709 -0.6565
 9725TIP3   OH229138   6.115   1.615   5.159  0.1789 -0.2591  0.2683
 9725TIP3    H129139   6.043   1.552   5.148  0.5648 -0.7095  0.2517
 9725TIP3    H229140   6.072   1.699   5.172 -0.3523 -0.5648  0.5194
 9726TIP3   OH229141   1.038   3.886   2.567  0.2286  0.0544 -0.1623
 9726TIP3    H129142   0.976   3.905   2.637 -1.1277 -0.0514 -1.2903
 9726TIP3    H229143   0.990   3.829   2.507  2.6126 -3.3090  0.7752
 9727TIP3   OH229144   2.682   4.490   2.727 -0.3835 -0.3414 -0.1155
 9727TIP3    H129145   2.652   4.443   2.649  0.3640  0.8524 -1.1575
 9727TIP3    H229146   2.640   4.444   2.800 -0.5739 -1.8978 -1.1569
 9728TIP3   OH229147   4.365   6.052   0.074 -0.0171 -0.7059  0.2998
 9728TIP3    H129148   4.357   6.092   0.160 -0.1122 -0.1957  0.0560
 9728TIP3    H229149   4.441   5.994   0.082  0.9550  0.5153  0.2915
 9729TIP3   OH229150   2.509   5.466   3.712  0.1382  0.2885 -0.4282
 9729TIP3    H129151   2.519   5.561   3.725 -0.6942  0.3191  0.1091
 9729TIP3    H229152   2.569   5.427   3.775  0.4965  0.4649 -0.6614
 9730TIP3   OH229153   6.280   5.617   4.035  0.2056 -0.3168  0.3497
 9730TIP3    H129154   6.303   5.551   3.970 -0.9417 -0.1924 -0.2026
 9730TIP3    H229155   6.230   5.570   4.102 -1.1905  0.0635 -0.3754
 9731TIP3   OH229156   5.031   3.482   0.340  0.6234 -0.0314 -0.2193
 9731TIP3    H129157   4.953   3.527   0.308 -0.0304 -0.9858 -0.0166
 9731TIP3    H229158   5.076   3.455   0.260  0.0449 -0.6334 -0.3554
 9732TIP3   OH229159   3.861   0.904   3.805  0.5633 -0.0624 -0.3264
 9732TIP3    H129160   3.854   0.997   3.830 -0.2590  0.0679 -1.0027
 9732TIP3    H229161   3.844   0.903   3.711 -0.8205 -1.0381 -0.1017
 9733TIP3   OH229162   5.222   2.372   2.996 -0.1626  0.0568  0.7668
 9733TIP3    H129163   5.179   2.390   2.913  0.3730 -1.0799  0.2089
 9733TIP3    H229164   5.315   2.383   2.978  0.4853 -4.7002 -0.2180
 9734TIP3   OH229165   4.475   5.242   3.096 -0.0643 -0.1579  0.3300
 9734TIP3    H129166   4.532   5.165   3.087 -2.0049 -1.4748 -1.3263
 9734TIP3    H229167   4.439   5.235   3.185  0.2737 -0.7932  0.4194
 9735TIP3   OH229168   4.132   4.054   1.989 -0.2060  0.0214  0.3578
 9735TIP3    H129169   4.217   4.094   1.969  0.5225 -0.6878  1.8571
 9735TIP3    H229170   4.098   4.026   1.904  1.6856 -0.8521 -0.1848
 9736TIP3   OH229171   5.761   1.744   4.897  0.3668  0.0773 -0.0800
 9736TIP3    H129172   5.675   1.717   4.867 -0.1802 -0.2877  1.7136
 9736TIP3    H229173   5.758   1.733   4.992  2.1843  0.6465  0.0796
 9737TIP3   OH229174   4.349   2.078   1.511  0.2863  0.3559  0.4105
 9737TIP3    H129175   4.353   2.006   1.448  0.0564  0.3089  0.4483
 9737TIP3    H229176   4.375   2.156   1.461 -0.2114  0.3731  0.1704
 9738TIP3   OH229177   0.067   2.764   2.293  0.0746  0.3802  0.0258
 9738TIP3    H129178   0.035   2.723   2.213 -0.3425  0.2949  0.2357
 9738TIP3    H229179   0.070   2.693   2.357  0.8702  0.3422 -0.0378
 9739TIP3   OH229180   7.041   4.707   1.506  1.1232  0.3457 -0.2395
 9739TIP3    H129181   7.032   4.731   1.413  1.4722 -0.4588 -0.4847
 9739TIP3    H229182   7.082   4.621   1.505  0.2170 -0.1151  0.6443
 9740TIP3   OH229183   0.223   4.588   3.911 -0.1081  0.0188 -0.1292
 9740TIP3    H129184   0.314   4.565   3.890 -0.4726 -0.3626 -1.3767
 9740TIP3    H229185   0.174   4.566   3.832 -1.7791 -2.6318  1.5164
 9741TIP3   OH229186   3.507   0.759   0.573  0.2821 -0.2508 -0.6306
 9741TIP3    H129187   3.480   0.678   0.529 -1.0269 -0.8616  1.1725
 9741TIP3    H229188   3.546   0.730   0.655 -0.4579  0.9421  0.1614
 9742TIP3   OH229189   4.184   2.279   3.072  0.6188 -0.0726  0.1640
 9742TIP3    H129190   4.225   2.324   3.146 -2.2983 -0.3164  2.1051
 9742TIP3    H229191   4.213   2.188   3.080  1.6939  0.2217 -0.1217
 9743TIP3   OH229192   1.339   6.791   2.327 -0.0137  0.2319 -0.1002
 9743TIP3    H129193   1.434   6.799   2.327 -0.0188  0.8282 -1.9349
 9743TIP3    H229194   1.320   6.737   2.251 -1.1304 -0.4226  0.6169
 9744TIP3   OH229195   0.225   0.951   0.820  0.1973 -0.0519  0.4584
 9744TIP3    H129196   0.220   1.045   0.801  1.0585  0.3523  2.0559
 9744TIP3    H229197   0.136   0.919   0.804 -0.0581  0.9819 -0.3147
 9745TIP3   OH229198   0.151   2.283   2.422  0.2143 -0.2026  0.1770
 9745TIP3    H129199   0.188   2.202   2.389 -1.1975 -0.7745 -0.0872
 9745TIP3    H229200   0.098   2.257   2.498  0.7031  0.6411  0.8341
 9746TIP3   OH229201   7.156   5.085   0.424  0.5143 -0.0180 -0.3893
 9746TIP3    H129202   7.190   5.165   0.382  1.2213 -0.8025 -1.3486
 9746TIP3    H229203   7.130   5.029   0.352 -0.8097 -0.3378  0.2967
 9747TIP3   OH229204   5.606   1.491   3.618  0.1794  0.4863  0.4608
 9747TIP3    H129205   5.537   1.493   3.551  0.2071  2.0455  0.4313
 9747TIP3    H229206   5.581   1.560   3.680 -0.3263 -1.4822  2.5957
 9748TIP3   OH229207   6.855   4.932   5.656 -0.2430  0.4470 -0.1993
 9748TIP3    H129208   6.940   4.974   5.641 -0.1976 -0.0912 -1.5675
 9748TIP3    H229209   6.820   4.917   5.569 -0.7825 -1.2784  0.2737
 9749TIP3   OH229210   2.227   6.788   2.652 -0.6979 -0.0134 -0.2924
 9749TIP3    H129211   2.165   6.840   2.703 -2.0233 -0.8984 -0.9476
 9749TIP3    H229212   2.173   6.737   2.592  0.6122 -1.3548 -0.4101
   7.21566   6.80300   5.89155   0.00000   0.00000  -2.40522   0.00000  -2.40522  -3.40149
